<event>
11    1  0.8551154E-009  0.1677710E+03  0.7561462E-02  0.1079988E+00
         22   -1    0    0    0    0  0.00000000000E+00  0.00000000000E+00  0.79198751489E+03  0.79198751489E+03  0.00000000000E+00 0. -1.
         22   -1    0    0    0    0 -0.00000000000E+00 -0.00000000000E+00 -0.25553957337E+03  0.25553957337E+03  0.00000000000E+00 0.  1.
         24    2    1    2    0    0 -0.12817077846E+02  0.12757052152E+02 -0.19332081524E+03  0.21036642809E+03  0.80957251678E+02 0.  0.
         25    2    1    2    0    0  0.11366958145E+03 -0.55364229544E+02  0.12458150250E+03  0.21714947303E+03  0.12508945285E+03 0.  0.
        -24    2    1    2    0    0 -0.10085250360E+03  0.42607177392E+02  0.60518725426E+03  0.62001118715E+03  0.78585370289E+02 0.  0.
        -11    1    3    3    0    0 -0.14804892941E+02 -0.32499217344E+02 -0.10821297563E+03  0.11395364004E+03  0.00000000000E+00 0.  1.
         12    1    3    3    0    0  0.19878150952E+01  0.45256269496E+02 -0.85107839606E+02  0.96412788052E+02  0.00000000000E+00 0. -1.
         13    1    5    5    0    0 -0.52117777858E+02 -0.44918328361E+01  0.41143492897E+03  0.41474707968E+03  0.00000000000E+00 0. -1.
        -14    1    5    5    0    0 -0.48734725742E+02  0.47099010228E+02  0.19375232529E+03  0.20526410747E+03  0.00000000000E+00 0.  1.
          5    1    4    4  501    0  0.43005935283E+02  0.16566742589E+02 -0.11544468976E+02  0.47693968104E+02  0.41800000000E+01 0.  1.
         -5    1    4    4    0  501  0.70663646163E+02 -0.71930972133E+02  0.13612597147E+03  0.16945550493E+03  0.41800000000E+01 0.  1.
</event>
<event>
11    1  0.8551154E-009  0.2871303E+03  0.7561462E-02  0.1005790E+00
         22   -1    0    0    0    0  0.00000000000E+00  0.00000000000E+00  0.20832483689E+04  0.20832483689E+04  0.00000000000E+00 0.  1.
         22   -1    0    0    0    0 -0.00000000000E+00 -0.00000000000E+00 -0.63068282995E+02  0.63068282995E+02  0.00000000000E+00 0.  1.
         24    2    1    2    0    0  0.96556258193E+02  0.21806888297E+03  0.49745854494E+03  0.55749485293E+03  0.80363912196E+02 0.  0.
         25    2    1    2    0    0 -0.81138335385E+02 -0.28158996779E+03  0.84382092019E+03  0.90197384299E+03  0.12508688444E+03 0.  0.
        -24    2    1    2    0    0 -0.15417922807E+02  0.63521084813E+02  0.67890062073E+03  0.68684795594E+03  0.81125958807E+02 0.  0.
        -11    1    3    3    0    0  0.10672839134E+03  0.21515614199E+03  0.48452788381E+03  0.54078682042E+03  0.00000000000E+00 0.  1.
         12    1    3    3    0    0 -0.10172133145E+02  0.29127409797E+01  0.12930661138E+02  0.16708032505E+02  0.00000000000E+00 0. -1.
         11    1    5    5    0    0 -0.11242489469E+02  0.82990005351E+02  0.57356330982E+03  0.57964524058E+03  0.00000000000E+00 0. -1.
        -12    1    5    5    0    0 -0.41754333378E+01 -0.19468920538E+02  0.10533731091E+03  0.10720271536E+03  0.00000000000E+00 0.  1.
          5    1    4    4  501    0 -0.96887831596E+02 -0.23360834253E+03  0.78283199636E+03  0.82268068929E+03  0.41800000000E+01 0. -1.
         -5    1    4    4    0  501  0.15749496211E+02 -0.47981625259E+02  0.60988923836E+02  0.79293153703E+02  0.41800000000E+01 0. -1.
</event>
<event>
11    1  0.8551154E-009  0.7147055E+03  0.7561462E-02  0.9010910E-01
         22   -1    0    0    0    0  0.00000000000E+00  0.00000000000E+00  0.89066288919E+03  0.89066288919E+03  0.00000000000E+00 0.  1.
         22   -1    0    0    0    0 -0.00000000000E+00 -0.00000000000E+00 -0.12519334781E+04  0.12519334781E+04  0.00000000000E+00 0.  1.
        -24    2    1    2    0    0 -0.58174340275E+02  0.69951932886E+03 -0.88237287005E+03  0.11303624997E+04  0.80162045511E+02 0.  0.
         25    2    1    2    0    0  0.16489180801E+03 -0.70071086817E+03  0.48680785078E+03  0.87796604348E+03  0.12512977583E+03 0.  0.
         24    2    1    2    0    0 -0.10671746774E+03  0.11915393066E+01  0.34294430371E+02  0.13426782414E+03  0.73903335227E+02 0.  0.
        -11    1    5    5    0    0 -0.89707405549E+02  0.31477943586E+02  0.25780933624E+02  0.98503482584E+02  0.00000000000E+00 0.  1.
         12    1    5    5    0    0 -0.17010062189E+02 -0.30286404279E+02  0.85134967473E+01  0.35764341553E+02  0.00000000000E+00 0. -1.
         11    1    3    3    0    0  0.16526307204E+02  0.20644922132E+03 -0.28202980087E+03  0.34990742832E+03  0.00000000000E+00 0. -1.
        -12    1    3    3    0    0 -0.74700647479E+02  0.49307010754E+03 -0.60034306918E+03  0.78045507135E+03  0.00000000000E+00 0.  1.
          5    1    4    4  501    0  0.85647402996E+02 -0.57680931936E+03  0.39966808011E+03  0.70696288106E+03  0.41800000000E+01 0. -1.
         -5    1    4    4    0  501  0.79244405017E+02 -0.12390154881E+03  0.87139770669E+02  0.17100316241E+03  0.41800000000E+01 0. -1.
</event>
<event>
11    1  0.8551154E-009  0.1663178E+03  0.7561462E-02  0.1081281E+00
         22   -1    0    0    0    0  0.00000000000E+00  0.00000000000E+00  0.12876506826E+04  0.12876506826E+04  0.00000000000E+00 0.  1.
         22   -1    0    0    0    0 -0.00000000000E+00 -0.00000000000E+00 -0.60263479639E+03  0.60263479639E+03  0.00000000000E+00 0. -1.
        -24    2    1    2    0    0 -0.82091423051E+02 -0.62880057155E+02 -0.45442625395E+03  0.47282289933E+03  0.79783272252E+02 0.  0.
         25    2    1    2    0    0  0.16701426999E+03  0.54867577553E+02 -0.50663335163E+02  0.22161739157E+03  0.12507308770E+03 0.  0.
         24    2    1    2    0    0 -0.84922846941E+02  0.80124796024E+01  0.11901054754E+04  0.11958451881E+04  0.80116051650E+02 0.  0.
        -13    1    5    5    0    0 -0.45194016087E+02 -0.35952416755E+02  0.57691972166E+03  0.57980293255E+03  0.00000000000E+00 0.  1.
         14    1    5    5    0    0 -0.39728830854E+02  0.43964896358E+02  0.61318575371E+03  0.61604225558E+03  0.00000000000E+00 0. -1.
         13    1    3    3    0    0 -0.47149768813E+02 -0.22598148891E+02 -0.36483779271E+03  0.36856531581E+03  0.00000000000E+00 0. -1.
        -14    1    3    3    0    0 -0.34941654238E+02 -0.40281908265E+02 -0.89588461242E+02  0.10425758352E+03  0.00000000000E+00 0.  1.
          5    1    4    4  501    0 -0.56403342421E+01 -0.24466343639E+02 -0.94041240721E+01  0.27135314463E+02  0.41800000000E+01 0. -1.
         -5    1    4    4    0  501  0.17265460423E+03  0.79333921192E+02 -0.41259211091E+02  0.19448207710E+03  0.41800000000E+01 0. -1.
</event>
<event>
11    1  0.8551154E-009  0.2207675E+03  0.7561462E-02  0.1040738E+00
         22   -1    0    0    0    0  0.00000000000E+00  0.00000000000E+00  0.33921794856E+03  0.33921794856E+03  0.00000000000E+00 0. -1.
         22   -1    0    0    0    0 -0.00000000000E+00 -0.00000000000E+00 -0.47852776143E+03  0.47852776143E+03  0.00000000000E+00 0. -1.
         24    2    1    2    0    0  0.42627555461E+02 -0.17588597163E+03 -0.34866376529E+03  0.40089864263E+03  0.80001980840E+02 0.  0.
         25    2    1    2    0    0 -0.70971354750E+02  0.17465841576E+03  0.43079086244E+02  0.23031394860E+03  0.12508481865E+03 0.  0.
        -24    2    1    2    0    0  0.28343799290E+02  0.12275558637E+01  0.16627486617E+03  0.18653311875E+03  0.79639157576E+02 0.  0.
        -13    1    3    3    0    0 -0.50425592756E+01  0.70512580460E+01 -0.12257808435E+02  0.15013377758E+02  0.00000000000E+00 0.  1.
         14    1    3    3    0    0  0.47670114736E+02 -0.18293722967E+03 -0.33640595686E+03  0.38588526488E+03  0.00000000000E+00 0. -1.
         13    1    5    5    0    0  0.17344150736E+02 -0.39074318798E+02  0.82347163303E+02  0.92782957801E+02  0.00000000000E+00 0. -1.
        -14    1    5    5    0    0  0.10999648553E+02  0.40301874661E+02  0.83927702871E+02  0.93750160953E+02  0.00000000000E+00 0.  1.
          5    1    4    4  501    0 -0.87544923258E+01 -0.19458514450E+02 -0.80619733953E+00  0.21757694608E+02  0.41800000000E+01 0.  1.
         -5    1    4    4    0  501 -0.62216862425E+02  0.19411693021E+03  0.43885283584E+02  0.20855625399E+03  0.41800000000E+01 0.  1.
</event>
<event>
11    1  0.8551154E-009  0.1445383E+03  0.7561462E-02  0.1102594E+00
         22   -1    0    0    0    0  0.00000000000E+00  0.00000000000E+00  0.21695824856E+03  0.21695824856E+03  0.00000000000E+00 0. -1.
         22   -1    0    0    0    0 -0.00000000000E+00 -0.00000000000E+00 -0.61558652173E+03  0.61558652173E+03  0.00000000000E+00 0. -1.
        -24    2    1    2    0    0 -0.43422011803E+02 -0.43266973295E+02 -0.41859357749E+03  0.43045141833E+03  0.79437638057E+02 0.  0.
         25    2    1    2    0    0  0.77199689950E+02  0.10109150123E+03 -0.12768948935E+03  0.21938769449E+03  0.12508825306E+03 0.  0.
         24    2    1    2    0    0 -0.33777678147E+02 -0.57824527940E+02  0.14765479367E+03  0.18270565747E+03  0.84230704646E+02 0.  0.
        -11    1    5    5    0    0 -0.38096241888E-01  0.86666154878E+01 -0.69180529922E+01  0.11089234984E+02  0.00000000000E+00 0.  1.
         12    1    5    5    0    0 -0.33739581905E+02 -0.66491143427E+02  0.15457284666E+03  0.17161642248E+03  0.00000000000E+00 0. -1.
         13    1    3    3    0    0 -0.95654420530E+01 -0.54876063391E+02 -0.33376223927E+03  0.33837865237E+03  0.00000000000E+00 0. -1.
        -14    1    3    3    0    0 -0.33856569750E+02  0.11609090096E+02 -0.84831338220E+02  0.92072765964E+02  0.00000000000E+00 0.  1.
          5    1    4    4  501    0  0.35012849615E+02  0.11880886241E+02 -0.11369642265E+03  0.11963028053E+03  0.41800000000E+01 0.  1.
         -5    1    4    4    0  501  0.42186840334E+02  0.89210614993E+02 -0.13993066699E+02  0.99757413962E+02  0.41800000000E+01 0.  1.
</event>
<event>
11    1  0.8551154E-009  0.1491559E+03  0.7561462E-02  0.1097744E+00
         22   -1    0    0    0    0  0.00000000000E+00  0.00000000000E+00  0.19089764833E+04  0.19089764833E+04  0.00000000000E+00 0.  1.
         22   -1    0    0    0    0 -0.00000000000E+00 -0.00000000000E+00 -0.22809444738E+03  0.22809444738E+03  0.00000000000E+00 0. -1.
        -24    2    1    2    0    0 -0.32273109007E+02  0.27078979860E+02 -0.20556936693E+03  0.22480851475E+03  0.80655309625E+02 0.  0.
         25    2    1    2    0    0  0.99066550064E+02 -0.57501831480E+02  0.67972083707E+03  0.70056315993E+03  0.12509069804E+03 0.  0.
         24    2    1    2    0    0 -0.66793441057E+02  0.30422851620E+02  0.12067305658E+04  0.12116992560E+04  0.81421833174E+02 0.  0.
        -13    1    5    5    0    0 -0.76314494260E+02  0.23462779076E+02  0.11771474085E+04  0.11798518658E+04  0.00000000000E+00 0.  1.
         14    1    5    5    0    0  0.95210532026E+01  0.69600725437E+01  0.29583157349E+02  0.31847390201E+02  0.00000000000E+00 0. -1.
         11    1    3    3    0    0 -0.33404701162E+02  0.84482878600E+01 -0.20307514176E+03  0.20597757361E+03  0.00000000000E+00 0. -1.
        -12    1    3    3    0    0  0.11315921553E+01  0.18630692000E+02 -0.24942251656E+01  0.18830941144E+02  0.00000000000E+00 0.  1.
          5    1    4    4  501    0  0.17535826039E+02 -0.67345169978E+02  0.16216581267E+03  0.17651657235E+03  0.41800000000E+01 0. -1.
         -5    1    4    4    0  501  0.81530724025E+02  0.98433384980E+01  0.51755502440E+03  0.52404658758E+03  0.41800000000E+01 0. -1.
</event>
<event>
11    1  0.8551154E-009  0.1756423E+03  0.7561462E-02  0.1073223E+00
         22   -1    0    0    0    0  0.00000000000E+00  0.00000000000E+00  0.86296836349E+03  0.86296836349E+03  0.00000000000E+00 0. -1.
         22   -1    0    0    0    0 -0.00000000000E+00 -0.00000000000E+00 -0.81628813979E+03  0.81628813979E+03  0.00000000000E+00 0.  1.
        -24    2    1    2    0    0  0.66781927968E+02  0.10081125506E+03 -0.74382172239E+03  0.75852974204E+03  0.86451603862E+02 0.  0.
         25    2    1    2    0    0 -0.14134468268E+03 -0.14843980724E+03  0.18472430654E+03  0.30295847062E+03  0.12509224514E+03 0.  0.
         24    2    1    2    0    0  0.74562754711E+02  0.47628552180E+02  0.60577763955E+03  0.61776829063E+03  0.82722602445E+02 0.  0.
        -13    1    5    5    0    0  0.26569981732E+02 -0.23070236997E+02  0.15253806963E+03  0.15654412302E+03  0.00000000000E+00 0.  1.
         14    1    5    5    0    0  0.47992772979E+02  0.70698789177E+02  0.45323956992E+03  0.46122416761E+03  0.00000000000E+00 0. -1.
         13    1    3    3    0    0  0.28359820566E+02 -0.10993946366E+02 -0.14866245234E+03  0.15174212011E+03  0.00000000000E+00 0. -1.
        -14    1    3    3    0    0  0.38422107403E+02  0.11180520143E+03 -0.59515927005E+03  0.60678762193E+03  0.00000000000E+00 0.  1.
          5    1    4    4  501    0 -0.61227237562E+02  0.72554381022E+01  0.27678690858E+02  0.67712615731E+02  0.41800000000E+01 0. -1.
         -5    1    4    4    0  501 -0.80117445117E+02 -0.15569524534E+03  0.15704561569E+03  0.23524585488E+03  0.41800000000E+01 0. -1.
</event>
<event>
11    1  0.8551154E-009  0.2005468E+03  0.7561462E-02  0.1054138E+00
         22   -1    0    0    0    0  0.00000000000E+00  0.00000000000E+00  0.26117410264E+04  0.26117410264E+04  0.00000000000E+00 0.  1.
         22   -1    0    0    0    0 -0.00000000000E+00 -0.00000000000E+00 -0.27421996815E+03  0.27421996815E+03  0.00000000000E+00 0.  1.
         24    2    1    2    0    0  0.42453889823E+01 -0.10722769301E+02 -0.24653776815E+03  0.25943152234E+03  0.79942745466E+02 0.  0.
         25    2    1    2    0    0 -0.26736047129E+02  0.16379008886E+03  0.60269400062E+03  0.63752365418E+03  0.12511731227E+03 0.  0.
        -24    2    1    2    0    0  0.22490658147E+02 -0.15306731956E+03  0.19813648258E+04  0.19890058180E+04  0.80013356864E+02 0.  0.
        -11    1    3    3    0    0 -0.26824870150E+02 -0.28436067848E+02 -0.17665347485E+03  0.18092715051E+03  0.00000000000E+00 0.  1.
         12    1    3    3    0    0  0.31070259132E+02  0.17713298546E+02 -0.69884293294E+02  0.78504371835E+02  0.00000000000E+00 0. -1.
         13    1    5    5    0    0 -0.24617426287E+02 -0.16563942016E+02  0.36412166602E+03  0.36532857747E+03  0.00000000000E+00 0. -1.
        -14    1    5    5    0    0  0.47108084435E+02 -0.13650337754E+03  0.16172431597E+04  0.16236772405E+04  0.00000000000E+00 0.  1.
          5    1    4    4  501    0  0.38741294025E+02  0.12121275359E+03  0.41771538756E+03  0.43668871854E+03  0.41800000000E+01 0. -1.
         -5    1    4    4    0  501 -0.65477341154E+02  0.42577335274E+02  0.18497861306E+03  0.20083493564E+03  0.41800000000E+01 0. -1.
</event>
<event>
11    1  0.8551154E-009  0.1948963E+03  0.7561462E-02  0.1058193E+00
         22   -1    0    0    0    0  0.00000000000E+00  0.00000000000E+00  0.18826534687E+04  0.18826534687E+04  0.00000000000E+00 0.  1.
         22   -1    0    0    0    0 -0.00000000000E+00 -0.00000000000E+00 -0.59786896616E+03  0.59786896616E+03  0.00000000000E+00 0.  1.
         24    2    1    2    0    0  0.34110502503E+01 -0.67648395461E+02 -0.52642275956E+03  0.53707097325E+03  0.82075379134E+02 0.  0.
         25    2    1    2    0    0 -0.15254040428E+03  0.57628764107E+02  0.10880286713E+03  0.23254056660E+03  0.12508957523E+03 0.  0.
        -24    2    1    2    0    0  0.14912935402E+03  0.10019631354E+02  0.17024043950E+04  0.17109108950E+04  0.81825481468E+02 0.  0.
        -11    1    3    3    0    0  0.31139996489E+01 -0.34206773274E+02 -0.47162554993E+03  0.47287467650E+03  0.00000000000E+00 0.  1.
         12    1    3    3    0    0  0.29705060145E+00 -0.33441622187E+02 -0.54797209628E+02  0.64196296751E+02  0.00000000000E+00 0. -1.
         13    1    5    5    0    0  0.24798321897E+02  0.32731017999E+02  0.56941743292E+03  0.57089621580E+03  0.00000000000E+00 0. -1.
        -14    1    5    5    0    0  0.12433103213E+03 -0.22711386645E+02  0.11329869621E+04  0.11400146792E+04  0.00000000000E+00 0.  1.
          5    1    4    4  501    0 -0.32719739928E+02 -0.36178388745E+02  0.71205883626E+01  0.49473552246E+02  0.41800000000E+01 0.  1.
         -5    1    4    4    0  501 -0.11982066435E+03  0.93807152852E+02  0.10168227877E+03  0.18306701436E+03  0.41800000000E+01 0.  1.
</event>
<event>
11    1  0.8551154E-009  0.1370571E+03  0.7561462E-02  0.1110890E+00
         22   -1    0    0    0    0  0.00000000000E+00  0.00000000000E+00  0.19643108577E+03  0.19643108577E+03  0.00000000000E+00 0.  1.
         22   -1    0    0    0    0 -0.00000000000E+00 -0.00000000000E+00 -0.13714143669E+04  0.13714143669E+04  0.00000000000E+00 0. -1.
        -24    2    1    2    0    0 -0.40748513817E+02  0.16295101835E+02 -0.12757329449E+04  0.12784693109E+04  0.71156591463E+02 0.  0.
         25    2    1    2    0    0 -0.22760816435E+02 -0.31248664607E+01 -0.21127731658E+02  0.12891076781E+03  0.12507511925E+03 0.  0.
         24    2    1    2    0    0  0.63509330252E+02 -0.13170235374E+02  0.12187739539E+03  0.16046537399E+03  0.81781089580E+02 0.  0.
        -11    1    5    5    0    0  0.78957820985E+02 -0.47362817674E-01  0.72923929554E+02  0.10748134368E+03  0.00000000000E+00 0.  1.
         12    1    5    5    0    0 -0.15448490733E+02 -0.13122872556E+02  0.48953465838E+02  0.52984030307E+02  0.00000000000E+00 0. -1.
         11    1    3    3    0    0 -0.47418714205E+02 -0.38863198604E+01 -0.11475655058E+04  0.11485513606E+04  0.00000000000E+00 0. -1.
        -12    1    3    3    0    0  0.66702003882E+01  0.20181421695E+02 -0.12816743906E+03  0.12991795022E+03  0.00000000000E+00 0.  1.
          5    1    4    4  501    0  0.10110950165E+01 -0.11863937900E+02 -0.71377229591E+02  0.72484181997E+02  0.41800000000E+01 0. -1.
         -5    1    4    4    0  501 -0.23771911452E+02  0.87390714393E+01  0.50249497934E+02  0.56426585811E+02  0.41800000000E+01 0. -1.
</event>
<event>
11    1  0.8551154E-009  0.1547429E+03  0.7561462E-02  0.1092129E+00
         22   -1    0    0    0    0  0.00000000000E+00  0.00000000000E+00  0.15186507220E+04  0.15186507220E+04  0.00000000000E+00 0. -1.
         22   -1    0    0    0    0 -0.00000000000E+00 -0.00000000000E+00 -0.10557671519E+04  0.10557671519E+04  0.00000000000E+00 0.  1.
         24    2    1    2    0    0  0.59628097993E+02 -0.68984449975E+02 -0.10435796526E+04  0.10506558611E+04  0.80652853500E+02 0.  0.
         25    2    1    2    0    0 -0.51344316074E+02  0.45990374748E+02  0.83392037361E+03  0.84606323295E+03  0.12509376989E+03 0.  0.
        -24    2    1    2    0    0 -0.82837819192E+01  0.22994075226E+02  0.67254284910E+03  0.67769877979E+03  0.79777213022E+02 0.  0.
        -11    1    3    3    0    0 -0.10900363316E+02 -0.26465674953E+02 -0.50558652963E+03  0.50639607899E+03  0.00000000000E+00 0.  1.
         12    1    3    3    0    0  0.70528461309E+02 -0.42518775021E+02 -0.53799312297E+03  0.54425978213E+03  0.00000000000E+00 0. -1.
         13    1    5    5    0    0 -0.11188370129E+02  0.44270222612E+02  0.60727353705E+03  0.60898783324E+03  0.00000000000E+00 0. -1.
        -14    1    5    5    0    0  0.29045882102E+01 -0.21276147385E+02  0.65269312048E+02  0.68710946548E+02  0.00000000000E+00 0.  1.
          5    1    4    4  501    0 -0.72077837120E+02  0.59094901181E+02  0.79075586821E+03  0.79624100463E+03  0.41800000000E+01 0. -1.
         -5    1    4    4    0  501  0.20733521046E+02 -0.13104526433E+02  0.43164505397E+02  0.49822228314E+02  0.41800000000E+01 0. -1.
</event>
<event>
11    1  0.8551154E-009  0.1469953E+03  0.7561462E-02  0.1099989E+00
         22   -1    0    0    0    0  0.00000000000E+00  0.00000000000E+00  0.53909183439E+03  0.53909183439E+03  0.00000000000E+00 0.  1.
         22   -1    0    0    0    0 -0.00000000000E+00 -0.00000000000E+00 -0.29790356195E+03  0.29790356195E+03  0.00000000000E+00 0. -1.
        -24    2    1    2    0    0  0.26126427218E+02 -0.35158997026E+02 -0.20810357688E+03  0.22713766283E+03  0.79785173397E+02 0.  0.
         25    2    1    2    0    0  0.41666229627E+02 -0.86621532031E+01 -0.13887026646E+02  0.13285838543E+03  0.12508954186E+03 0.  0.
         24    2    1    2    0    0 -0.67792656845E+02  0.43821150229E+02  0.46317887596E+03  0.47699934808E+03  0.80483348606E+02 0.  0.
        -13    1    5    5    0    0 -0.72635054094E+02  0.59947116710E+02  0.42438331068E+03  0.43470760548E+03  0.00000000000E+00 0.  1.
         14    1    5    5    0    0  0.48423972496E+01 -0.16125966480E+02  0.38795565285E+02  0.42291742596E+02  0.00000000000E+00 0. -1.
         13    1    3    3    0    0  0.20546049318E+02 -0.30063228867E+02 -0.21429596072E+03  0.21736765319E+03  0.00000000000E+00 0. -1.
        -14    1    3    3    0    0  0.55803778993E+01 -0.50957681589E+01  0.61923838428E+01  0.97700096358E+01  0.00000000000E+00 0.  1.
          5    1    4    4  501    0  0.72718062173E+02  0.31664677560E+02 -0.18604058452E+02  0.81572984266E+02  0.41800000000E+01 0. -1.
         -5    1    4    4    0  501 -0.31051832546E+02 -0.40326830763E+02  0.47170318060E+01  0.51285401168E+02  0.41800000000E+01 0. -1.
</event>
<event>
11    1  0.8551154E-009  0.1334956E+03  0.7561462E-02  0.1115047E+00
         22   -1    0    0    0    0  0.00000000000E+00  0.00000000000E+00  0.73800767588E+03  0.73800767588E+03  0.00000000000E+00 0. -1.
         22   -1    0    0    0    0 -0.00000000000E+00 -0.00000000000E+00 -0.20936264463E+03  0.20936264463E+03  0.00000000000E+00 0. -1.
        -24    2    1    2    0    0  0.49229100103E+02 -0.23678067760E+02 -0.11304063181E+03  0.15003808301E+03  0.82152825412E+02 0.  0.
         25    2    1    2    0    0 -0.28695862571E+02 -0.11345281667E+02 -0.19274864858E+02  0.13029770447E+03  0.12511516067E+03 0.  0.
         24    2    1    2    0    0 -0.20533237532E+02  0.35023349427E+02  0.66096052792E+03  0.66703453304E+03  0.80112420713E+02 0.  0.
        -13    1    5    5    0    0  0.88915149997E+01  0.33440990595E+02  0.11062170539E+03  0.11590737938E+03  0.00000000000E+00 0.  1.
         14    1    5    5    0    0 -0.29424752532E+02  0.15823588321E+01  0.55033882252E+03  0.55112715366E+03  0.00000000000E+00 0. -1.
         11    1    3    3    0    0  0.48649699116E+02 -0.48176151156E+02 -0.10272358400E+03  0.12344986624E+03  0.00000000000E+00 0. -1.
        -12    1    3    3    0    0  0.57940098728E+00  0.24498083396E+02 -0.10317047811E+02  0.26588216772E+02  0.00000000000E+00 0.  1.
          5    1    4    4  501    0 -0.19743748769E+02 -0.53890728767E+02  0.29631612821E+02  0.64726587589E+02  0.41800000000E+01 0.  1.
         -5    1    4    4    0  501 -0.89521138016E+01  0.42545447100E+02 -0.48906477679E+02  0.65571116884E+02  0.41800000000E+01 0.  1.
</event>
<event>
11    1  0.1015549E-008  0.1431855E+03  0.7561462E-02  0.1104053E+00
         22   -1    0    0    0    0  0.00000000000E+00  0.00000000000E+00  0.25611677447E+04  0.25611677447E+04  0.00000000000E+00 0. -1.
         22   -1    0    0    0    0 -0.00000000000E+00 -0.00000000000E+00 -0.26360801374E+03  0.26360801374E+03  0.00000000000E+00 0. -1.
        -24    2    1    2    0    0  0.70671349929E+02 -0.28549838218E+02 -0.19394675339E+03  0.22953928725E+03  0.96246601377E+02 0.  0.
         25    2    1    2    0    0 -0.46718507725E+02 -0.22854465990E+02  0.39307835582E+02  0.14105663591E+03  0.12508766133E+03 0.  0.
         24    2    1    2    0    0 -0.23952842204E+02  0.51404304208E+02  0.24521986488E+04  0.24541798353E+04  0.80649300628E+02 0.  0.
        -11    1    5    5    0    0 -0.22433056106E+02 -0.15507176128E+02  0.42329280021E+03  0.42417037760E+03  0.00000000000E+00 0.  1.
         12    1    5    5    0    0 -0.15197860981E+01  0.66911480336E+02  0.20289058486E+04  0.20300094577E+04  0.00000000000E+00 0. -1.
         13    1    3    3    0    0  0.54324098701E+02  0.11165022261E+02 -0.17316219955E+03  0.18182660084E+03  0.00000000000E+00 0. -1.
        -14    1    3    3    0    0  0.16347251229E+02 -0.39714860479E+02 -0.20784553842E+02  0.47712686405E+02  0.00000000000E+00 0.  1.
          5    1    4    4  501    0  0.49653088675E+01  0.44862645126E+02 -0.38063079486E+01  0.45489247081E+02  0.41800000000E+01 0. -1.
         -5    1    4    4    0  501 -0.51683816593E+02 -0.67717111116E+02  0.43114143531E+02  0.95567388830E+02  0.41800000000E+01 0. -1.
</event>
<event>
11    1  0.8551154E-009  0.1803159E+03  0.7561462E-02  0.1069388E+00
         22   -1    0    0    0    0  0.00000000000E+00  0.00000000000E+00  0.69076038052E+02  0.69076038052E+02  0.00000000000E+00 0.  1.
         22   -1    0    0    0    0 -0.00000000000E+00 -0.00000000000E+00 -0.11442212722E+04  0.11442212722E+04  0.00000000000E+00 0.  1.
        -24    2    1    2    0    0 -0.42839464597E+02  0.48039866219E+01 -0.53353905495E+03  0.54245636685E+03  0.87958449086E+02 0.  0.
         25    2    1    2    0    0  0.14747459291E+03 -0.67039628807E+02 -0.46016586632E+03  0.50363522093E+03  0.12511092620E+03 0.  0.
         24    2    1    2    0    0 -0.10463512832E+03  0.62235642185E+02 -0.81440312890E+02  0.16720572248E+03  0.80643932378E+02 0.  0.
        -13    1    5    5    0    0 -0.95245397424E+02  0.55443751790E+02 -0.29638302474E+02  0.11412328560E+03  0.00000000000E+00 0.  1.
         14    1    5    5    0    0 -0.93897308919E+01  0.67918903948E+01 -0.51802010416E+02  0.53082436875E+02  0.00000000000E+00 0. -1.
         11    1    3    3    0    0 -0.74931172990E+01  0.17123930607E+02 -0.19338743944E+02  0.26895405251E+02  0.00000000000E+00 0. -1.
        -12    1    3    3    0    0 -0.35346347298E+02 -0.12319943985E+02 -0.51420031100E+03  0.51556096160E+03  0.00000000000E+00 0.  1.
          5    1    4    4  501    0  0.11332317706E+03  0.10027599217E+02 -0.20010556099E+03  0.23022250790E+03  0.41800000000E+01 0. -1.
         -5    1    4    4    0  501  0.34151415851E+02 -0.77067228024E+02 -0.26006030533E+03  0.27341271303E+03  0.41800000000E+01 0. -1.
</event>
<event>
11    1  0.8551154E-009  0.1543653E+03  0.7561462E-02  0.1092500E+00
         22   -1    0    0    0    0  0.00000000000E+00  0.00000000000E+00  0.43146899179E+03  0.43146899179E+03  0.00000000000E+00 0. -1.
         22   -1    0    0    0    0 -0.00000000000E+00 -0.00000000000E+00 -0.13237159415E+04  0.13237159415E+04  0.00000000000E+00 0. -1.
         24    2    1    2    0    0  0.91067887238E+02  0.18657896958E+02 -0.11352332852E+04  0.11419871351E+04  0.82088535316E+02 0.  0.
         25    2    1    2    0    0 -0.71023132004E+02  0.33912148031E+01 -0.15151582711E+03  0.20895187118E+03  0.12509217796E+03 0.  0.
        -24    2    1    2    0    0 -0.20044755235E+02 -0.22049111761E+02  0.39450216261E+03  0.40424592703E+03  0.83035279710E+02 0.  0.
        -11    1    3    3    0    0  0.39074164450E+02 -0.20446718107E+02 -0.21608463378E+03  0.22053894796E+03  0.00000000000E+00 0.  1.
         12    1    3    3    0    0  0.51993722789E+02  0.39104615065E+02 -0.91914865145E+03  0.92144818715E+03  0.00000000000E+00 0. -1.
         11    1    5    5    0    0 -0.17541286352E+02 -0.17462707872E+02  0.39746784959E+03  0.39823778620E+03  0.00000000000E+00 0. -1.
        -12    1    5    5    0    0 -0.25034688824E+01 -0.45864038887E+01 -0.29656869813E+01  0.60081408394E+01  0.00000000000E+00 0.  1.
          5    1    4    4  501    0 -0.27676368467E+02  0.48579106294E+02 -0.13170659108E+03  0.14314331795E+03  0.41800000000E+01 0.  1.
         -5    1    4    4    0  501 -0.43346763536E+02 -0.45187891491E+02 -0.19809236034E+02  0.65808553234E+02  0.41800000000E+01 0.  1.
</event>
<event>
11    1  0.1207492E-008  0.2206369E+03  0.7561462E-02  0.1040819E+00
         22   -1    0    0    0    0  0.00000000000E+00  0.00000000000E+00  0.30842519182E+04  0.30842519182E+04  0.00000000000E+00 0. -1.
         22   -1    0    0    0    0 -0.00000000000E+00 -0.00000000000E+00 -0.12830315074E+04  0.12830315074E+04  0.00000000000E+00 0. -1.
        -24    2    1    2    0    0 -0.74528883808E+02  0.25104713150E+02 -0.10895916186E+04  0.10954949426E+04  0.81941886586E+02 0.  0.
         25    2    1    2    0    0  0.16585169490E+03 -0.18105931391E+03 -0.85817453306E+02  0.28862282991E+03  0.12509693362E+03 0.  0.
         24    2    1    2    0    0 -0.91322811093E+02  0.15595460076E+03  0.29766294827E+04  0.29831656531E+04  0.79325552986E+02 0.  0.
        -11    1    5    5    0    0 -0.41637875447E+02  0.23778492877E+02  0.43907268057E+03  0.44168308573E+03  0.00000000000E+00 0.  1.
         12    1    5    5    0    0 -0.49684935646E+02  0.13217610788E+03  0.25375568021E+04  0.25414825674E+04  0.00000000000E+00 0. -1.
         13    1    3    3    0    0 -0.83579253605E+02 -0.32517203586E+01 -0.82897528052E+03  0.83318430196E+03  0.00000000000E+00 0. -1.
        -14    1    3    3    0    0  0.90503697973E+01  0.28356433508E+02 -0.26061633804E+03  0.26231064059E+03  0.00000000000E+00 0.  1.
          5    1    4    4  501    0  0.17801653984E+03 -0.18103048406E+03 -0.61741642691E+02  0.26132628544E+03  0.41800000000E+01 0. -1.
         -5    1    4    4    0  501 -0.12164844939E+02 -0.28829841223E-01 -0.24075810614E+02  0.27296544475E+02  0.41800000000E+01 0. -1.
</event>
<event>
11    1  0.8551154E-009  0.1336909E+03  0.7561462E-02  0.1114815E+00
         22   -1    0    0    0    0  0.00000000000E+00  0.00000000000E+00  0.11372919578E+03  0.11372919578E+03  0.00000000000E+00 0.  1.
         22   -1    0    0    0    0 -0.00000000000E+00 -0.00000000000E+00 -0.70357412204E+03  0.70357412204E+03  0.00000000000E+00 0.  1.
         24    2    1    2    0    0  0.32930158912E+02 -0.19767909293E+02 -0.37742181327E+03  0.38755804421E+03  0.79239175262E+02 0.  0.
         25    2    1    2    0    0 -0.10640246348E+01  0.55176015939E+02 -0.28264213765E+03  0.31397184198E+03  0.12508483000E+03 0.  0.
        -24    2    1    2    0    0 -0.31866134277E+02 -0.35408106646E+02  0.70219024656E+02  0.11577343163E+03  0.78762881606E+02 0.  0.
        -11    1    3    3    0    0  0.29959882040E+02 -0.44613401161E+02 -0.16184145232E+03  0.17053036617E+03  0.00000000000E+00 0.  1.
         12    1    3    3    0    0  0.29702768725E+01  0.24845491868E+02 -0.21558036094E+03  0.21702767804E+03  0.00000000000E+00 0. -1.
         13    1    5    5    0    0 -0.13931700401E+02 -0.37544329314E+01 -0.16388342470E+02  0.21834967635E+02  0.00000000000E+00 0. -1.
        -14    1    5    5    0    0 -0.17934433877E+02 -0.31653673714E+02  0.86607367126E+02  0.93938464000E+02  0.00000000000E+00 0.  1.
          5    1    4    4  501    0 -0.47538034023E+02  0.24123128208E+02 -0.23313473249E+03  0.23918834814E+03  0.41800000000E+01 0.  1.
         -5    1    4    4    0  501  0.46474009388E+02  0.31052887730E+02 -0.49507405163E+02  0.74783493840E+02  0.41800000000E+01 0.  1.
</event>
<event>
11    1  0.8551154E-009  0.6507370E+03  0.7561462E-02  0.9108226E-01
         22   -1    0    0    0    0  0.00000000000E+00  0.00000000000E+00  0.48098449621E+03  0.48098449621E+03  0.00000000000E+00 0.  1.
         22   -1    0    0    0    0 -0.00000000000E+00 -0.00000000000E+00 -0.12243593957E+04  0.12243593957E+04  0.00000000000E+00 0.  1.
        -24    2    1    2    0    0  0.29742903414E+03 -0.61161863796E+03 -0.59915921955E+03  0.90998260216E+03  0.80840442906E+02 0.  0.
         25    2    1    2    0    0 -0.32665723757E+03  0.48496087862E+03 -0.20063261027E+03  0.63070792307E+03  0.12508811002E+03 0.  0.
         24    2    1    2    0    0  0.29228203430E+02  0.12665775934E+03  0.56416930335E+02  0.16465336669E+03  0.83853355659E+02 0.  0.
        -11    1    5    5    0    0  0.44496281878E+02  0.11408287297E+03  0.69630476221E+02  0.14086597966E+03  0.00000000000E+00 0.  1.
         12    1    5    5    0    0 -0.15268078448E+02  0.12574886375E+02 -0.13213545886E+02  0.23787387031E+02  0.00000000000E+00 0. -1.
         13    1    3    3    0    0  0.87488740811E+02 -0.15230168815E+03 -0.11213726812E+03  0.20838630205E+03  0.00000000000E+00 0. -1.
        -14    1    3    3    0    0  0.20994029333E+03 -0.45931694981E+03 -0.48702195143E+03  0.70159630011E+03  0.00000000000E+00 0.  1.
          5    1    4    4  501    0 -0.13027171226E+03  0.12782276898E+03 -0.16029459883E+02  0.18325882045E+03  0.41800000000E+01 0.  1.
         -5    1    4    4    0  501 -0.19638552530E+03  0.35713810963E+03 -0.18460315039E+03  0.44744910262E+03  0.41800000000E+01 0.  1.
</event>
<event>
11    1  0.8551154E-009  0.2055067E+03  0.7561462E-02  0.1050696E+00
         22   -1    0    0    0    0  0.00000000000E+00  0.00000000000E+00  0.12905872133E+04  0.12905872133E+04  0.00000000000E+00 0. -1.
         22   -1    0    0    0    0 -0.00000000000E+00 -0.00000000000E+00 -0.20283812811E+03  0.20283812811E+03  0.00000000000E+00 0.  1.
         24    2    1    2    0    0 -0.11641614672E+03  0.11500052096E+02 -0.13081577232E+03  0.19208478079E+03  0.78094982607E+02 0.  0.
         25    2    1    2    0    0  0.60047939659E+02 -0.16927573353E+03  0.34839176566E+03  0.41144250638E+03  0.12509230454E+03 0.  0.
        -24    2    1    2    0    0  0.56368207063E+02  0.15777568144E+03  0.87017309181E+03  0.88989805421E+03  0.81527889414E+02 0.  0.
        -11    1    3    3    0    0 -0.36468971789E+02  0.39081188111E+02 -0.33181001740E+02  0.62915054192E+02  0.00000000000E+00 0.  1.
         12    1    3    3    0    0 -0.79947174933E+02 -0.27581136015E+02 -0.97634770579E+02  0.12916972660E+03  0.00000000000E+00 0. -1.
         13    1    5    5    0    0  0.23580296782E+02  0.15058260645E+03  0.69139528908E+03  0.70799618468E+03  0.00000000000E+00 0. -1.
        -14    1    5    5    0    0  0.32787910281E+02  0.71930749899E+01  0.17877780273E+03  0.18190186953E+03  0.00000000000E+00 0.  1.
          5    1    4    4  501    0 -0.32664748640E+02 -0.77475511864E+02  0.99008439889E+02  0.12995993349E+03  0.41800000000E+01 0. -1.
         -5    1    4    4    0  501  0.92712688299E+02 -0.91800221667E+02  0.24938332577E+03  0.28148257289E+03  0.41800000000E+01 0. -1.
</event>
<event>
11    1  0.8551154E-009  0.2710824E+03  0.7561462E-02  0.1013231E+00
         22   -1    0    0    0    0  0.00000000000E+00  0.00000000000E+00  0.48527442612E+03  0.48527442612E+03  0.00000000000E+00 0. -1.
         22   -1    0    0    0    0 -0.00000000000E+00 -0.00000000000E+00 -0.40817315450E+03  0.40817315450E+03  0.00000000000E+00 0. -1.
         24    2    1    2    0    0  0.14284232837E+02 -0.42213926180E+02 -0.24991290877E+03  0.26636996407E+03  0.80687303296E+02 0.  0.
         25    2    1    2    0    0 -0.79838720747E+02 -0.20424919300E+03  0.85636116449E+02  0.26659498751E+03  0.12508952297E+03 0.  0.
        -24    2    1    2    0    0  0.65554487910E+02  0.24646311918E+03  0.24137806395E+03  0.36048262904E+03  0.81503963597E+02 0.  0.
        -11    1    3    3    0    0  0.36967492382E+02 -0.51021914250E+02 -0.13598552726E+03  0.14987292901E+03  0.00000000000E+00 0.  1.
         12    1    3    3    0    0 -0.22683259545E+02  0.88079880696E+01 -0.11392738152E+03  0.11649703506E+03  0.00000000000E+00 0. -1.
         11    1    5    5    0    0  0.81603317499E+02  0.19656908459E+03  0.21197705324E+03  0.30038771204E+03  0.00000000000E+00 0. -1.
        -12    1    5    5    0    0 -0.16048829589E+02  0.49894034586E+02  0.29401010715E+02  0.60094917002E+02  0.00000000000E+00 0.  1.
          5    1    4    4  501    0 -0.57500389085E+02 -0.10448187452E+03 -0.18318356975E+02  0.12073024249E+03  0.41800000000E+01 0.  1.
         -5    1    4    4    0  501 -0.22338331661E+02 -0.99767318477E+02  0.10395447342E+03  0.14586474503E+03  0.41800000000E+01 0.  1.
</event>
<event>
11    1  0.8551154E-009  0.1441480E+03  0.7561462E-02  0.1103013E+00
         22   -1    0    0    0    0  0.00000000000E+00  0.00000000000E+00  0.31025983326E+03  0.31025983326E+03  0.00000000000E+00 0. -1.
         22   -1    0    0    0    0 -0.00000000000E+00 -0.00000000000E+00 -0.22937720490E+03  0.22937720490E+03  0.00000000000E+00 0. -1.
         24    2    1    2    0    0  0.55215019914E+02 -0.52225920178E+02 -0.14781328627E+03  0.18186664846E+03  0.73827265031E+02 0.  0.
         25    2    1    2    0    0 -0.75448777445E+02 -0.24540908518E+02  0.72178870195E+02  0.16478405606E+03  0.12509684896E+03 0.  0.
        -24    2    1    2    0    0  0.20233757531E+02  0.76766828696E+02  0.15651704443E+03  0.19298633364E+03  0.80271967972E+02 0.  0.
        -11    1    3    3    0    0  0.28458039583E+02 -0.57294692484E+02 -0.13937637856E+03  0.15335682803E+03  0.00000000000E+00 0.  1.
         12    1    3    3    0    0  0.26756980331E+02  0.50687723062E+01 -0.84369077091E+01  0.28509820428E+02  0.00000000000E+00 0. -1.
         13    1    5    5    0    0  0.31627616849E+02  0.85668941704E+02  0.10347689945E+03  0.13801066060E+03  0.00000000000E+00 0. -1.
        -14    1    5    5    0    0 -0.11393859318E+02 -0.89021130079E+01  0.53040144981E+02  0.54975673036E+02  0.00000000000E+00 0.  1.
          5    1    4    4  501    0 -0.20489645360E+02 -0.67968481023E+02  0.61075627639E+02  0.93740304411E+02  0.41800000000E+01 0. -1.
         -5    1    4    4    0  501 -0.54959132085E+02  0.43427572505E+02  0.11103242556E+02  0.71043751650E+02  0.41800000000E+01 0. -1.
</event>
<event>
11    1  0.8589098E-009  0.1884254E+03  0.7561462E-02  0.1063024E+00
         22   -1    0    0    0    0  0.00000000000E+00  0.00000000000E+00  0.54794884370E+03  0.54794884370E+03  0.00000000000E+00 0. -1.
         22   -1    0    0    0    0 -0.00000000000E+00 -0.00000000000E+00 -0.66959826339E+03  0.66959826339E+03  0.00000000000E+00 0. -1.
         24    2    1    2    0    0 -0.25341770029E+01 -0.63604326263E+02 -0.45170581894E+03  0.46329092690E+03  0.80922207739E+02 0.  0.
         25    2    1    2    0    0  0.12442375667E+03 -0.11106062450E+02 -0.15825293589E+03  0.23726833704E+03  0.12509059196E+03 0.  0.
        -24    2    1    2    0    0 -0.12188957967E+03  0.74710388713E+02  0.48830933514E+03  0.51698784315E+03  0.91606284556E+02 0.  0.
        -13    1    3    3    0    0  0.15687175763E+02 -0.52742886242E+02 -0.13373231936E+03  0.14461062469E+03  0.00000000000E+00 0.  1.
         14    1    3    3    0    0 -0.18221352766E+02 -0.10861440021E+02 -0.31797349958E+03  0.31868030220E+03  0.00000000000E+00 0. -1.
         13    1    5    5    0    0 -0.95001526388E+02  0.57486766703E+02  0.46332030820E+03  0.47644068503E+03  0.00000000000E+00 0. -1.
        -14    1    5    5    0    0 -0.26888053283E+02  0.17223622010E+02  0.24989026942E+02  0.40547158125E+02  0.00000000000E+00 0.  1.
          5    1    4    4  501    0  0.13368236627E+03  0.25328016052E+02 -0.10483312991E+03  0.17181368099E+03  0.41800000000E+01 0.  1.
         -5    1    4    4    0  501 -0.92586095987E+01 -0.36434078502E+02 -0.53419805979E+02  0.65454656052E+02  0.41800000000E+01 0.  1.
</event>
<event>
11    1  0.8551154E-009  0.1342860E+03  0.7561462E-02  0.1114112E+00
         22   -1    0    0    0    0  0.00000000000E+00  0.00000000000E+00  0.23357829332E+04  0.23357829332E+04  0.00000000000E+00 0. -1.
         22   -1    0    0    0    0 -0.00000000000E+00 -0.00000000000E+00 -0.35566877452E+02  0.35566877452E+02  0.00000000000E+00 0. -1.
        -24    2    1    2    0    0 -0.24117470015E+02 -0.16156197551E+02  0.48776522504E+02  0.97924577521E+02  0.79795981452E+02 0.  0.
         25    2    1    2    0    0  0.16498469236E+02 -0.34266138314E+02  0.42835342401E+03  0.44786117057E+03  0.12508638823E+03 0.  0.
         24    2    1    2    0    0  0.76190007796E+01  0.50422335865E+02  0.18230861092E+04  0.18255640625E+04  0.80254119576E+02 0.  0.
        -11    1    5    5    0    0  0.12055746044E+02  0.60857011108E+02  0.79553917379E+03  0.79795456878E+03  0.00000000000E+00 0.  1.
         12    1    5    5    0    0 -0.44367452644E+01 -0.10434675243E+02  0.10275469354E+04  0.10276094938E+04  0.00000000000E+00 0. -1.
         11    1    3    3    0    0 -0.49378106481E+02 -0.18966252718E+02  0.49575124172E+02  0.72495579717E+02  0.00000000000E+00 0. -1.
        -12    1    3    3    0    0  0.25260636466E+02  0.28100551675E+01 -0.79860166757E+00  0.25428997804E+02  0.00000000000E+00 0.  1.
          5    1    4    4  501    0 -0.27061664023E+02 -0.30201226410E+02  0.40288765248E+02  0.57315833254E+02  0.41800000000E+01 0.  1.
         -5    1    4    4    0  501  0.43560133259E+02 -0.40649119040E+01  0.38806465876E+03  0.39054533732E+03  0.41800000000E+01 0.  1.
</event>
<event>
11    1  0.8551154E-009  0.3829740E+03  0.7561462E-02  0.9701374E-01
         22   -1    0    0    0    0  0.00000000000E+00  0.00000000000E+00  0.13327441314E+04  0.13327441314E+04  0.00000000000E+00 0. -1.
         22   -1    0    0    0    0 -0.00000000000E+00 -0.00000000000E+00 -0.38764212250E+03  0.38764212250E+03  0.00000000000E+00 0. -1.
         24    2    1    2    0    0  0.12498926024E+02 -0.36683043980E+03 -0.19195011198E+03  0.42088900095E+03  0.74712187212E+02 0.  0.
         25    2    1    2    0    0 -0.11389454447E+02  0.34306170769E+03  0.34332987102E+03  0.50134169874E+03  0.12508814336E+03 0.  0.
        -24    2    1    2    0    0 -0.11094715777E+01  0.23768732112E+02  0.79372224990E+03  0.79815555424E+03  0.80567333460E+02 0.  0.
        -11    1    3    3    0    0 -0.73747637276E+01 -0.17194541427E+03 -0.12915134600E+03  0.21517361085E+03  0.00000000000E+00 0.  1.
         12    1    3    3    0    0  0.19873689752E+02 -0.19488502552E+03 -0.62798765978E+02  0.20571539011E+03  0.00000000000E+00 0. -1.
         11    1    5    5    0    0 -0.71806232052E+01 -0.12888479101E+02  0.63387143687E+03  0.63404311583E+03  0.00000000000E+00 0. -1.
        -12    1    5    5    0    0  0.60711516275E+01  0.36657211213E+02  0.15985081303E+03  0.16411243841E+03  0.00000000000E+00 0.  1.
          5    1    4    4  501    0  0.50353740691E+02  0.10656972176E+03  0.14245463311E+03  0.18494161158E+03  0.41800000000E+01 0. -1.
         -5    1    4    4    0  501 -0.61743195137E+02  0.23649198593E+03  0.20087523791E+03  0.31640008716E+03  0.41800000000E+01 0. -1.
</event>
<event>
11    1  0.8551154E-009  0.3043813E+03  0.7561462E-02  0.9983538E-01
         22   -1    0    0    0    0  0.00000000000E+00  0.00000000000E+00  0.14632727412E+03  0.14632727412E+03  0.00000000000E+00 0. -1.
         22   -1    0    0    0    0 -0.00000000000E+00 -0.00000000000E+00 -0.20054426817E+04  0.20054426817E+04  0.00000000000E+00 0.  1.
         24    2    1    2    0    0  0.26112083451E+03  0.81110872737E+02 -0.14514967292E+04  0.14791880159E+04  0.79946029027E+02 0.  0.
         25    2    1    2    0    0 -0.27882831781E+03 -0.85733153082E+02 -0.47098249416E+03  0.56795025312E+03  0.12509027086E+03 0.  0.
        -24    2    1    2    0    0  0.17707483299E+02  0.46222803441E+01  0.63363815859E+02  0.10463168675E+03  0.81227435456E+02 0.  0.
        -11    1    3    3    0    0  0.23778699939E+03  0.90455411395E+02 -0.13834349547E+04  0.14066332544E+04  0.00000000000E+00 0.  1.
         12    1    3    3    0    0  0.23333835123E+02 -0.93445386581E+01 -0.68061774548E+02  0.72554761518E+02  0.00000000000E+00 0. -1.
         13    1    5    5    0    0  0.28763772949E+02  0.59062722611E+01  0.79658515049E+02  0.84898278582E+02  0.00000000000E+00 0. -1.
        -14    1    5    5    0    0 -0.11056289650E+02 -0.12839919170E+01 -0.16294699191E+02  0.19733408164E+02  0.00000000000E+00 0.  1.
          5    1    4    4  501    0 -0.78878798006E+02 -0.54166478250E+02 -0.25261124481E+03  0.27015881541E+03  0.41800000000E+01 0.  1.
         -5    1    4    4    0  501 -0.19994951980E+03 -0.31566674831E+02 -0.21837124935E+03  0.29779143771E+03  0.41800000000E+01 0.  1.
</event>
<event>
11    1  0.8551154E-009  0.1914176E+03  0.7561462E-02  0.1060764E+00
         22   -1    0    0    0    0  0.00000000000E+00  0.00000000000E+00  0.18282989373E+04  0.18282989373E+04  0.00000000000E+00 0.  1.
         22   -1    0    0    0    0 -0.00000000000E+00 -0.00000000000E+00 -0.38899493054E+03  0.38899493054E+03  0.00000000000E+00 0.  1.
         24    2    1    2    0    0 -0.77208851671E+02  0.11984509804E+03 -0.30772021710E+03  0.34991012317E+03  0.86147013780E+02 0.  0.
         25    2    1    2    0    0  0.93122478158E+02 -0.13614609035E+03  0.12214244580E+03  0.24036187948E+03  0.12508997636E+03 0.  0.
        -24    2    1    2    0    0 -0.15913626488E+02  0.16300992308E+02  0.16248817780E+04  0.16270218652E+04  0.80252048616E+02 0.  0.
        -13    1    3    3    0    0 -0.90781571035E+02  0.12189355531E+03 -0.27101833988E+03  0.31072539808E+03  0.00000000000E+00 0.  1.
         14    1    3    3    0    0  0.13572719364E+02 -0.20484572708E+01 -0.36701877224E+02  0.39184725083E+02  0.00000000000E+00 0. -1.
         13    1    5    5    0    0  0.51461089372E+01  0.13401125512E+01  0.63440782417E+01  0.82780231686E+01  0.00000000000E+00 0. -1.
        -14    1    5    5    0    0 -0.21059735425E+02  0.14960879757E+02  0.16185376998E+04  0.16187438420E+04  0.00000000000E+00 0.  1.
          5    1    4    4  501    0 -0.41985689360E+01 -0.95473200144E+02  0.30022629232E+02  0.10025762112E+03  0.41800000000E+01 0. -1.
         -5    1    4    4    0  501  0.97321047094E+02 -0.40672890201E+02  0.92119816572E+02  0.14010425836E+03  0.41800000000E+01 0. -1.
</event>
<event>
11    1  0.8551154E-009  0.1688281E+03  0.7561462E-02  0.1079056E+00
         22   -1    0    0    0    0  0.00000000000E+00  0.00000000000E+00  0.41784736552E+03  0.41784736552E+03  0.00000000000E+00 0.  1.
         22   -1    0    0    0    0 -0.00000000000E+00 -0.00000000000E+00 -0.84223214987E+03  0.84223214987E+03  0.00000000000E+00 0.  1.
        -24    2    1    2    0    0 -0.41099176720E+02  0.99351510941E+02 -0.72671666127E+03  0.73899045889E+03  0.80186828838E+02 0.  0.
         25    2    1    2    0    0  0.14756663633E+03 -0.69814288952E+02  0.19035120581E+02  0.20654247201E+03  0.12509000692E+03 0.  0.
         24    2    1    2    0    0 -0.10646745961E+03 -0.29537221989E+02  0.28329675634E+03  0.31454658448E+03  0.80465733175E+02 0.  0.
        -13    1    5    5    0    0 -0.11667022165E+03 -0.28121199191E+02  0.27835046134E+03  0.30311997920E+03  0.00000000000E+00 0.  1.
         14    1    5    5    0    0  0.10202762043E+02 -0.14160227978E+01  0.49462950006E+01  0.11426605274E+02  0.00000000000E+00 0. -1.
         11    1    3    3    0    0 -0.41502705831E+02  0.26560413033E+02 -0.15462077988E+03  0.16228221006E+03  0.00000000000E+00 0. -1.
        -12    1    3    3    0    0  0.40352911137E+00  0.72791097908E+02 -0.57209588139E+03  0.57670824884E+03  0.00000000000E+00 0.  1.
          5    1    4    4  501    0  0.14075351394E+03 -0.10081956184E+03  0.11027692965E+02  0.17353736816E+03  0.41800000000E+01 0. -1.
         -5    1    4    4    0  501  0.68131223922E+01  0.31005272886E+02  0.80074276155E+01  0.33005103855E+02  0.41800000000E+01 0. -1.
</event>
<event>
11    1  0.8551154E-009  0.1657755E+03  0.7561462E-02  0.1081768E+00
         22   -1    0    0    0    0  0.00000000000E+00  0.00000000000E+00  0.12705603183E+03  0.12705603183E+03  0.00000000000E+00 0.  1.
         22   -1    0    0    0    0 -0.00000000000E+00 -0.00000000000E+00 -0.20900355376E+04  0.20900355376E+04  0.00000000000E+00 0.  1.
         24    2    1    2    0    0  0.10109213303E+03  0.44761984573E+02 -0.18826223894E+04  0.18875629187E+04  0.80021598875E+02 0.  0.
         25    2    1    2    0    0 -0.71440977403E+02 -0.51139781677E+02 -0.15364214403E+03  0.21673101633E+03  0.12508930607E+03 0.  0.
        -24    2    1    2    0    0 -0.29651155629E+02  0.63777971040E+01  0.73285027596E+02  0.11279763447E+03  0.80204387332E+02 0.  0.
        -13    1    3    3    0    0  0.10440314373E+03  0.17307936134E+02 -0.16299205580E+04  0.16333525665E+04  0.00000000000E+00 0.  1.
         14    1    3    3    0    0 -0.33110106959E+01  0.27454048439E+02 -0.25270183140E+03  0.25421035219E+03  0.00000000000E+00 0. -1.
         13    1    5    5    0    0 -0.87448403338E+01 -0.82782547626E+01 -0.15948170532E+02  0.19983640251E+02  0.00000000000E+00 0. -1.
        -14    1    5    5    0    0 -0.20906315295E+02  0.14656051867E+02  0.89233198128E+02  0.92813994223E+02  0.00000000000E+00 0.  1.
          5    1    4    4  501    0 -0.65014101936E+02 -0.10438479082E+02 -0.93817971945E+01  0.66642972733E+02  0.41800000000E+01 0.  1.
         -5    1    4    4    0  501 -0.64268754665E+01 -0.40701302595E+02 -0.14426034683E+03  0.15008804359E+03  0.41800000000E+01 0.  1.
</event>
<event>
11    1  0.8551154E-009  0.2224981E+03  0.7561462E-02  0.1039664E+00
         22   -1    0    0    0    0  0.00000000000E+00  0.00000000000E+00  0.20490305375E+04  0.20490305375E+04  0.00000000000E+00 0. -1.
         22   -1    0    0    0    0 -0.00000000000E+00 -0.00000000000E+00 -0.43380160942E+03  0.43380160942E+03  0.00000000000E+00 0.  1.
        -24    2    1    2    0    0 -0.10316608370E+03 -0.31950576715E+02 -0.37651947808E+03  0.39978254673E+03  0.79969288581E+02 0.  0.
         25    2    1    2    0    0  0.28196032524E+01 -0.13424480903E+03  0.17184806028E+03  0.25141528054E+03  0.12509303959E+03 0.  0.
         24    2    1    2    0    0  0.10034648044E+03  0.16619538574E+03  0.18199003459E+04  0.18316343197E+04  0.71810094236E+02 0.  0.
        -13    1    5    5    0    0  0.56346015540E+02  0.30261808871E+02  0.59651975776E+03  0.59993872349E+03  0.00000000000E+00 0.  1.
         14    1    5    5    0    0  0.44000464903E+02  0.13593357687E+03  0.12233805881E+04  0.12316955962E+04  0.00000000000E+00 0. -1.
         13    1    3    3    0    0  0.93633324999E+01  0.56504834345E+01 -0.74433838221E+02  0.75232946446E+02  0.00000000000E+00 0. -1.
        -14    1    3    3    0    0 -0.11252941620E+03 -0.37601060150E+02 -0.30208563986E+03  0.32454960028E+03  0.00000000000E+00 0.  1.
          5    1    4    4  501    0 -0.25142063825E+02 -0.10656789596E+02  0.10403004387E+03  0.10763555623E+03  0.41800000000E+01 0.  1.
         -5    1    4    4    0  501  0.27961667077E+02 -0.12358801943E+03  0.67818016419E+02  0.14377972431E+03  0.41800000000E+01 0.  1.
</event>
<event>
11    1  0.8551154E-009  0.1472309E+03  0.7561462E-02  0.1099742E+00
         22   -1    0    0    0    0  0.00000000000E+00  0.00000000000E+00  0.39495542700E+03  0.39495542700E+03  0.00000000000E+00 0. -1.
         22   -1    0    0    0    0 -0.00000000000E+00 -0.00000000000E+00 -0.16944831958E+03  0.16944831958E+03  0.00000000000E+00 0. -1.
        -24    2    1    2    0    0  0.20193521945E+00 -0.77947203725E+01 -0.60654677283E+02  0.10064535981E+03  0.79935599904E+02 0.  0.
         25    2    1    2    0    0  0.43860733981E+02  0.70851989976E+02 -0.66866659409E+01  0.15045156607E+03  0.12508874355E+03 0.  0.
         24    2    1    2    0    0 -0.44062669200E+02 -0.63057269603E+02  0.29284845065E+03  0.31330682070E+03  0.80518387862E+02 0.  0.
        -11    1    5    5    0    0 -0.96384403972E+01 -0.12851422400E+02  0.20374635456E+01  0.16192895006E+02  0.00000000000E+00 0.  1.
         12    1    5    5    0    0 -0.34424228803E+02 -0.50205847203E+02  0.29081098710E+03  0.29711392570E+03  0.00000000000E+00 0. -1.
         11    1    3    3    0    0  0.13155360196E+02 -0.39074470146E+02 -0.50716932779E+02  0.65361188710E+02  0.00000000000E+00 0. -1.
        -12    1    3    3    0    0 -0.12953424977E+02  0.31279749774E+02 -0.99377445039E+01  0.35284171102E+02  0.00000000000E+00 0.  1.
          5    1    4    4  501    0  0.41109889988E+02  0.23082381184E+02 -0.61478407218E+02  0.77587926445E+02  0.41800000000E+01 0. -1.
         -5    1    4    4    0  501  0.27508439930E+01  0.47769608792E+02  0.54791741277E+02  0.72863639622E+02  0.41800000000E+01 0. -1.
</event>
<event>
11    1  0.8551154E-009  0.1431171E+03  0.7561462E-02  0.1104127E+00
         22   -1    0    0    0    0  0.00000000000E+00  0.00000000000E+00  0.14395097650E+04  0.14395097650E+04  0.00000000000E+00 0.  1.
         22   -1    0    0    0    0 -0.00000000000E+00 -0.00000000000E+00 -0.49830684816E+03  0.49830684816E+03  0.00000000000E+00 0.  1.
        -24    2    1    2    0    0 -0.29497221905E+02  0.32973395014E+02 -0.18953786538E+03  0.21079301444E+03  0.80942953033E+02 0.  0.
         25    2    1    2    0    0  0.80918171475E+02  0.13838466053E+02 -0.27726954697E+03  0.31506344640E+03  0.12508924801E+03 0.  0.
         24    2    1    2    0    0 -0.51420949570E+02 -0.46811861067E+02  0.14080103291E+04  0.14119601523E+04  0.79390932713E+02 0.  0.
        -11    1    5    5    0    0 -0.35537576940E+02  0.33004942301E+01  0.99195513975E+03  0.99259700378E+03  0.00000000000E+00 0.  1.
         12    1    5    5    0    0 -0.15883372630E+02 -0.50112355297E+02  0.41605518940E+03  0.41936314848E+03  0.00000000000E+00 0. -1.
         13    1    3    3    0    0 -0.20022805578E+02  0.18019016831E+02 -0.75898162012E+01  0.27985764608E+02  0.00000000000E+00 0. -1.
        -14    1    3    3    0    0 -0.94744163273E+01  0.14954378183E+02 -0.18194804918E+03  0.18280724984E+03  0.00000000000E+00 0.  1.
          5    1    4    4  501    0 -0.29272148796E+02 -0.18222838263E+02 -0.60928038466E+02  0.70132936633E+02  0.41800000000E+01 0. -1.
         -5    1    4    4    0  501  0.11019032027E+03  0.32061304316E+02 -0.21634150850E+03  0.24493050977E+03  0.41800000000E+01 0. -1.
</event>
<event>
11    1  0.8551154E-009  0.1436976E+03  0.7561462E-02  0.1103498E+00
         22   -1    0    0    0    0  0.00000000000E+00  0.00000000000E+00  0.25539608314E+03  0.25539608314E+03  0.00000000000E+00 0. -1.
         22   -1    0    0    0    0 -0.00000000000E+00 -0.00000000000E+00 -0.15058109289E+04  0.15058109289E+04  0.00000000000E+00 0.  1.
         24    2    1    2    0    0  0.34371276957E+02 -0.43761371011E+02 -0.12927478296E+04  0.12955158451E+04  0.63780182641E+02 0.  0.
         25    2    1    2    0    0  0.30756074832E+02  0.73194489085E+02 -0.17087726050E+03  0.22616307503E+03  0.12508928402E+03 0.  0.
        -24    2    1    2    0    0 -0.65127351789E+02 -0.29433118074E+02  0.21321024437E+03  0.23952809188E+03  0.82505867101E+02 0.  0.
        -13    1    3    3    0    0  0.46911661589E+01 -0.48458308871E+02 -0.10106801419E+04  0.10118520465E+04  0.00000000000E+00 0.  1.
         14    1    3    3    0    0  0.29680110798E+02  0.46969378602E+01 -0.28206768776E+03  0.28366379868E+03  0.00000000000E+00 0. -1.
         13    1    5    5    0    0 -0.79009291732E+02 -0.30405195840E+02  0.20817288720E+03  0.22472849192E+03  0.00000000000E+00 0. -1.
        -14    1    5    5    0    0  0.13881939943E+02  0.97207776595E+00  0.50373571618E+01  0.14799599959E+02  0.00000000000E+00 0.  1.
          5    1    4    4  501    0  0.50539510811E+02  0.76840875914E+00 -0.14666647456E+02  0.52795980460E+02  0.41800000000E+01 0. -1.
         -5    1    4    4    0  501 -0.19783435980E+02  0.72426080326E+02 -0.15621061305E+03  0.17336709457E+03  0.41800000000E+01 0. -1.
</event>
<event>
11    1  0.8551154E-009  0.2767569E+03  0.7561462E-02  0.1010538E+00
         22   -1    0    0    0    0  0.00000000000E+00  0.00000000000E+00  0.22714364013E+04  0.22714364013E+04  0.00000000000E+00 0.  1.
         22   -1    0    0    0    0 -0.00000000000E+00 -0.00000000000E+00 -0.37429328438E+03  0.37429328438E+03  0.00000000000E+00 0.  1.
        -24    2    1    2    0    0  0.19346492074E+03  0.15613700721E+03 -0.29299584968E+03  0.39273525343E+03  0.81160155157E+02 0.  0.
         25    2    1    2    0    0 -0.14764154726E+03 -0.17788005431E+03  0.54233455561E+03  0.60267169975E+03  0.12508823797E+03 0.  0.
         24    2    1    2    0    0 -0.45823373477E+02  0.21743047099E+02  0.16478044110E+04  0.16503227325E+04  0.75717916299E+02 0.  0.
        -11    1    5    5    0    0 -0.23452730671E+02 -0.11876315463E+02  0.12865118711E+04  0.12867804287E+04  0.00000000000E+00 0.  1.
         12    1    5    5    0    0 -0.22370642806E+02  0.33619362562E+02  0.36129253995E+03  0.36354230376E+03  0.00000000000E+00 0. -1.
         13    1    3    3    0    0  0.84559262062E+02  0.80201035865E+02 -0.78640174535E+02  0.14059428155E+03  0.00000000000E+00 0. -1.
        -14    1    3    3    0    0  0.10890565868E+03  0.75935971343E+02 -0.21435567514E+03  0.25214097188E+03  0.00000000000E+00 0.  1.
          5    1    4    4  501    0 -0.89273250361E+02 -0.16177027761E+02  0.19327571059E+03  0.21355182547E+03  0.41800000000E+01 0.  1.
         -5    1    4    4    0  501 -0.58368296900E+02 -0.16170302655E+03  0.34905884502E+03  0.38911987428E+03  0.41800000000E+01 0.  1.
</event>
<event>
11    1  0.8551154E-009  0.1305540E+03  0.7561462E-02  0.1118590E+00
         22   -1    0    0    0    0  0.00000000000E+00  0.00000000000E+00  0.13635520472E+03  0.13635520472E+03  0.00000000000E+00 0. -1.
         22   -1    0    0    0    0 -0.00000000000E+00 -0.00000000000E+00 -0.19865831630E+04  0.19865831630E+04  0.00000000000E+00 0. -1.
         24    2    1    2    0    0  0.19141725201E+02  0.13924544984E+02 -0.17510773549E+04  0.17526997978E+04  0.71584773782E+02 0.  0.
         25    2    1    2    0    0 -0.67333244506E+01 -0.48712407304E+02 -0.20011024079E+03  0.24106184001E+03  0.12509382861E+03 0.  0.
        -24    2    1    2    0    0 -0.12408400750E+02  0.34787862320E+02  0.10095963739E+03  0.12917672991E+03  0.71621333374E+02 0.  0.
        -13    1    3    3    0    0 -0.20158070778E+02  0.82896352744E+01 -0.21344262605E+03  0.21455260541E+03  0.00000000000E+00 0.  1.
         14    1    3    3    0    0  0.39299795979E+02  0.56349097094E+01 -0.15376347288E+04  0.15381471924E+04  0.00000000000E+00 0. -1.
         13    1    5    5    0    0 -0.38867727465E+02  0.30141253833E+02  0.84200145940E+02  0.97513383683E+02  0.00000000000E+00 0. -1.
        -14    1    5    5    0    0  0.26459326715E+02  0.46466084866E+01  0.16759491451E+02  0.31663346228E+02  0.00000000000E+00 0.  1.
          5    1    4    4  501    0 -0.52484759918E+02  0.15909205680E+02 -0.76939705386E+02  0.94577711507E+02  0.41800000000E+01 0.  1.
         -5    1    4    4    0  501  0.45751435467E+02 -0.64621612984E+02 -0.12317053541E+03  0.14648412851E+03  0.41800000000E+01 0.  1.
</event>
<event>
11    1  0.8551154E-009  0.1391940E+03  0.7561462E-02  0.1108462E+00
         22   -1    0    0    0    0  0.00000000000E+00  0.00000000000E+00  0.44599589795E+03  0.44599589795E+03  0.00000000000E+00 0. -1.
         22   -1    0    0    0    0 -0.00000000000E+00 -0.00000000000E+00 -0.27652052695E+03  0.27652052695E+03  0.00000000000E+00 0. -1.
        -24    2    1    2    0    0 -0.59427126325E+02  0.15152629026E+02 -0.23764751300E+03  0.25815722597E+03  0.80047656893E+02 0.  0.
         25    2    1    2    0    0  0.55677149712E+02  0.60827920559E+01  0.21235737728E+03  0.25276778606E+03  0.12513573681E+03 0.  0.
         24    2    1    2    0    0  0.37499766126E+01 -0.21235421082E+02  0.19476550672E+03  0.21159141287E+03  0.79826799752E+02 0.  0.
        -13    1    5    5    0    0 -0.53735401116E+01  0.28512876179E+02  0.45254839245E+02  0.53757413595E+02  0.00000000000E+00 0.  1.
         14    1    5    5    0    0  0.91235167241E+01 -0.49748297261E+02  0.14951066748E+03  0.15783399927E+03  0.00000000000E+00 0. -1.
         13    1    3    3    0    0 -0.35335549057E+02  0.25251734934E+02 -0.22496430963E+03  0.22911829205E+03  0.00000000000E+00 0. -1.
        -14    1    3    3    0    0 -0.24091577268E+02 -0.10099105908E+02 -0.12683203372E+02  0.29038933920E+02  0.00000000000E+00 0.  1.
          5    1    4    4  501    0 -0.22832288369E+01  0.43768524089E+02  0.20067595294E+02  0.48384683690E+02  0.41800000000E+01 0.  1.
         -5    1    4    4    0  501  0.57960378549E+02 -0.37685732033E+02  0.19228978198E+03  0.20438310237E+03  0.41800000000E+01 0.  1.
</event>
<event>
11    1  0.8551154E-009  0.1276402E+03  0.7561462E-02  0.1122203E+00
         22   -1    0    0    0    0  0.00000000000E+00  0.00000000000E+00  0.97006916711E+03  0.97006916711E+03  0.00000000000E+00 0.  1.
         22   -1    0    0    0    0 -0.00000000000E+00 -0.00000000000E+00 -0.94574886405E+02  0.94574886405E+02  0.00000000000E+00 0. -1.
         24    2    1    2    0    0  0.22010617360E+02  0.24580823600E+02 -0.47687577094E+02  0.10095451749E+03  0.82637917612E+02 0.  0.
         25    2    1    2    0    0 -0.20342467792E+02  0.51742502205E+01  0.22649529482E+03  0.25959415827E+03  0.12509364322E+03 0.  0.
        -24    2    1    2    0    0 -0.16681495681E+01 -0.29755073820E+02  0.69668656298E+03  0.70409537775E+03  0.97416563226E+02 0.  0.
        -11    1    3    3    0    0  0.35378983309E+02  0.90004337548E+01  0.11526681718E+02  0.38282432775E+02  0.00000000000E+00 0.  1.
         12    1    3    3    0    0 -0.13368365949E+02  0.15580389845E+02 -0.59214258812E+02  0.62672084715E+02  0.00000000000E+00 0. -1.
         11    1    5    5    0    0 -0.30801570094E+02  0.17498124390E+02  0.13146082864E+03  0.13615017644E+03  0.00000000000E+00 0. -1.
        -12    1    5    5    0    0  0.29133420526E+02 -0.47253198210E+02  0.56522573434E+03  0.56794520132E+03  0.00000000000E+00 0.  1.
          5    1    4    4  501    0  0.11396257756E+02 -0.29420014899E+02  0.20557907860E+03  0.20802798351E+03  0.41800000000E+01 0.  1.
         -5    1    4    4    0  501 -0.31738725547E+02  0.34594265119E+02  0.20916216222E+02  0.51566174762E+02  0.41800000000E+01 0.  1.
</event>
<event>
11    1  0.8551154E-009  0.1339173E+03  0.7561462E-02  0.1114547E+00
         22   -1    0    0    0    0  0.00000000000E+00  0.00000000000E+00  0.75770296672E+02  0.75770296672E+02  0.00000000000E+00 0.  1.
         22   -1    0    0    0    0 -0.00000000000E+00 -0.00000000000E+00 -0.13222508440E+04  0.13222508440E+04  0.00000000000E+00 0.  1.
        -24    2    1    2    0    0  0.13171733714E+01  0.10612970253E+02 -0.92325704290E+03  0.92667002167E+03  0.78736216043E+02 0.  0.
         25    2    1    2    0    0 -0.23520372751E+02 -0.51950467143E+02 -0.34853437464E+03  0.37466697120E+03  0.12508824896E+03 0.  0.
         24    2    1    2    0    0  0.22203199379E+02  0.41337496890E+02  0.25310870262E+02  0.96684147754E+02  0.80656143980E+02 0.  0.
        -11    1    5    5    0    0  0.87439823867E+01  0.47382810242E+02  0.49035077118E+02  0.68746103325E+02  0.00000000000E+00 0.  1.
         12    1    5    5    0    0  0.13459216993E+02 -0.60453133516E+01 -0.23724206856E+02  0.27938044429E+02  0.00000000000E+00 0. -1.
         13    1    3    3    0    0  0.23616953863E+02 -0.19220453187E+02 -0.18627355961E+03  0.18874592801E+03  0.00000000000E+00 0. -1.
        -14    1    3    3    0    0 -0.22299780492E+02  0.29833423440E+02 -0.73698348329E+03  0.73792409366E+03  0.00000000000E+00 0.  1.
          5    1    4    4  501    0 -0.56497588761E+02 -0.54079259694E+02 -0.32390949730E+03  0.33324372268E+03  0.41800000000E+01 0. -1.
         -5    1    4    4    0  501  0.32977216010E+02  0.21287925511E+01 -0.24624877340E+02  0.41423248515E+02  0.41800000000E+01 0. -1.
</event>
<event>
11    1  0.8551154E-009  0.1593587E+03  0.7561462E-02  0.1087682E+00
         22   -1    0    0    0    0  0.00000000000E+00  0.00000000000E+00  0.64282148371E+03  0.64282148371E+03  0.00000000000E+00 0. -1.
         22   -1    0    0    0    0 -0.00000000000E+00 -0.00000000000E+00 -0.53494672214E+03  0.53494672214E+03  0.00000000000E+00 0.  1.
        -24    2    1    2    0    0 -0.24980699733E+02  0.95560792949E+02 -0.47417455958E+03  0.49088698087E+03  0.79828657311E+02 0.  0.
         25    2    1    2    0    0  0.10022018330E+03 -0.73443637238E+02  0.12423399506E+03  0.21568461032E+03  0.12509081745E+03 0.  0.
         24    2    1    2    0    0 -0.75239483563E+02 -0.22117155711E+02  0.45781532609E+03  0.47119661465E+03  0.79254201071E+02 0.  0.
        -13    1    5    5    0    0 -0.38381904761E+02 -0.36927536071E+02  0.12304456099E+03  0.13407750566E+03  0.00000000000E+00 0.  1.
         14    1    5    5    0    0 -0.36857578802E+02  0.14810380360E+02  0.33477076510E+03  0.33711910899E+03  0.00000000000E+00 0. -1.
         13    1    3    3    0    0  0.12939228925E+00  0.60774016235E+02 -0.12398216253E+03  0.13807633547E+03  0.00000000000E+00 0. -1.
        -14    1    3    3    0    0 -0.25110092022E+02  0.34786776714E+02 -0.35019239706E+03  0.35281064541E+03  0.00000000000E+00 0.  1.
          5    1    4    4  501    0  0.89388865088E+02  0.88756974546E+01  0.43864122836E+02  0.10005339014E+03  0.41800000000E+01 0. -1.
         -5    1    4    4    0  501  0.10831318208E+02 -0.82319334693E+02  0.80369872225E+02  0.11563122018E+03  0.41800000000E+01 0. -1.
</event>
<event>
11    1  0.8551154E-009  0.1340631E+03  0.7561462E-02  0.1114375E+00
         22   -1    0    0    0    0  0.00000000000E+00  0.00000000000E+00  0.74915453070E+02  0.74915453070E+02  0.00000000000E+00 0. -1.
         22   -1    0    0    0    0 -0.00000000000E+00 -0.00000000000E+00 -0.57238850181E+03  0.57238850181E+03  0.00000000000E+00 0. -1.
         24    2    1    2    0    0 -0.80585557807E+01  0.13062224824E+02 -0.37398785605E+03  0.38285582978E+03  0.80474268491E+02 0.  0.
         25    2    1    2    0    0 -0.15403450096E+02  0.34305232571E+02 -0.10339985557E+03  0.16659473319E+03  0.12509260465E+03 0.  0.
        -24    2    1    2    0    0  0.23462005877E+02 -0.47367457395E+02 -0.20085337125E+02  0.97853391912E+02  0.79860652398E+02 0.  0.
        -11    1    3    3    0    0  0.35424892967E+01  0.34075294444E+02 -0.70121412942E+02  0.78042856655E+02  0.00000000000E+00 0.  1.
         12    1    3    3    0    0 -0.11601045077E+02 -0.21013069619E+02 -0.30386644311E+03  0.30481297313E+03  0.00000000000E+00 0. -1.
         13    1    5    5    0    0  0.35650784755E+02 -0.19438290535E+02  0.21775226315E+02  0.46075873010E+02  0.00000000000E+00 0. -1.
        -14    1    5    5    0    0 -0.12188778878E+02 -0.27929166860E+02 -0.41860563441E+02  0.51777518902E+02  0.00000000000E+00 0.  1.
          5    1    4    4  501    0  0.41373347798E+01 -0.25364543172E+02  0.16752676900E+02  0.30961301212E+02  0.41800000000E+01 0. -1.
         -5    1    4    4    0  501 -0.19540784876E+02  0.59669775743E+02 -0.12015253247E+03  0.13563343198E+03  0.41800000000E+01 0. -1.
</event>
<event>
11    1  0.8551154E-009  0.1976128E+03  0.7561462E-02  0.1056225E+00
         22   -1    0    0    0    0  0.00000000000E+00  0.00000000000E+00  0.73133703971E+03  0.73133703971E+03  0.00000000000E+00 0. -1.
         22   -1    0    0    0    0 -0.00000000000E+00 -0.00000000000E+00 -0.26988305968E+03  0.26988305968E+03  0.00000000000E+00 0. -1.
        -24    2    1    2    0    0  0.70709014266E+02  0.32852399748E+02 -0.16943644750E+03  0.20153367743E+03  0.76341787573E+02 0.  0.
         25    2    1    2    0    0 -0.12335950876E+03 -0.16677547073E+03  0.13494847857E+03  0.27729225005E+03  0.12509306148E+03 0.  0.
         24    2    1    2    0    0  0.52650494496E+02  0.13392307099E+03  0.49594194896E+03  0.52239417191E+03  0.78929022500E+02 0.  0.
        -13    1    5    5    0    0 -0.14367204260E+02  0.40999838416E+02  0.80870627615E+02  0.91801207613E+02  0.00000000000E+00 0.  1.
         14    1    5    5    0    0  0.67017698755E+02  0.92923232570E+02  0.41507132134E+03  0.43059296429E+03  0.00000000000E+00 0. -1.
         13    1    3    3    0    0  0.30120884165E+02 -0.43413249390E+01 -0.13075701768E+03  0.13425167573E+03  0.00000000000E+00 0. -1.
        -14    1    3    3    0    0  0.40588130101E+02  0.37193724687E+02 -0.38679429824E+02  0.67282001700E+02  0.00000000000E+00 0.  1.
          5    1    4    4  501    0 -0.59530618287E+02 -0.99839858956E+01  0.77826430406E+02  0.98579917619E+02  0.41800000000E+01 0. -1.
         -5    1    4    4    0  501 -0.63828890475E+02 -0.15679148484E+03  0.57122048160E+02  0.17871233243E+03  0.41800000000E+01 0. -1.
</event>
<event>
11    1  0.8551154E-009  0.2302395E+03  0.7561462E-02  0.1034986E+00
         22   -1    0    0    0    0  0.00000000000E+00  0.00000000000E+00  0.15115005635E+03  0.15115005635E+03  0.00000000000E+00 0.  1.
         22   -1    0    0    0    0 -0.00000000000E+00 -0.00000000000E+00 -0.17030207407E+04  0.17030207407E+04  0.00000000000E+00 0.  1.
        -24    2    1    2    0    0  0.64595709545E+01 -0.11810794934E+03 -0.94288124581E+03  0.95232455665E+03  0.62496429790E+02 0.  0.
         25    2    1    2    0    0 -0.82078690953E+02  0.28175021088E+03 -0.62820001682E+03  0.70455864363E+03  0.12509008092E+03 0.  0.
         24    2    1    2    0    0  0.75619119998E+02 -0.16364226154E+03  0.19210578249E+02  0.19728759681E+03  0.77822287709E+02 0.  0.
        -13    1    5    5    0    0 -0.79362488224E+01 -0.70582156674E+02  0.21200565695E+01  0.71058564058E+02  0.00000000000E+00 0.  1.
         14    1    5    5    0    0  0.83555368821E+02 -0.93060104870E+02  0.17090521680E+02  0.12622903275E+03  0.00000000000E+00 0. -1.
         11    1    3    3    0    0 -0.33335092047E+01  0.45133272945E+01 -0.13644457848E+03  0.13655989676E+03  0.00000000000E+00 0. -1.
        -12    1    3    3    0    0  0.97930801592E+01 -0.12262127663E+03 -0.80643666733E+03  0.81576465989E+03  0.00000000000E+00 0.  1.
          5    1    4    4  501    0 -0.13279026535E+02  0.25666947701E+01 -0.54817658006E+00  0.14166628580E+02  0.41800000000E+01 0. -1.
         -5    1    4    4    0  501 -0.68799664418E+02  0.27918351611E+03 -0.62765184024E+03  0.69039201505E+03  0.41800000000E+01 0. -1.
</event>
<event>
11    1  0.8551154E-009  0.1739643E+03  0.7561462E-02  0.1074632E+00
         22   -1    0    0    0    0  0.00000000000E+00  0.00000000000E+00  0.79421100968E+03  0.79421100968E+03  0.00000000000E+00 0. -1.
         22   -1    0    0    0    0 -0.00000000000E+00 -0.00000000000E+00 -0.35070487621E+03  0.35070487621E+03  0.00000000000E+00 0.  1.
        -24    2    1    2    0    0  0.25456110143E+02 -0.23393834390E+01 -0.28532870015E+03  0.29742864058E+03  0.79986516666E+02 0.  0.
         25    2    1    2    0    0  0.96077181308E+02 -0.23885104272E+02  0.72846212881E+02  0.17538104187E+03  0.12510242261E+03 0.  0.
         24    2    1    2    0    0 -0.12153329145E+03  0.26224487711E+02  0.65598862075E+03  0.67210620344E+03  0.77120771961E+02 0.  0.
        -13    1    5    5    0    0  0.10233653244E+02 -0.29865587858E+00  0.79466978513E+02  0.80123763816E+02  0.00000000000E+00 0.  1.
         14    1    5    5    0    0 -0.13176694469E+03  0.26523143589E+02  0.57652164223E+03  0.59198243962E+03  0.00000000000E+00 0. -1.
         13    1    3    3    0    0 -0.16238134927E+02  0.13762831037E+02 -0.23074756231E+02  0.31393262321E+02  0.00000000000E+00 0. -1.
        -14    1    3    3    0    0  0.41694245070E+02 -0.16102214476E+02 -0.26225394392E+03  0.26603537826E+03  0.00000000000E+00 0.  1.
          5    1    4    4  501    0  0.91477176400E+02 -0.68215130707E+02  0.58971167290E+02  0.12851633683E+03  0.41800000000E+01 0.  1.
         -5    1    4    4    0  501  0.46000049081E+01  0.44330026436E+02  0.13875045591E+02  0.46864705047E+02  0.41800000000E+01 0.  1.
</event>
<event>
11    1  0.8551154E-009  0.1319630E+03  0.7561462E-02  0.1116880E+00
         22   -1    0    0    0    0  0.00000000000E+00  0.00000000000E+00  0.23509802670E+03  0.23509802670E+03  0.00000000000E+00 0.  1.
         22   -1    0    0    0    0 -0.00000000000E+00 -0.00000000000E+00 -0.23988862944E+03  0.23988862944E+03  0.00000000000E+00 0. -1.
         24    2    1    2    0    0 -0.39122322324E+02 -0.11122678720E+02 -0.16657864948E+03  0.19027250621E+03  0.82467630448E+02 0.  0.
         25    2    1    2    0    0  0.48275419768E+02  0.28382548499E+02  0.53600558144E+02  0.14713487493E+03  0.12505825192E+03 0.  0.
        -24    2    1    2    0    0 -0.91530974443E+01 -0.17259869779E+02  0.10818748859E+03  0.13757927500E+03  0.82715427368E+02 0.  0.
        -11    1    3    3    0    0  0.14319265848E+02  0.23551772125E+02 -0.40146075987E+02  0.48697379414E+02  0.00000000000E+00 0.  1.
         12    1    3    3    0    0 -0.53441588172E+02 -0.34674450845E+02 -0.12643257349E+03  0.14157512679E+03  0.00000000000E+00 0. -1.
         13    1    5    5    0    0 -0.20410510875E+02  0.61853520467E+01 -0.46121719836E+01  0.21820166465E+02  0.00000000000E+00 0. -1.
        -14    1    5    5    0    0  0.11257413431E+02 -0.23445221826E+02  0.11279966057E+03  0.11575910854E+03  0.00000000000E+00 0.  1.
          5    1    4    4  501    0 -0.10035781010E+01  0.51124363106E+02 -0.20449488042E+02  0.55230079062E+02  0.41800000000E+01 0. -1.
         -5    1    4    4    0  501  0.49278997869E+02 -0.22741814608E+02  0.74050046186E+02  0.91904795864E+02  0.41800000000E+01 0. -1.
</event>
<event>
11    1  0.8551154E-009  0.1568014E+03  0.7561462E-02  0.1090125E+00
         22   -1    0    0    0    0  0.00000000000E+00  0.00000000000E+00  0.27354649184E+04  0.27354649184E+04  0.00000000000E+00 0.  1.
         22   -1    0    0    0    0 -0.00000000000E+00 -0.00000000000E+00 -0.77083472531E+02  0.77083472531E+02  0.00000000000E+00 0. -1.
        -24    2    1    2    0    0 -0.92533290047E+02 -0.92812568653E+01 -0.10617421350E+02  0.12479697353E+03  0.82540919975E+02 0.  0.
         25    2    1    2    0    0  0.14378757391E+03 -0.59699894571E+02  0.15996833553E+04  0.16121022112E+04  0.12509099997E+03 0.  0.
         24    2    1    2    0    0 -0.51254283868E+02  0.68981151437E+02  0.10693155119E+04  0.10756492062E+04  0.78741030744E+02 0.  0.
        -11    1    5    5    0    0 -0.13450285559E+02 -0.88048873535E+01  0.45409441005E+03  0.45437888316E+03  0.00000000000E+00 0.  1.
         12    1    5    5    0    0 -0.37803998309E+02  0.77786038790E+02  0.61522110189E+03  0.62127032307E+03  0.00000000000E+00 0. -1.
         11    1    3    3    0    0 -0.97981760324E+02  0.49663320650E+01 -0.27652913040E+02  0.10193023796E+03  0.00000000000E+00 0. -1.
        -12    1    3    3    0    0  0.54484702766E+01 -0.14247588930E+02  0.17035491690E+02  0.22866735574E+02  0.00000000000E+00 0.  1.
          5    1    4    4  501    0 -0.31922554378E+01 -0.21704062972E+02  0.47289843966E+02  0.52297787588E+02  0.41800000000E+01 0.  1.
         -5    1    4    4    0  501  0.14697982935E+03 -0.37995831600E+02  0.15523935114E+04  0.15598044236E+04  0.41800000000E+01 0.  1.
</event>
<event>
11    1  0.8551154E-009  0.1424675E+03  0.7561462E-02  0.1104834E+00
         22   -1    0    0    0    0  0.00000000000E+00  0.00000000000E+00  0.18089799719E+04  0.18089799719E+04  0.00000000000E+00 0.  1.
         22   -1    0    0    0    0 -0.00000000000E+00 -0.00000000000E+00 -0.31031250467E+03  0.31031250467E+03  0.00000000000E+00 0. -1.
        -24    2    1    2    0    0 -0.12516770263E+02 -0.14619237501E+02 -0.28078716868E+03  0.29261704849E+03  0.80080655148E+02 0.  0.
         25    2    1    2    0    0  0.61474095731E+02  0.59903271321E+02  0.24251812717E+03  0.28606160054E+03  0.12509488772E+03 0.  0.
         24    2    1    2    0    0 -0.48957325468E+02 -0.45284033820E+02  0.15369365088E+04  0.15406138276E+04  0.82883474136E+02 0.  0.
        -11    1    5    5    0    0 -0.61059053794E+02 -0.31304660974E+02  0.14549986821E+04  0.14566157197E+04  0.00000000000E+00 0.  1.
         12    1    5    5    0    0  0.12101728326E+02 -0.13979372846E+02  0.81937826678E+02  0.83998107921E+02  0.00000000000E+00 0. -1.
         11    1    3    3    0    0 -0.86941358099E+01  0.16515684702E+01 -0.27467983030E+03  0.27482235144E+03  0.00000000000E+00 0. -1.
        -12    1    3    3    0    0 -0.38226344528E+01 -0.16270805971E+02 -0.61073383801E+01  0.17794697053E+02  0.00000000000E+00 0.  1.
          5    1    4    4  501    0 -0.27755704134E+02 -0.17813781577E+02  0.49805333136E+02  0.59881161769E+02  0.41800000000E+01 0. -1.
         -5    1    4    4    0  501  0.89229799864E+02  0.77717052898E+02  0.19271279404E+03  0.22618043877E+03  0.41800000000E+01 0. -1.
</event>
<event>
11    1  0.8551154E-009  0.1673623E+03  0.7561462E-02  0.1080350E+00
         22   -1    0    0    0    0  0.00000000000E+00  0.00000000000E+00  0.54704379318E+03  0.54704379318E+03  0.00000000000E+00 0. -1.
         22   -1    0    0    0    0 -0.00000000000E+00 -0.00000000000E+00 -0.31106509222E+03  0.31106509222E+03  0.00000000000E+00 0.  1.
        -24    2    1    2    0    0 -0.45729411844E+02  0.10506648764E+03 -0.19600651929E+03  0.25098051189E+03  0.10696969577E+03 0.  0.
         25    2    1    2    0    0 -0.20313400853E+02 -0.11319721209E+03  0.11293862519E+02  0.17029765664E+03  0.12508995743E+03 0.  0.
         24    2    1    2    0    0  0.66042812697E+02  0.81307244480E+01  0.42069135773E+03  0.43683071687E+03  0.97015952011E+02 0.  0.
        -13    1    5    5    0    0  0.47781013737E+02 -0.25062652856E+02  0.97559296458E+02  0.11148532714E+03  0.00000000000E+00 0.  1.
         14    1    5    5    0    0  0.18261798960E+02  0.33193377304E+02  0.32313206127E+03  0.32534538973E+03  0.00000000000E+00 0. -1.
         11    1    3    3    0    0 -0.33249539979E+02  0.16691705289E+02 -0.18007366837E+01  0.37247652098E+02  0.00000000000E+00 0. -1.
        -12    1    3    3    0    0 -0.12479871866E+02  0.88374782350E+02 -0.19420578261E+03  0.21373285979E+03  0.00000000000E+00 0.  1.
          5    1    4    4  501    0 -0.36138871543E+02 -0.49979616456E+02  0.62051472708E+02  0.87589027639E+02  0.41800000000E+01 0. -1.
         -5    1    4    4    0  501  0.15825470690E+02 -0.63217595631E+02 -0.50757610188E+02  0.82708629005E+02  0.41800000000E+01 0. -1.
</event>
<event>
11    1  0.8551154E-009  0.2410538E+03  0.7561462E-02  0.1028776E+00
         22   -1    0    0    0    0  0.00000000000E+00  0.00000000000E+00  0.34385355134E+03  0.34385355134E+03  0.00000000000E+00 0.  1.
         22   -1    0    0    0    0 -0.00000000000E+00 -0.00000000000E+00 -0.25257208891E+04  0.25257208891E+04  0.00000000000E+00 0. -1.
        -24    2    1    2    0    0  0.19726842683E+03  0.74828869494E+02 -0.23026604408E+04  0.23137331728E+04  0.81252059935E+02 0.  0.
         25    2    1    2    0    0 -0.14377378319E+03 -0.75605871016E+02 -0.15894646870E+03  0.25942087794E+03  0.12509222012E+03 0.  0.
         24    2    1    2    0    0 -0.53494643639E+02  0.77700152249E+00  0.27973957176E+03  0.29642038970E+03  0.82149490498E+02 0.  0.
        -13    1    5    5    0    0 -0.27700013434E+02 -0.37614244520E+02  0.18753670554E+03  0.19326701234E+03  0.00000000000E+00 0.  1.
         14    1    5    5    0    0 -0.25794630206E+02  0.38391246042E+02  0.92202866223E+02  0.10315337736E+03  0.00000000000E+00 0. -1.
         13    1    3    3    0    0  0.15755931304E+03  0.32276650986E+02 -0.19131475833E+04  0.19198959333E+04  0.00000000000E+00 0. -1.
        -14    1    3    3    0    0  0.39709113790E+02  0.42552218508E+02 -0.38951285756E+03  0.39383723950E+03  0.00000000000E+00 0.  1.
          5    1    4    4  501    0 -0.91557247601E+02 -0.79201373342E+02 -0.37010387655E+02  0.12666028708E+03  0.41800000000E+01 0.  1.
         -5    1    4    4    0  501 -0.52216535585E+02  0.35955023264E+01 -0.12193608105E+03  0.13276059086E+03  0.41800000000E+01 0.  1.
</event>
<event>
11    1  0.8551154E-009  0.1743425E+03  0.7561462E-02  0.1074313E+00
         22   -1    0    0    0    0  0.00000000000E+00  0.00000000000E+00  0.30159872862E+03  0.30159872862E+03  0.00000000000E+00 0. -1.
         22   -1    0    0    0    0 -0.00000000000E+00 -0.00000000000E+00 -0.14192905059E+04  0.14192905059E+04  0.00000000000E+00 0. -1.
         24    2    1    2    0    0  0.50145436479E+02  0.24302817970E+02 -0.12941022996E+04  0.12978548948E+04  0.81371827735E+02 0.  0.
         25    2    1    2    0    0 -0.14840503078E+03  0.35748662717E+02 -0.53178301761E+00  0.19734284021E+03  0.12506755672E+03 0.  0.
        -24    2    1    2    0    0  0.98259594301E+02 -0.60051480687E+02  0.17694230533E+03  0.22569149952E+03  0.79793140892E+02 0.  0.
        -11    1    3    3    0    0  0.42165568759E+02  0.14773762791E+02 -0.26959024568E+03  0.27326745108E+03  0.00000000000E+00 0.  1.
         12    1    3    3    0    0  0.79798677206E+01  0.95290551787E+01 -0.10245120540E+04  0.10245874437E+04  0.00000000000E+00 0. -1.
         13    1    5    5    0    0  0.39235723943E+02 -0.53964976701E+02  0.14184063714E+03  0.15674956806E+03  0.00000000000E+00 0. -1.
        -14    1    5    5    0    0  0.59023870358E+02 -0.60865039854E+01  0.35101668192E+02  0.68941931455E+02  0.00000000000E+00 0.  1.
          5    1    4    4  501    0 -0.14489839285E+02 -0.32265942562E+02 -0.27103017583E+02  0.44755920882E+02  0.41800000000E+01 0. -1.
         -5    1    4    4    0  501 -0.13391519150E+03  0.68014605279E+02  0.26571234565E+02  0.15258691933E+03  0.41800000000E+01 0. -1.
</event>
<event>
11    1  0.8551154E-009  0.1479568E+03  0.7561462E-02  0.1098985E+00
         22   -1    0    0    0    0  0.00000000000E+00  0.00000000000E+00  0.95359482201E+03  0.95359482201E+03  0.00000000000E+00 0. -1.
         22   -1    0    0    0    0 -0.00000000000E+00 -0.00000000000E+00 -0.14543926104E+04  0.14543926104E+04  0.00000000000E+00 0.  1.
         24    2    1    2    0    0  0.33130713250E+02  0.29245180348E+02 -0.96949743631E+03  0.97379430700E+03  0.79982176816E+02 0.  0.
         25    2    1    2    0    0 -0.10132714382E+03  0.10447802140E+02 -0.46497084894E+03  0.49215849548E+03  0.12508296311E+03 0.  0.
        -24    2    1    2    0    0  0.68196430574E+02 -0.39692982488E+02  0.93367049688E+03  0.94203462991E+03  0.97274668853E+02 0.  0.
        -13    1    3    3    0    0  0.33579062682E+02  0.43681996578E+02 -0.93175366917E+03  0.93338125666E+03  0.00000000000E+00 0.  1.
         14    1    3    3    0    0 -0.44834943189E+00 -0.14436816230E+02 -0.37743767140E+02  0.40413050342E+02  0.00000000000E+00 0. -1.
         11    1    5    5    0    0  0.88662570112E+02 -0.25470594904E+02  0.84194428395E+03  0.84698286867E+03  0.00000000000E+00 0. -1.
        -12    1    5    5    0    0 -0.20466139538E+02 -0.14222387583E+02  0.91726212937E+02  0.95051761245E+02  0.00000000000E+00 0.  1.
          5    1    4    4  501    0 -0.11723111815E+03 -0.18799189066E+02 -0.27987484466E+03  0.30404595976E+03  0.41800000000E+01 0. -1.
         -5    1    4    4    0  501  0.15903974325E+02  0.29246991206E+02 -0.18509600428E+03  0.18811253572E+03  0.41800000000E+01 0. -1.
</event>
<event>
11    1  0.8551154E-009  0.1356456E+03  0.7561462E-02  0.1112521E+00
         22   -1    0    0    0    0  0.00000000000E+00  0.00000000000E+00  0.46151400710E+03  0.46151400710E+03  0.00000000000E+00 0. -1.
         22   -1    0    0    0    0 -0.00000000000E+00 -0.00000000000E+00 -0.70169650355E+03  0.70169650355E+03  0.00000000000E+00 0. -1.
         24    2    1    2    0    0  0.47749603637E+02 -0.28173480889E+02 -0.50796909939E+03  0.51730751843E+03  0.80626875300E+02 0.  0.
         25    2    1    2    0    0 -0.40878122581E+02  0.35577559829E+01 -0.16150627793E+03  0.20836364724E+03  0.12508978035E+03 0.  0.
        -24    2    1    2    0    0 -0.68714810565E+01  0.24615724906E+02  0.42929288086E+03  0.43753934497E+03  0.80592491429E+02 0.  0.
        -13    1    3    3    0    0  0.13809358326E+02 -0.18666772649E+02 -0.29499903592E+02  0.37541857845E+02  0.00000000000E+00 0.  1.
         14    1    3    3    0    0  0.33940245311E+02 -0.95067082400E+01 -0.47846919580E+03  0.47976566059E+03  0.00000000000E+00 0. -1.
         11    1    5    5    0    0 -0.15240342543E+02  0.13495440507E+02  0.42068011494E+03  0.42117235672E+03  0.00000000000E+00 0. -1.
        -12    1    5    5    0    0  0.83688614868E+01  0.11120284399E+02  0.86127659196E+01  0.16366988254E+02  0.00000000000E+00 0.  1.
          5    1    4    4  501    0 -0.72910353226E+02  0.15549470702E+02 -0.45706187073E+02  0.87545608590E+02  0.41800000000E+01 0.  1.
         -5    1    4    4    0  501  0.32032230646E+02 -0.11991714719E+02 -0.11580009085E+03  0.12081803865E+03  0.41800000000E+01 0.  1.
</event>
<event>
11    1  0.8551154E-009  0.1736071E+03  0.7561462E-02  0.1074935E+00
         22   -1    0    0    0    0  0.00000000000E+00  0.00000000000E+00  0.25818277754E+04  0.25818277754E+04  0.00000000000E+00 0. -1.
         22   -1    0    0    0    0 -0.00000000000E+00 -0.00000000000E+00 -0.21025780188E+02  0.21025780188E+02  0.00000000000E+00 0.  1.
         24    2    1    2    0    0 -0.13939326278E+03 -0.20749719784E+02  0.55241482458E+03  0.57548839374E+03  0.78509364611E+02 0.  0.
         25    2    1    2    0    0  0.72583212227E+02  0.63361277325E+02  0.95632968507E+03  0.96927697608E+03  0.12509362754E+03 0.  0.
        -24    2    1    2    0    0  0.66810050556E+02 -0.42611557541E+02  0.10520574856E+04  0.10580881858E+04  0.80289029428E+02 0.  0.
        -11    1    3    3    0    0 -0.94568608067E+02  0.23417982174E+02  0.36566399001E+03  0.37842010664E+03  0.00000000000E+00 0.  1.
         12    1    3    3    0    0 -0.44824654716E+02 -0.44167701958E+02  0.18675083457E+03  0.19706828710E+03  0.00000000000E+00 0. -1.
         13    1    5    5    0    0  0.25773918545E+02  0.17303944461E+02  0.15391305526E+03  0.15701257895E+03  0.00000000000E+00 0. -1.
        -14    1    5    5    0    0  0.41036132010E+02 -0.59915502002E+02  0.89814443035E+03  0.90107560686E+03  0.00000000000E+00 0.  1.
          5    1    4    4  501    0  0.18353320196E+02 -0.38211899409E+02  0.24456762708E+03  0.24824945163E+03  0.41800000000E+01 0. -1.
         -5    1    4    4    0  501  0.54229892031E+02  0.10157317673E+03  0.71176205799E+03  0.72102752445E+03  0.41800000000E+01 0. -1.
</event>
<event>
11    1  0.8551154E-009  0.1393225E+03  0.7561462E-02  0.1108317E+00
         22   -1    0    0    0    0  0.00000000000E+00  0.00000000000E+00  0.32090348310E+03  0.32090348310E+03  0.00000000000E+00 0. -1.
         22   -1    0    0    0    0 -0.00000000000E+00 -0.00000000000E+00 -0.33140449785E+03  0.33140449785E+03  0.00000000000E+00 0.  1.
        -24    2    1    2    0    0 -0.39217877209E+02 -0.47902383059E+02 -0.24205996860E+03  0.26339524400E+03  0.83374732185E+02 0.  0.
         25    2    1    2    0    0 -0.16775088763E+02  0.82251032559E+02  0.18238502316E+02  0.15174481900E+03  0.12508881312E+03 0.  0.
         24    2    1    2    0    0  0.55992965971E+02 -0.34348649500E+02  0.21332045154E+03  0.23716791794E+03  0.80174586340E+02 0.  0.
        -13    1    5    5    0    0  0.22818964156E+02  0.11599015809E+02  0.12466656741E+02  0.28472088494E+02  0.00000000000E+00 0.  1.
         14    1    5    5    0    0  0.33174001815E+02 -0.45947665309E+02  0.20085379480E+03  0.20869582945E+03  0.00000000000E+00 0. -1.
         13    1    3    3    0    0 -0.44839378577E+02  0.39943447612E+01 -0.67003863244E+02  0.80722006608E+02  0.00000000000E+00 0. -1.
        -14    1    3    3    0    0  0.56215013687E+01 -0.51896727821E+02 -0.17505610536E+03  0.18267323739E+03  0.00000000000E+00 0.  1.
          5    1    4    4  501    0 -0.63690620586E+02  0.15071870827E+02  0.23157200035E+02  0.69551310227E+02  0.41800000000E+01 0. -1.
         -5    1    4    4    0  501  0.46915531823E+02  0.67179161732E+02 -0.49186977193E+01  0.82193508774E+02  0.41800000000E+01 0. -1.
</event>
<event>
11    1  0.8551154E-009  0.1907872E+03  0.7561462E-02  0.1061237E+00
         22   -1    0    0    0    0  0.00000000000E+00  0.00000000000E+00  0.84893791912E+03  0.84893791912E+03  0.00000000000E+00 0.  1.
         22   -1    0    0    0    0 -0.00000000000E+00 -0.00000000000E+00 -0.34514871762E+03  0.34514871762E+03  0.00000000000E+00 0.  1.
         24    2    1    2    0    0  0.16267626101E+01 -0.16942019676E+02 -0.28100612048E+03  0.29386308808E+03  0.84269783435E+02 0.  0.
         25    2    1    2    0    0 -0.14293992881E+03  0.40340861059E+02  0.15194591260E+03  0.24656515657E+03  0.12509039834E+03 0.  0.
        -24    2    1    2    0    0  0.14131316620E+03 -0.23398841383E+02  0.63284940938E+03  0.65365839209E+03  0.79082247550E+02 0.  0.
        -13    1    3    3    0    0  0.20496171940E+02 -0.14835596555E+02 -0.27141441390E+03  0.27259121787E+03  0.00000000000E+00 0.  1.
         14    1    3    3    0    0 -0.18869409330E+02 -0.21064231210E+01 -0.95917065787E+01  0.21271870203E+02  0.00000000000E+00 0. -1.
         11    1    5    5    0    0  0.24914397487E+02 -0.69813240119E+01  0.30732189820E+02  0.40173792181E+02  0.00000000000E+00 0. -1.
        -12    1    5    5    0    0  0.11639876872E+03 -0.16417517371E+02  0.60211721956E+03  0.61348459991E+03  0.00000000000E+00 0.  1.
          5    1    4    4  501    0 -0.38555817556E+02  0.36565733894E+02  0.12894682601E+03  0.13952906615E+03  0.41800000000E+01 0. -1.
         -5    1    4    4    0  501 -0.10438411126E+03  0.37751271644E+01  0.22999086593E+02  0.10703609042E+03  0.41800000000E+01 0. -1.
</event>
<event>
11    1  0.8551154E-009  0.1373705E+03  0.7561462E-02  0.1110531E+00
         22   -1    0    0    0    0  0.00000000000E+00  0.00000000000E+00  0.43496191812E+03  0.43496191812E+03  0.00000000000E+00 0.  1.
         22   -1    0    0    0    0 -0.00000000000E+00 -0.00000000000E+00 -0.11270803906E+04  0.11270803906E+04  0.00000000000E+00 0. -1.
         24    2    1    2    0    0 -0.21432771702E+02 -0.52221706635E+02 -0.99354849230E+03  0.99835335918E+03  0.79902145669E+02 0.  0.
         25    2    1    2    0    0  0.10811188989E+02  0.62472880815E+02 -0.87797214919E+02  0.16545599979E+03  0.12509034445E+03 0.  0.
        -24    2    1    2    0    0  0.10621582712E+02 -0.10251174180E+02  0.38922723478E+03  0.39823294971E+03  0.82908005332E+02 0.  0.
        -11    1    3    3    0    0 -0.21565505830E+02  0.15275284818E+02 -0.16980906581E+03  0.17185320538E+03  0.00000000000E+00 0.  1.
         12    1    3    3    0    0  0.13273412826E+00 -0.67496991453E+02 -0.82373942650E+03  0.82650015380E+03  0.00000000000E+00 0. -1.
         11    1    5    5    0    0  0.42678305740E+02  0.11293697402E+02  0.24375263795E+03  0.24771825506E+03  0.00000000000E+00 0. -1.
        -12    1    5    5    0    0 -0.32056723028E+02 -0.21544871582E+02  0.14547459683E+03  0.15051469465E+03  0.00000000000E+00 0.  1.
          5    1    4    4  501    0 -0.48961526168E+02  0.63018688779E+02 -0.43909991646E+02  0.91181938708E+02  0.41800000000E+01 0.  1.
         -5    1    4    4    0  501  0.59772715158E+02 -0.54580796414E+00 -0.43887223274E+02  0.74274061087E+02  0.41800000000E+01 0.  1.
</event>
<event>
11    1  0.8551154E-009  0.1325607E+03  0.7561462E-02  0.1116162E+00
         22   -1    0    0    0    0  0.00000000000E+00  0.00000000000E+00  0.17198148674E+04  0.17198148674E+04  0.00000000000E+00 0.  1.
         22   -1    0    0    0    0 -0.00000000000E+00 -0.00000000000E+00 -0.65298049182E+03  0.65298049182E+03  0.00000000000E+00 0. -1.
        -24    2    1    2    0    0  0.28986797678E+02  0.33189922059E+02 -0.61688379093E+03  0.62364964472E+03  0.80320996505E+02 0.  0.
         25    2    1    2    0    0  0.59390714782E+00 -0.47219377059E+02  0.11009021798E+03  0.17319961555E+03  0.12509287923E+03 0.  0.
         24    2    1    2    0    0 -0.29580704826E+02  0.14029455000E+02  0.15736279485E+04  0.15759460990E+04  0.78926185396E+02 0.  0.
        -13    1    5    5    0    0  0.22777229316E+02 -0.12855758646E+02  0.56058055836E+03  0.56119037333E+03  0.00000000000E+00 0.  1.
         14    1    5    5    0    0 -0.52357934141E+02  0.26885213646E+02  0.10130473902E+04  0.10147557256E+04  0.00000000000E+00 0. -1.
         13    1    3    3    0    0  0.29300263532E+02 -0.18151570450E+02 -0.36259274180E+03  0.36422723863E+03  0.00000000000E+00 0. -1.
        -14    1    3    3    0    0 -0.31346585443E+00  0.51341492509E+02 -0.25429104912E+03  0.25942240608E+03  0.00000000000E+00 0.  1.
          5    1    4    4  501    0 -0.30367822943E+02 -0.74725131869E+02  0.10313450535E+03  0.13099713202E+03  0.41800000000E+01 0.  1.
         -5    1    4    4    0  501  0.30961730091E+02  0.27505754810E+02  0.69557126359E+01  0.42202483530E+02  0.41800000000E+01 0.  1.
</event>
<event>
11    1  0.8551154E-009  0.1697500E+03  0.7561462E-02  0.1078249E+00
         22   -1    0    0    0    0  0.00000000000E+00  0.00000000000E+00  0.11934412291E+03  0.11934412291E+03  0.00000000000E+00 0.  1.
         22   -1    0    0    0    0 -0.00000000000E+00 -0.00000000000E+00 -0.31218165373E+04  0.31218165373E+04  0.00000000000E+00 0.  1.
        -24    2    1    2    0    0  0.81148644716E+02  0.82999957614E+02 -0.28085180560E+04  0.28120819677E+04  0.80976702565E+02 0.  0.
         25    2    1    2    0    0 -0.12774170195E+02 -0.11780993240E+03 -0.25061184127E+03  0.30413598934E+03  0.12510014160E+03 0.  0.
         24    2    1    2    0    0 -0.68374474521E+02  0.34809974789E+02  0.56657482914E+02  0.12494270320E+03  0.80708150776E+02 0.  0.
        -13    1    5    5    0    0 -0.78778086143E+02  0.47732638101E+02  0.57051621365E+02  0.10834795382E+03  0.00000000000E+00 0.  1.
         14    1    5    5    0    0  0.10403611622E+02 -0.12922663312E+02 -0.39413845176E+00  0.16594749380E+02  0.00000000000E+00 0. -1.
         11    1    3    3    0    0  0.18059522911E+01  0.50850758515E+01 -0.10064739321E+02  0.11420089216E+02  0.00000000000E+00 0. -1.
        -12    1    3    3    0    0  0.79342692425E+02  0.77914881762E+02 -0.27984533167E+04  0.28006618784E+04  0.00000000000E+00 0.  1.
          5    1    4    4  501    0 -0.30502234791E+02  0.16555629029E+02 -0.70489126652E+02  0.78680776279E+02  0.41800000000E+01 0.  1.
         -5    1    4    4    0  501  0.17728064596E+02 -0.13436556143E+03 -0.18012271462E+03  0.22545521306E+03  0.41800000000E+01 0.  1.
</event>
<event>
11    1  0.8551154E-009  0.1417521E+03  0.7561462E-02  0.1105618E+00
         22   -1    0    0    0    0  0.00000000000E+00  0.00000000000E+00  0.46946798731E+02  0.46946798731E+02  0.00000000000E+00 0. -1.
         22   -1    0    0    0    0 -0.00000000000E+00 -0.00000000000E+00 -0.14342367365E+04  0.14342367365E+04  0.00000000000E+00 0. -1.
        -24    2    1    2    0    0  0.30513078853E+02 -0.16534828102E+02 -0.68212539718E+03  0.68781135867E+03  0.81147761038E+02 0.  0.
         25    2    1    2    0    0 -0.70297457811E+02 -0.36197858166E+02 -0.66473382406E+03  0.68100728436E+03  0.12509135461E+03 0.  0.
         24    2    1    2    0    0  0.39784378958E+02  0.52732686267E+02 -0.40430716539E+02  0.11236489220E+03  0.81410645184E+02 0.  0.
        -11    1    5    5    0    0  0.34901315571E+02 -0.73255072478E+01 -0.37922236091E+02  0.52056324065E+02  0.00000000000E+00 0.  1.
         12    1    5    5    0    0  0.48830633867E+01  0.60058193515E+02 -0.25084804479E+01  0.60308568135E+02  0.00000000000E+00 0. -1.
         11    1    3    3    0    0  0.35341367926E+02 -0.24650047296E+02 -0.67393567941E+03  0.67531173328E+03  0.00000000000E+00 0. -1.
        -12    1    3    3    0    0 -0.48282890731E+01  0.81152191939E+01 -0.81897177705E+01  0.12499625398E+02  0.00000000000E+00 0.  1.
          5    1    4    4  501    0 -0.55069942708E+02 -0.24046121871E+02 -0.65680674528E+03  0.65956310359E+03  0.41800000000E+01 0. -1.
         -5    1    4    4    0  501 -0.15227515103E+02 -0.12151736295E+02 -0.79270787744E+01  0.21444180774E+02  0.41800000000E+01 0. -1.
</event>
<event>
11    1  0.8551154E-009  0.1366039E+03  0.7561462E-02  0.1111411E+00
         22   -1    0    0    0    0  0.00000000000E+00  0.00000000000E+00  0.69296010049E+03  0.69296010049E+03  0.00000000000E+00 0.  1.
         22   -1    0    0    0    0 -0.00000000000E+00 -0.00000000000E+00 -0.55496448907E+03  0.55496448907E+03  0.00000000000E+00 0. -1.
         24    2    1    2    0    0 -0.23205228475E+02 -0.50668166398E+02 -0.47053160014E+03  0.48250523173E+03  0.91134879133E+02 0.  0.
         25    2    1    2    0    0 -0.87426128350E+01  0.54025598067E+02 -0.13776323460E+02  0.13723269176E+03  0.12509127098E+03 0.  0.
        -24    2    1    2    0    0  0.31947841310E+02 -0.33574316685E+01  0.62230353503E+03  0.62818666607E+03  0.79528993537E+02 0.  0.
        -11    1    3    3    0    0 -0.44119346312E+02  0.91410059654E+00 -0.29713395980E+03  0.30039297988E+03  0.00000000000E+00 0.  1.
         12    1    3    3    0    0  0.20914117837E+02 -0.51582266995E+02 -0.17339764035E+03  0.18211225184E+03  0.00000000000E+00 0. -1.
         13    1    5    5    0    0  0.29553970581E+02  0.16408959120E+02  0.10107333883E+03  0.10657631509E+03  0.00000000000E+00 0. -1.
        -14    1    5    5    0    0  0.23938707287E+01 -0.19766390789E+02  0.52123019620E+03  0.52161035098E+03  0.00000000000E+00 0.  1.
          5    1    4    4  501    0 -0.58126995633E+02  0.62278905285E+01  0.18124533577E+02  0.61347415260E+02  0.41800000000E+01 0.  1.
         -5    1    4    4    0  501  0.49384382798E+02  0.47797707538E+02 -0.31900857037E+02  0.75885276503E+02  0.41800000000E+01 0.  1.
</event>
<event>
11    1  0.8551154E-009  0.1478600E+03  0.7561462E-02  0.1099086E+00
         22   -1    0    0    0    0  0.00000000000E+00  0.00000000000E+00  0.44934260813E+03  0.44934260813E+03  0.00000000000E+00 0.  1.
         22   -1    0    0    0    0 -0.00000000000E+00 -0.00000000000E+00 -0.26027791376E+04  0.26027791376E+04  0.00000000000E+00 0.  1.
        -24    2    1    2    0    0  0.79819661847E+02  0.12255340331E+01 -0.24514281754E+04  0.24539857973E+04  0.78571709947E+02 0.  0.
         25    2    1    2    0    0 -0.53850419394E+02 -0.91676451290E+01 -0.11375417326E+03  0.17768362301E+03  0.12509014576E+03 0.  0.
         24    2    1    2    0    0 -0.25969242453E+02  0.79421110959E+01  0.41174581923E+03  0.42045232543E+03  0.80672545666E+02 0.  0.
        -11    1    5    5    0    0 -0.11371555546E+02  0.28146332315E+02  0.37393257386E+03  0.37516276214E+03  0.00000000000E+00 0.  1.
         12    1    5    5    0    0 -0.14597686907E+02 -0.20204221219E+02  0.37813245364E+02  0.45289563291E+02  0.00000000000E+00 0. -1.
         11    1    3    3    0    0  0.27886484784E+01 -0.28924069293E+02 -0.70875806938E+03  0.70935349386E+03  0.00000000000E+00 0. -1.
        -12    1    3    3    0    0  0.77031013369E+02  0.30149603326E+02 -0.17426701061E+04  0.17446323034E+04  0.00000000000E+00 0.  1.
          5    1    4    4  501    0  0.76123005422E+01  0.49595977054E+02 -0.32059930426E+02  0.59691034489E+02  0.41800000000E+01 0. -1.
         -5    1    4    4    0  501 -0.61462719936E+02 -0.58763622183E+02 -0.81694242829E+02  0.11799258852E+03  0.41800000000E+01 0. -1.
</event>
<event>
11    1  0.8551154E-009  0.1556801E+03  0.7561462E-02  0.1091212E+00
         22   -1    0    0    0    0  0.00000000000E+00  0.00000000000E+00  0.86791278624E+03  0.86791278624E+03  0.00000000000E+00 0. -1.
         22   -1    0    0    0    0 -0.00000000000E+00 -0.00000000000E+00 -0.41249673923E+03  0.41249673923E+03  0.00000000000E+00 0.  1.
         24    2    1    2    0    0  0.85973246263E+02  0.23330841563E+02 -0.33461839145E+03  0.35666895122E+03  0.85484183506E+02 0.  0.
         25    2    1    2    0    0 -0.12331547175E+03 -0.10594742008E+03  0.10939229970E+03  0.23247791130E+03  0.12509093739E+03 0.  0.
        -24    2    1    2    0    0  0.37342225491E+02  0.82616578514E+02  0.68064213876E+03  0.69126266295E+03  0.79689442747E+02 0.  0.
        -11    1    3    3    0    0  0.45817823191E+02 -0.20212641470E+01 -0.28234413651E+03  0.28604469905E+03  0.00000000000E+00 0.  1.
         12    1    3    3    0    0  0.40155423071E+02  0.25352105710E+02 -0.52274254933E+02  0.70624252171E+02  0.00000000000E+00 0. -1.
         13    1    5    5    0    0  0.56387257731E+02  0.74965234839E+02  0.62410776975E+03  0.63111791096E+03  0.00000000000E+00 0. -1.
        -14    1    5    5    0    0 -0.19045032240E+02  0.76513436755E+01  0.56534369004E+02  0.60144751988E+02  0.00000000000E+00 0.  1.
          5    1    4    4  501    0 -0.57826688043E+02 -0.57660714708E+02  0.12515024446E+03  0.14949494961E+03  0.41800000000E+01 0.  1.
         -5    1    4    4    0  501 -0.65488783711E+02 -0.48286705369E+02 -0.15757944768E+02  0.82982961689E+02  0.41800000000E+01 0.  1.
</event>
<event>
11    1  0.8551154E-009  0.2476422E+03  0.7561462E-02  0.1025163E+00
         22   -1    0    0    0    0  0.00000000000E+00  0.00000000000E+00  0.40402043128E+03  0.40402043128E+03  0.00000000000E+00 0. -1.
         22   -1    0    0    0    0 -0.00000000000E+00 -0.00000000000E+00 -0.15387320542E+04  0.15387320542E+04  0.00000000000E+00 0. -1.
        -24    2    1    2    0    0  0.19033332184E+02 -0.70240796508E+01 -0.58713244166E+03  0.59310221191E+03  0.81450133797E+02 0.  0.
         25    2    1    2    0    0 -0.18369154970E+03  0.14220035124E+03 -0.89545793426E+03  0.93351797755E+03  0.12508947620E+03 0.  0.
         24    2    1    2    0    0  0.16465821751E+03 -0.13517627159E+03  0.34787875297E+03  0.41613229605E+03  0.82228389566E+02 0.  0.
        -13    1    5    5    0    0  0.78058451384E+01 -0.97609884764E+01 -0.20545744641E+01  0.12666072422E+02  0.00000000000E+00 0.  1.
         14    1    5    5    0    0  0.15685237237E+03 -0.12541528311E+03  0.34993332744E+03  0.40346622363E+03  0.00000000000E+00 0. -1.
         13    1    3    3    0    0 -0.46507038688E+00 -0.65934349379E+01 -0.55802919964E+03  0.55806834467E+03  0.00000000000E+00 0. -1.
        -14    1    3    3    0    0  0.19498402571E+02 -0.43064471299E+00 -0.29103242024E+02  0.35033867243E+02  0.00000000000E+00 0.  1.
          5    1    4    4  501    0 -0.11437802458E+03  0.10594257448E+02 -0.37798693821E+03  0.39507742109E+03  0.41800000000E+01 0.  1.
         -5    1    4    4    0  501 -0.69313525111E+02  0.13160609379E+03 -0.51747099605E+03  0.53844055646E+03  0.41800000000E+01 0.  1.
</event>
<event>
11    1  0.8551154E-009  0.2248382E+03  0.7561462E-02  0.1038228E+00
         22   -1    0    0    0    0  0.00000000000E+00  0.00000000000E+00  0.50211425407E+02  0.50211425407E+02  0.00000000000E+00 0.  1.
         22   -1    0    0    0    0 -0.00000000000E+00 -0.00000000000E+00 -0.18940954228E+04  0.18940954228E+04  0.00000000000E+00 0.  1.
         24    2    1    2    0    0  0.87094890658E+01 -0.17638214152E+03 -0.91432197058E+03  0.93479602853E+03  0.81684968141E+02 0.  0.
         25    2    1    2    0    0 -0.48186996639E+02  0.19960171898E+03 -0.86369076423E+03  0.89653300877E+03  0.12508743630E+03 0.  0.
        -24    2    1    2    0    0  0.39477507573E+02 -0.23219577465E+02 -0.65871262630E+02  0.11297781096E+03  0.79544579625E+02 0.  0.
        -11    1    3    3    0    0 -0.19412516494E+02 -0.12426389116E+03 -0.46969588550E+03  0.48624333960E+03  0.00000000000E+00 0.  1.
         12    1    3    3    0    0  0.28122005559E+02 -0.52118250355E+02 -0.44462608508E+03  0.44855268893E+03  0.00000000000E+00 0. -1.
         11    1    5    5    0    0  0.73468724541E+01 -0.70746255596E-01  0.18428843849E+02  0.19839451240E+02  0.00000000000E+00 0. -1.
        -12    1    5    5    0    0  0.32130635119E+02 -0.23148831209E+02 -0.84300106479E+02  0.93138359723E+02  0.00000000000E+00 0.  1.
          5    1    4    4  501    0 -0.34509010543E+02  0.29353253895E+02 -0.62366112762E+02  0.77197731469E+02  0.41800000000E+01 0.  1.
         -5    1    4    4    0  501 -0.13677986096E+02  0.17024846509E+03 -0.80132465147E+03  0.81933527730E+03  0.41800000000E+01 0.  1.
</event>
<event>
11    1  0.8551154E-009  0.1336513E+03  0.7561462E-02  0.1114862E+00
         22   -1    0    0    0    0  0.00000000000E+00  0.00000000000E+00  0.43612023059E+03  0.43612023059E+03  0.00000000000E+00 0. -1.
         22   -1    0    0    0    0 -0.00000000000E+00 -0.00000000000E+00 -0.22168887890E+03  0.22168887890E+03  0.00000000000E+00 0. -1.
        -24    2    1    2    0    0 -0.17638993515E+02  0.37688672401E+02 -0.16034324055E+03  0.18404749016E+03  0.80199462135E+02 0.  0.
         25    2    1    2    0    0 -0.22667223573E+02 -0.45432546275E+01  0.52157317513E+02  0.13748557168E+03  0.12508977761E+03 0.  0.
         24    2    1    2    0    0  0.40306217088E+02 -0.33145417773E+02  0.32261727473E+03  0.33627604765E+03  0.79224140358E+02 0.  0.
        -11    1    5    5    0    0  0.38003166518E+02  0.19118929690E+02  0.14713287784E+03  0.15315958305E+03  0.00000000000E+00 0.  1.
         12    1    5    5    0    0  0.23030505699E+01 -0.52264347463E+02  0.17548439688E+03  0.18311646460E+03  0.00000000000E+00 0. -1.
         13    1    3    3    0    0 -0.76162688534E+01 -0.18087031164E+02 -0.97379147596E+02  0.99337035561E+02  0.00000000000E+00 0. -1.
        -14    1    3    3    0    0 -0.10022724662E+02  0.55775703565E+02 -0.62964092953E+02  0.84710454603E+02  0.00000000000E+00 0.  1.
          5    1    4    4  501    0 -0.37175108793E+02 -0.49984914173E+02 -0.53384259357E+01  0.62661403991E+02  0.41800000000E+01 0. -1.
         -5    1    4    4    0  501  0.14507885220E+02  0.45441659545E+02  0.57495743449E+02  0.74824167690E+02  0.41800000000E+01 0. -1.
</event>
<event>
11    1  0.8551154E-009  0.1434641E+03  0.7561462E-02  0.1103751E+00
         22   -1    0    0    0    0  0.00000000000E+00  0.00000000000E+00  0.52173158831E+03  0.52173158831E+03  0.00000000000E+00 0.  1.
         22   -1    0    0    0    0 -0.00000000000E+00 -0.00000000000E+00 -0.17563776947E+03  0.17563776947E+03  0.00000000000E+00 0.  1.
         24    2    1    2    0    0 -0.34091133704E+02  0.20096610354E+02 -0.16625841081E+02  0.92427390571E+02  0.81855511672E+02 0.  0.
         25    2    1    2    0    0  0.81612032152E+02  0.30953941632E+02 -0.63669830793E+02  0.16528856900E+03  0.12509114035E+03 0.  0.
        -24    2    1    2    0    0 -0.47520898448E+02 -0.51050551987E+02  0.42638949072E+03  0.43965339822E+03  0.81380084335E+02 0.  0.
        -11    1    3    3    0    0 -0.54729711678E+02  0.16360132956E+01 -0.29157323042E+02  0.62033598693E+02  0.00000000000E+00 0.  1.
         12    1    3    3    0    0  0.20638577974E+02  0.18460597059E+02  0.12531481960E+02  0.30393791878E+02  0.00000000000E+00 0. -1.
         11    1    5    5    0    0  0.13712200898E+02 -0.42925894332E+02  0.16265077724E+03  0.16877775978E+03  0.00000000000E+00 0. -1.
        -12    1    5    5    0    0 -0.61233099347E+02 -0.81246576541E+01  0.26373871347E+03  0.27087563844E+03  0.00000000000E+00 0.  1.
          5    1    4    4  501    0  0.99500052385E+01  0.68174691758E+02 -0.14115426009E+02  0.70452174217E+02  0.41800000000E+01 0. -1.
         -5    1    4    4    0  501  0.71662026914E+02 -0.37220750126E+02 -0.49554404784E+02  0.94836394780E+02  0.41800000000E+01 0. -1.
</event>
<event>
11    1  0.8551154E-009  0.1416648E+03  0.7561462E-02  0.1105713E+00
         22   -1    0    0    0    0  0.00000000000E+00  0.00000000000E+00  0.18038207298E+03  0.18038207298E+03  0.00000000000E+00 0. -1.
         22   -1    0    0    0    0 -0.00000000000E+00 -0.00000000000E+00 -0.84450087521E+03  0.84450087521E+03  0.00000000000E+00 0. -1.
        -24    2    1    2    0    0  0.56164614375E+02 -0.26908308415E+02 -0.65601593614E+03  0.66332029514E+03  0.75884020076E+02 0.  0.
         25    2    1    2    0    0 -0.87676889867E+02 -0.30920912953E+02 -0.12933419972E+03  0.20252918289E+03  0.12508954725E+03 0.  0.
         24    2    1    2    0    0  0.31512275491E+02  0.57829221368E+02  0.12123133362E+03  0.15903347016E+03  0.79103514636E+02 0.  0.
        -11    1    5    5    0    0  0.13953851694E+02  0.20721244002E+02 -0.57042276800E+01  0.25624561333E+02  0.00000000000E+00 0.  1.
         12    1    5    5    0    0  0.17558423797E+02  0.37107977366E+02  0.12693556130E+03  0.13340890882E+03  0.00000000000E+00 0. -1.
         11    1    3    3    0    0  0.42382159406E+02 -0.42291039185E+02 -0.26161017478E+03  0.26837411012E+03  0.00000000000E+00 0. -1.
        -12    1    3    3    0    0  0.13782454969E+02  0.15382730770E+02 -0.39440576136E+03  0.39494618502E+03  0.00000000000E+00 0.  1.
          5    1    4    4  501    0  0.91091770854E+01 -0.20501830317E+02  0.15775542634E+02  0.27742427776E+02  0.41800000000E+01 0.  1.
         -5    1    4    4    0  501 -0.96786066952E+02 -0.10419082636E+02 -0.14510974235E+03  0.17478675512E+03  0.41800000000E+01 0.  1.
</event>
<event>
11    1  0.8551154E-009  0.1311574E+03  0.7561462E-02  0.1117855E+00
         22   -1    0    0    0    0  0.00000000000E+00  0.00000000000E+00  0.81752789668E+03  0.81752789668E+03  0.00000000000E+00 0. -1.
         22   -1    0    0    0    0 -0.00000000000E+00 -0.00000000000E+00 -0.19356307539E+03  0.19356307539E+03  0.00000000000E+00 0. -1.
        -24    2    1    2    0    0 -0.14632409018E+02  0.21649954018E+02 -0.16041618219E+03  0.18023351105E+03  0.77896977450E+02 0.  0.
         25    2    1    2    0    0 -0.18693585965E+02  0.54423702746E+01  0.18082425021E+03  0.22073514609E+03  0.12509007038E+03 0.  0.
         24    2    1    2    0    0  0.33325994982E+02 -0.27092324293E+02  0.60355675327E+03  0.61012231494E+03  0.78255151839E+02 0.  0.
        -13    1    5    5    0    0  0.24547344711E+02  0.12701285368E+02  0.73884674213E+02  0.78884978709E+02  0.00000000000E+00 0.  1.
         14    1    5    5    0    0  0.87786502716E+01 -0.39793609660E+02  0.52967207906E+03  0.53123733623E+03  0.00000000000E+00 0. -1.
         11    1    3    3    0    0 -0.89071597408E+01 -0.61779571878E+00 -0.15668686061E+03  0.15694104452E+03  0.00000000000E+00 0. -1.
        -12    1    3    3    0    0 -0.57252492770E+01  0.22267749737E+02 -0.37293215712E+01  0.23292466529E+02  0.00000000000E+00 0.  1.
          5    1    4    4  501    0  0.37551208218E+02 -0.12043741231E+02  0.14790799013E+03  0.15313193947E+03  0.41800000000E+01 0.  1.
         -5    1    4    4    0  501 -0.56244794182E+02  0.17486111506E+02  0.32916260078E+02  0.67603206623E+02  0.41800000000E+01 0.  1.
</event>
<event>
11    1  0.8551154E-009  0.1645180E+03  0.7561462E-02  0.1082903E+00
         22   -1    0    0    0    0  0.00000000000E+00  0.00000000000E+00  0.97713534887E+02  0.97713534887E+02  0.00000000000E+00 0. -1.
         22   -1    0    0    0    0 -0.00000000000E+00 -0.00000000000E+00 -0.82172932929E+03  0.82172932929E+03  0.00000000000E+00 0.  1.
        -24    2    1    2    0    0  0.56356096894E+00 -0.35849796483E+02 -0.50508637465E+03  0.51275592049E+03  0.80751858393E+02 0.  0.
         25    2    1    2    0    0  0.27322585743E+02  0.13122180831E+03 -0.21026627490E+03  0.27897207929E+03  0.12509127864E+03 0.  0.
         24    2    1    2    0    0 -0.27886146712E+02 -0.95372011830E+02 -0.86631448615E+01  0.12771486441E+03  0.79765773941E+02 0.  0.
        -13    1    5    5    0    0 -0.42487302149E+02 -0.27205784251E+02 -0.24712809601E+02  0.56178719272E+02  0.00000000000E+00 0.  1.
         14    1    5    5    0    0  0.14601155437E+02 -0.68166227579E+02  0.16049664740E+02  0.71536145135E+02  0.00000000000E+00 0. -1.
         13    1    3    3    0    0  0.91129934798E+01  0.21705118401E+02 -0.25055650630E+03  0.25165993258E+03  0.00000000000E+00 0. -1.
        -14    1    3    3    0    0 -0.85494325108E+01 -0.57554914884E+02 -0.25452986835E+03  0.26109598791E+03  0.00000000000E+00 0.  1.
          5    1    4    4  501    0 -0.24151085204E+02  0.11111510608E+03 -0.18693385640E+03  0.21884145124E+03  0.41800000000E+01 0. -1.
         -5    1    4    4    0  501  0.51473670947E+02  0.20106702234E+02 -0.23332418503E+02  0.60130628041E+02  0.41800000000E+01 0. -1.
</event>
<event>
11    1  0.8551154E-009  0.1944101E+03  0.7561462E-02  0.1058548E+00
         22   -1    0    0    0    0  0.00000000000E+00  0.00000000000E+00  0.15598729430E+04  0.15598729430E+04  0.00000000000E+00 0.  1.
         22   -1    0    0    0    0 -0.00000000000E+00 -0.00000000000E+00 -0.33912088482E+04  0.33912088482E+04  0.00000000000E+00 0.  1.
        -24    2    1    2    0    0 -0.14483693006E+03 -0.33990485399E+02 -0.33260187957E+04  0.33303902047E+04  0.83455356526E+02 0.  0.
         25    2    1    2    0    0  0.16289014246E+03 -0.39000172935E+02  0.11879653456E+03  0.24046828208E+03  0.12513259394E+03 0.  0.
         24    2    1    2    0    0 -0.18053212400E+02  0.72990658334E+02  0.13758863560E+04  0.13802233044E+04  0.79369709739E+02 0.  0.
        -11    1    5    5    0    0  0.10636077411E+02 -0.44975240260E+01  0.56900926721E+03  0.56912643589E+03  0.00000000000E+00 0.  1.
         12    1    5    5    0    0 -0.28689289811E+02  0.77488182360E+02  0.80687708879E+03  0.81109686854E+03  0.00000000000E+00 0. -1.
         13    1    3    3    0    0 -0.52462992942E+02 -0.42204864264E+02 -0.86152126152E+03  0.86414842489E+03  0.00000000000E+00 0. -1.
        -14    1    3    3    0    0 -0.92373937115E+02  0.82143788655E+01 -0.24644975342E+04  0.24662417798E+04  0.00000000000E+00 0.  1.
          5    1    4    4  501    0  0.11489396332E+03 -0.84149928350E+02  0.89330914365E+02  0.16816455605E+03  0.41800000000E+01 0. -1.
         -5    1    4    4    0  501  0.47996179134E+02  0.45149755414E+02  0.29465620191E+02  0.72303726036E+02  0.41800000000E+01 0. -1.
</event>
<event>
11    1  0.8551154E-009  0.1357785E+03  0.7561462E-02  0.1112366E+00
         22   -1    0    0    0    0  0.00000000000E+00  0.00000000000E+00  0.35935147611E+03  0.35935147611E+03  0.00000000000E+00 0. -1.
         22   -1    0    0    0    0 -0.00000000000E+00 -0.00000000000E+00 -0.52167094862E+03  0.52167094862E+03  0.00000000000E+00 0.  1.
         24    2    1    2    0    0  0.51818688354E+02  0.11744522708E+02 -0.43082769684E+03  0.44157469238E+03  0.80948096387E+02 0.  0.
         25    2    1    2    0    0 -0.45646946700E+02 -0.21250208062E+02 -0.22935819881E+02  0.13678053119E+03  0.12509055438E+03 0.  0.
        -24    2    1    2    0    0 -0.61717416547E+01  0.95056853541E+01  0.29144404421E+03  0.30266720116E+03  0.80866280386E+02 0.  0.
        -11    1    3    3    0    0  0.64085360388E+02  0.19212500829E+02 -0.41435218389E+03  0.41971869853E+03  0.00000000000E+00 0.  1.
         12    1    3    3    0    0 -0.12266672034E+02 -0.74679781208E+01 -0.16475512948E+02  0.21855993844E+02  0.00000000000E+00 0. -1.
         13    1    5    5    0    0 -0.39955127964E+02  0.88179553713E+01  0.21821700328E+03  0.22201988448E+03  0.00000000000E+00 0. -1.
        -14    1    5    5    0    0  0.33783386309E+02  0.68772998281E+00  0.73227040930E+02  0.80647316672E+02  0.00000000000E+00 0.  1.
          5    1    4    4  501    0 -0.60491196979E+02 -0.97943794152E+01  0.38446723211E+02  0.72461974205E+02  0.41800000000E+01 0. -1.
         -5    1    4    4    0  501  0.14844250279E+02 -0.11455828647E+02 -0.61382543093E+02  0.64318556987E+02  0.41800000000E+01 0. -1.
</event>
<event>
11    1  0.8551154E-009  0.1397281E+03  0.7561462E-02  0.1107862E+00
         22   -1    0    0    0    0  0.00000000000E+00  0.00000000000E+00  0.48481273486E+03  0.48481273486E+03  0.00000000000E+00 0. -1.
         22   -1    0    0    0    0 -0.00000000000E+00 -0.00000000000E+00 -0.17733406048E+03  0.17733406048E+03  0.00000000000E+00 0. -1.
         24    2    1    2    0    0 -0.27019026645E+02 -0.10366338058E+02 -0.78286047987E+02  0.11312635511E+03  0.76363460794E+02 0.  0.
         25    2    1    2    0    0  0.86044009739E+02 -0.28882035650E+01  0.39194288171E+00  0.15186035423E+03  0.12509796256E+03 0.  0.
        -24    2    1    2    0    0 -0.59024983094E+02  0.13254541623E+02  0.38537277948E+03  0.39716008601E+03  0.74594391533E+02 0.  0.
        -11    1    3    3    0    0  0.41529725282E-01 -0.34094859214E+01  0.15187855689E+02  0.15565901175E+02  0.00000000000E+00 0.  1.
         12    1    3    3    0    0 -0.27060556370E+02 -0.69568521366E+01 -0.93473903676E+02  0.97560453930E+02  0.00000000000E+00 0. -1.
         13    1    5    5    0    0 -0.32452790443E+02  0.13397029673E+02  0.35529556750E+03  0.35702605549E+03  0.00000000000E+00 0. -1.
        -14    1    5    5    0    0 -0.26572192652E+02 -0.14248804953E+00  0.30077211984E+02  0.40134030522E+02  0.00000000000E+00 0.  1.
          5    1    4    4  501    0 -0.20921438560E+02  0.23581865692E+01 -0.33208072172E+02  0.39541321332E+02  0.41800000000E+01 0. -1.
         -5    1    4    4    0  501  0.10696544830E+03 -0.52463901342E+01  0.33600015053E+02  0.11231903290E+03  0.41800000000E+01 0. -1.
</event>
<event>
11    1  0.8551154E-009  0.1338899E+03  0.7561462E-02  0.1114580E+00
         22   -1    0    0    0    0  0.00000000000E+00  0.00000000000E+00  0.92840134096E+03  0.92840134096E+03  0.00000000000E+00 0. -1.
         22   -1    0    0    0    0 -0.00000000000E+00 -0.00000000000E+00 -0.33222039648E+04  0.33222039648E+04  0.00000000000E+00 0.  1.
        -24    2    1    2    0    0  0.29547833332E+02  0.37920408344E+02 -0.32414746714E+04  0.32435450375E+04  0.10542928153E+03 0.  0.
         25    2    1    2    0    0  0.22132255942E+02 -0.52436809165E+02 -0.15637652819E+02  0.13831517567E+03  0.12508835248E+03 0.  0.
         24    2    1    2    0    0 -0.51680089273E+02  0.14516400821E+02  0.86330970039E+03  0.86874509255E+03  0.80825982971E+02 0.  0.
        -13    1    5    5    0    0  0.53371080462E+01  0.29933256730E+02  0.15351242135E+03  0.15649456249E+03  0.00000000000E+00 0.  1.
         14    1    5    5    0    0 -0.57017197320E+02 -0.15416855909E+02  0.70979727904E+03  0.71225053006E+03  0.00000000000E+00 0. -1.
         13    1    3    3    0    0 -0.65927049377E+01 -0.19137800027E+02 -0.20859158450E+04  0.20860140535E+04  0.00000000000E+00 0. -1.
        -14    1    3    3    0    0  0.36140538269E+02  0.57058208371E+02 -0.11555588264E+04  0.11575309840E+04  0.00000000000E+00 0.  1.
          5    1    4    4  501    0 -0.37058514147E+02 -0.31775309096E+02  0.32816598638E+02  0.58969528445E+02  0.41800000000E+01 0.  1.
         -5    1    4    4    0  501  0.59190770089E+02 -0.20661500069E+02 -0.48454251457E+02  0.79345647222E+02  0.41800000000E+01 0.  1.
</event>
<event>
11    1  0.8551154E-009  0.2646421E+03  0.7561462E-02  0.1016376E+00
         22   -1    0    0    0    0  0.00000000000E+00  0.00000000000E+00  0.45715228536E+03  0.45715228536E+03  0.00000000000E+00 0.  1.
         22   -1    0    0    0    0 -0.00000000000E+00 -0.00000000000E+00 -0.82728822915E+03  0.82728822915E+03  0.00000000000E+00 0. -1.
        -24    2    1    2    0    0  0.57395999964E+02  0.55806106135E+02 -0.64426701421E+03  0.65443547818E+03  0.82445055710E+02 0.  0.
         25    2    1    2    0    0 -0.21864695111E+03 -0.19195323698E+03  0.66525024790E+02  0.32361317676E+03  0.12508946731E+03 0.  0.
         24    2    1    2    0    0  0.16125095115E+03  0.13614713085E+03  0.20760604563E+03  0.30639185956E+03  0.78979686867E+02 0.  0.
        -13    1    5    5    0    0  0.11489855102E+03  0.48496833241E+02  0.13285029172E+03  0.18221640945E+03  0.00000000000E+00 0.  1.
         14    1    5    5    0    0  0.46352400128E+02  0.87650297605E+02  0.74755753903E+02  0.12417545011E+03  0.00000000000E+00 0. -1.
         13    1    3    3    0    0  0.60762203754E+02  0.72360178686E+02 -0.59236359118E+03  0.59985220265E+03  0.00000000000E+00 0. -1.
        -14    1    3    3    0    0 -0.33662037897E+01 -0.16554072551E+02 -0.51903423026E+02  0.54583275531E+02  0.00000000000E+00 0.  1.
          5    1    4    4  501    0 -0.14924057663E+03 -0.92919973436E+02  0.94184247305E+02  0.19948688182E+03  0.41800000000E+01 0. -1.
         -5    1    4    4    0  501 -0.69406374484E+02 -0.99033263545E+02 -0.27659222515E+02  0.12412629495E+03  0.41800000000E+01 0. -1.
</event>
<event>
11    1  0.8551154E-009  0.1574508E+03  0.7561462E-02  0.1089500E+00
         22   -1    0    0    0    0  0.00000000000E+00  0.00000000000E+00  0.58208539501E+02  0.58208539501E+02  0.00000000000E+00 0.  1.
         22   -1    0    0    0    0 -0.00000000000E+00 -0.00000000000E+00 -0.14684390738E+04  0.14684390738E+04  0.00000000000E+00 0.  1.
         24    2    1    2    0    0 -0.49191483530E+02  0.58744325349E+02 -0.56782500964E+03  0.57894006033E+03  0.82919563852E+02 0.  0.
         25    2    1    2    0    0  0.10219450990E+03 -0.80832993863E+02 -0.82818478787E+03  0.84765193250E+03  0.12508423183E+03 0.  0.
        -24    2    1    2    0    0 -0.53003026366E+02  0.22088668514E+02 -0.14220736835E+02  0.10005562052E+03  0.80694905422E+02 0.  0.
        -11    1    3    3    0    0 -0.72655470864E+02  0.46741966862E+02 -0.44739775806E+03  0.45566257563E+03  0.00000000000E+00 0.  1.
         12    1    3    3    0    0  0.23463987333E+02  0.12002358487E+02 -0.12042725158E+03  0.12327748470E+03  0.00000000000E+00 0. -1.
         13    1    5    5    0    0  0.21652952795E+02  0.59857640124E+01 -0.56961580223E+00  0.22472298452E+02  0.00000000000E+00 0. -1.
        -14    1    5    5    0    0 -0.74655979161E+02  0.16102904501E+02 -0.13651121033E+02  0.77583322070E+02  0.00000000000E+00 0.  1.
          5    1    4    4  501    0 -0.26588064596E+02 -0.28871228506E+02 -0.24411407040E+03  0.24728450170E+03  0.41800000000E+01 0. -1.
         -5    1    4    4    0  501  0.12878257449E+03 -0.51961765357E+02 -0.58407071748E+03  0.60036743080E+03  0.41800000000E+01 0. -1.
</event>
<event>
11    1  0.8551154E-009  0.1550187E+03  0.7561462E-02  0.1091858E+00
         22   -1    0    0    0    0  0.00000000000E+00  0.00000000000E+00  0.78247382595E+03  0.78247382595E+03  0.00000000000E+00 0. -1.
         22   -1    0    0    0    0 -0.00000000000E+00 -0.00000000000E+00 -0.77640098712E+03  0.77640098712E+03  0.00000000000E+00 0.  1.
         24    2    1    2    0    0  0.47243880813E+02 -0.77974395068E+02 -0.73989498640E+03  0.75060091969E+03  0.87436600973E+02 0.  0.
         25    2    1    2    0    0 -0.24536930486E+02  0.11505683380E+03  0.24576479745E+03  0.29981422132E+03  0.12509234862E+03 0.  0.
        -24    2    1    2    0    0 -0.22706950327E+02 -0.37082438731E+02  0.50020302778E+03  0.50845967206E+03  0.80233760075E+02 0.  0.
        -13    1    3    3    0    0  0.60413566717E+02 -0.80346650139E+02 -0.71753545261E+03  0.72454296559E+03  0.00000000000E+00 0.  1.
         14    1    3    3    0    0 -0.13169685904E+02  0.23722550712E+01 -0.22359533782E+02  0.26057954100E+02  0.00000000000E+00 0. -1.
         13    1    5    5    0    0 -0.33669694813E+02 -0.34478458796E+02  0.49240283201E+03  0.49475545620E+03  0.00000000000E+00 0. -1.
        -14    1    5    5    0    0  0.10962744486E+02 -0.26039799350E+01  0.78001957635E+01  0.13704215852E+02  0.00000000000E+00 0.  1.
          5    1    4    4  501    0  0.20136080938E+02  0.21450570695E+02  0.16670146441E+03  0.16932938131E+03  0.41800000000E+01 0.  1.
         -5    1    4    4    0  501 -0.44673011424E+02  0.93606263104E+02  0.79063333033E+02  0.13048484001E+03  0.41800000000E+01 0.  1.
</event>
<event>
11    1  0.8551154E-009  0.1429859E+03  0.7561462E-02  0.1104269E+00
         22   -1    0    0    0    0  0.00000000000E+00  0.00000000000E+00  0.20194218775E+03  0.20194218775E+03  0.00000000000E+00 0.  1.
         22   -1    0    0    0    0 -0.00000000000E+00 -0.00000000000E+00 -0.81167216133E+03  0.81167216133E+03  0.00000000000E+00 0. -1.
        -24    2    1    2    0    0  0.15334891500E+01  0.61965230742E+02 -0.42710152516E+03  0.43881088388E+03  0.79355135983E+02 0.  0.
         25    2    1    2    0    0  0.23018823562E+02 -0.89029072052E+02 -0.35158004461E+03  0.38433239657E+03  0.12508725505E+03 0.  0.
         24    2    1    2    0    0 -0.24552312712E+02  0.27063841310E+02  0.16895159619E+03  0.19047106862E+03  0.79995740897E+02 0.  0.
        -13    1    5    5    0    0 -0.95076842362E+01  0.30681428995E-01  0.15702757741E+03  0.15731515207E+03  0.00000000000E+00 0.  1.
         14    1    5    5    0    0 -0.15044628476E+02  0.27033159881E+02  0.11924018778E+02  0.33155916560E+02  0.00000000000E+00 0. -1.
         11    1    3    3    0    0 -0.31139051140E+01  0.77790132104E+02 -0.39626900315E+03  0.40384418272E+03  0.00000000000E+00 0. -1.
        -12    1    3    3    0    0  0.46473942640E+01 -0.15824901362E+02 -0.30832522004E+02  0.34966701155E+02  0.00000000000E+00 0.  1.
          5    1    4    4  501    0  0.43049457205E+02 -0.10447866124E+03 -0.33555796077E+03  0.35409838161E+03  0.41800000000E+01 0. -1.
         -5    1    4    4    0  501 -0.20030633643E+02  0.15449589187E+02 -0.16022083839E+02  0.30234014962E+02  0.41800000000E+01 0. -1.
</event>
<event>
11    1  0.8551154E-009  0.1493766E+03  0.7561462E-02  0.1097518E+00
         22   -1    0    0    0    0  0.00000000000E+00  0.00000000000E+00  0.13377645744E+03  0.13377645744E+03  0.00000000000E+00 0.  1.
         22   -1    0    0    0    0 -0.00000000000E+00 -0.00000000000E+00 -0.13253747561E+04  0.13253747561E+04  0.00000000000E+00 0. -1.
        -24    2    1    2    0    0  0.78430580832E+02  0.26780531454E+02 -0.93437700775E+03  0.94132242560E+03  0.78479063778E+02 0.  0.
         25    2    1    2    0    0 -0.12764505522E+02 -0.80553887951E+02 -0.34161327863E+03  0.37282640224E+03  0.12509209649E+03 0.  0.
         24    2    1    2    0    0 -0.65666075310E+02  0.53773356497E+02  0.84391987741E+02  0.14500238568E+03  0.81853997711E+02 0.  0.
        -11    1    5    5    0    0 -0.81022907804E+02  0.60446904633E+02  0.74256470671E+02  0.12542951529E+03  0.00000000000E+00 0.  1.
         12    1    5    5    0    0  0.15356832494E+02 -0.66735481354E+01  0.10135517070E+02  0.19572870388E+02  0.00000000000E+00 0. -1.
         13    1    3    3    0    0  0.72914634872E+02  0.38493012090E+02 -0.50000977545E+03  0.50676230276E+03  0.00000000000E+00 0. -1.
        -14    1    3    3    0    0  0.55159459602E+01 -0.11712480636E+02 -0.43436723230E+03  0.43456012283E+03  0.00000000000E+00 0.  1.
          5    1    4    4  501    0 -0.30786203073E+02  0.26295677879E+02 -0.85065149292E+02  0.94301670180E+02  0.41800000000E+01 0.  1.
         -5    1    4    4    0  501  0.18021697551E+02 -0.10684956583E+03 -0.25654812934E+03  0.27852473206E+03  0.41800000000E+01 0.  1.
</event>
<event>
11    1  0.8551154E-009  0.1594717E+03  0.7561462E-02  0.1087575E+00
         22   -1    0    0    0    0  0.00000000000E+00  0.00000000000E+00  0.11626712268E+04  0.11626712268E+04  0.00000000000E+00 0. -1.
         22   -1    0    0    0    0 -0.00000000000E+00 -0.00000000000E+00 -0.95104636053E+03  0.95104636053E+03  0.00000000000E+00 0. -1.
        -24    2    1    2    0    0  0.38968936413E+02  0.46586332891E+02 -0.91444160658E+03  0.91995721816E+03  0.80180839174E+02 0.  0.
         25    2    1    2    0    0 -0.12127273934E+03  0.53129197184E+01  0.23491060429E+03  0.29251456430E+03  0.12508586610E+03 0.  0.
         24    2    1    2    0    0  0.82303802931E+02 -0.51899252610E+02  0.89115586855E+03  0.90124580486E+03  0.92831946742E+02 0.  0.
        -11    1    5    5    0    0  0.52809852357E+01  0.25019833249E+02  0.18003795725E+03  0.18184484296E+03  0.00000000000E+00 0.  1.
         12    1    5    5    0    0  0.77022817695E+02 -0.76919085859E+02  0.71111791130E+03  0.71940096190E+03  0.00000000000E+00 0. -1.
         13    1    3    3    0    0  0.33448905455E+02  0.89666434334E+01 -0.76402234011E+03  0.76480675086E+03  0.00000000000E+00 0. -1.
        -14    1    3    3    0    0  0.55200309578E+01  0.37619689458E+02 -0.15041926647E+03  0.15515046730E+03  0.00000000000E+00 0.  1.
          5    1    4    4  501    0 -0.78711490173E+02 -0.22157135256E+02  0.40076315954E+02  0.91159315643E+02  0.41800000000E+01 0.  1.
         -5    1    4    4    0  501 -0.42561249171E+02  0.27470054975E+02  0.19483428833E+03  0.20135524866E+03  0.41800000000E+01 0.  1.
</event>
<event>
11    1  0.8551154E-009  0.1334828E+03  0.7561462E-02  0.1115062E+00
         22   -1    0    0    0    0  0.00000000000E+00  0.00000000000E+00  0.14628344352E+04  0.14628344352E+04  0.00000000000E+00 0. -1.
         22   -1    0    0    0    0 -0.00000000000E+00 -0.00000000000E+00 -0.56371459948E+03  0.56371459948E+03  0.00000000000E+00 0.  1.
        -24    2    1    2    0    0  0.21397366476E+02  0.14998192511E+02 -0.52480032397E+03  0.53153537077E+03  0.80197738529E+02 0.  0.
         25    2    1    2    0    0  0.13165772919E+02  0.17782710529E+02  0.84201840290E+02  0.15240403762E+03  0.12508988130E+03 0.  0.
         24    2    1    2    0    0 -0.34563139395E+02 -0.32780903040E+02  0.13397183194E+04  0.13426096263E+04  0.74069123543E+02 0.  0.
        -11    1    5    5    0    0 -0.48477608972E+02 -0.28813791106E+02  0.57596615341E+03  0.57872041868E+03  0.00000000000E+00 0.  1.
         12    1    5    5    0    0  0.13914469577E+02 -0.39671119337E+01  0.76375216602E+03  0.76388920763E+03  0.00000000000E+00 0. -1.
         13    1    3    3    0    0  0.47131626303E+02 -0.10085116979E+02 -0.28180335150E+03  0.28589548562E+03  0.00000000000E+00 0. -1.
        -14    1    3    3    0    0 -0.25734259827E+02  0.25083309490E+02 -0.24299697247E+03  0.24563988514E+03  0.00000000000E+00 0.  1.
          5    1    4    4  501    0 -0.27624772073E+02  0.51596188536E+02  0.79834154806E+02  0.99077037588E+02  0.41800000000E+01 0.  1.
         -5    1    4    4    0  501  0.40790544992E+02 -0.33813478007E+02  0.43676854836E+01  0.53327000030E+02  0.41800000000E+01 0.  1.
</event>
<event>
11    1  0.8551154E-009  0.1458066E+03  0.7561462E-02  0.1101242E+00
         22   -1    0    0    0    0  0.00000000000E+00  0.00000000000E+00  0.14618791031E+03  0.14618791031E+03  0.00000000000E+00 0. -1.
         22   -1    0    0    0    0 -0.00000000000E+00 -0.00000000000E+00 -0.21331641997E+04  0.21331641997E+04  0.00000000000E+00 0. -1.
         24    2    1    2    0    0 -0.52241606552E+02  0.59775256151E+02 -0.17813543997E+04  0.17849904842E+04  0.81641072484E+02 0.  0.
         25    2    1    2    0    0 -0.28274388651E+02 -0.67302519845E+02 -0.30887603654E+03  0.34115159269E+03  0.12510368906E+03 0.  0.
        -24    2    1    2    0    0  0.80515995203E+02  0.75272636945E+01  0.10325414685E+03  0.15321003309E+03  0.79198549334E+02 0.  0.
        -13    1    3    3    0    0 -0.30533360259E+02  0.22045274392E+02 -0.23296516778E+03  0.23598951165E+03  0.00000000000E+00 0.  1.
         14    1    3    3    0    0 -0.21708246293E+02  0.37729981759E+02 -0.15483892319E+04  0.15490009726E+04  0.00000000000E+00 0. -1.
         13    1    5    5    0    0  0.94279344353E+02  0.11961848519E+02  0.10081208306E+03  0.13854514312E+03  0.00000000000E+00 0. -1.
        -14    1    5    5    0    0 -0.13763349150E+02 -0.44345848246E+01  0.24420637925E+01  0.14664889974E+02  0.00000000000E+00 0.  1.
          5    1    4    4  501    0 -0.20571034035E+02 -0.54878568227E+01 -0.26245919416E+03  0.26335448546E+03  0.41800000000E+01 0. -1.
         -5    1    4    4    0  501 -0.77033546157E+01 -0.61814663022E+02 -0.46416842382E+02  0.77797107232E+02  0.41800000000E+01 0. -1.
</event>
<event>
11    1  0.8551154E-009  0.1307925E+03  0.7561462E-02  0.1118299E+00
         22   -1    0    0    0    0  0.00000000000E+00  0.00000000000E+00  0.25258591910E+04  0.25258591910E+04  0.00000000000E+00 0. -1.
         22   -1    0    0    0    0 -0.00000000000E+00 -0.00000000000E+00 -0.33926569413E+03  0.33926569413E+03  0.00000000000E+00 0. -1.
        -24    2    1    2    0    0 -0.37457704149E+02  0.64011396408E+01 -0.31772922270E+03  0.32977791615E+03  0.79734314034E+02 0.  0.
         25    2    1    2    0    0  0.51652964272E+02  0.19527073470E+02  0.30315651881E+03  0.33256869435E+03  0.12509486899E+03 0.  0.
         24    2    1    2    0    0 -0.14195260123E+02 -0.25928213110E+02  0.22011662008E+04  0.22027782746E+04  0.78903144341E+02 0.  0.
        -13    1    5    5    0    0 -0.18889607928E+02  0.16417575478E+02  0.27385338221E+03  0.27499459817E+03  0.00000000000E+00 0.  1.
         14    1    5    5    0    0  0.46943478047E+01 -0.42345788589E+02  0.19273128185E+04  0.19277836765E+04  0.00000000000E+00 0. -1.
         11    1    3    3    0    0 -0.51700295919E+02  0.25570827557E+02 -0.27347332116E+03  0.27948961556E+03  0.00000000000E+00 0. -1.
        -12    1    3    3    0    0  0.14242591770E+02 -0.19169687916E+02 -0.44255901539E+02  0.50288300589E+02  0.00000000000E+00 0.  1.
          5    1    4    4  501    0  0.41137929818E+02  0.54302410336E+02  0.28237425411E+03  0.29050606331E+03  0.41800000000E+01 0.  1.
         -5    1    4    4    0  501  0.10515034455E+02 -0.34775336866E+02  0.20782264709E+02  0.42062631042E+02  0.41800000000E+01 0.  1.
</event>
<event>
11    1  0.8551154E-009  0.1340635E+03  0.7561462E-02  0.1114375E+00
         22   -1    0    0    0    0  0.00000000000E+00  0.00000000000E+00  0.76382182936E+03  0.76382182936E+03  0.00000000000E+00 0. -1.
         22   -1    0    0    0    0 -0.00000000000E+00 -0.00000000000E+00 -0.15440261603E+04  0.15440261603E+04  0.00000000000E+00 0. -1.
         24    2    1    2    0    0 -0.38390198295E+02 -0.28798702848E+02 -0.15133240246E+04  0.15161696349E+04  0.79483241578E+02 0.  0.
         25    2    1    2    0    0  0.80405456029E+02  0.31681141276E+02  0.20028154015E+03  0.25145573241E+03  0.12509419638E+03 0.  0.
        -24    2    1    2    0    0 -0.42015257734E+02 -0.28824384277E+01  0.53283815354E+03  0.54022262235E+03  0.78424444509E+02 0.  0.
        -13    1    3    3    0    0 -0.60826072410E+00 -0.25320687505E+02 -0.13693024970E+03  0.13925300887E+03  0.00000000000E+00 0.  1.
         14    1    3    3    0    0 -0.37781937570E+02 -0.34780153432E+01 -0.13763937749E+04  0.13769166260E+04  0.00000000000E+00 0. -1.
         11    1    5    5    0    0 -0.46245248559E+02  0.19046966417E+02  0.48332179554E+03  0.48590263221E+03  0.00000000000E+00 0. -1.
        -12    1    5    5    0    0  0.42299908247E+01 -0.21929404845E+02  0.49516357999E+02  0.54319990139E+02  0.00000000000E+00 0.  1.
          5    1    4    4  501    0  0.10712910792E+03  0.31681344566E+02  0.19365544586E+03  0.22360737346E+03  0.41800000000E+01 0. -1.
         -5    1    4    4    0  501 -0.26723651893E+02 -0.20329000322E-03  0.66260942890E+01  0.27848358947E+02  0.41800000000E+01 0. -1.
</event>
<event>
11    1  0.8551154E-009  0.2547595E+03  0.7561462E-02  0.1021394E+00
         22   -1    0    0    0    0  0.00000000000E+00  0.00000000000E+00  0.31486754934E+03  0.31486754934E+03  0.00000000000E+00 0. -1.
         22   -1    0    0    0    0 -0.00000000000E+00 -0.00000000000E+00 -0.47329070560E+03  0.47329070560E+03  0.00000000000E+00 0. -1.
        -24    2    1    2    0    0  0.12527727452E+02  0.27844400900E+02 -0.24455383829E+03  0.26065950475E+03  0.84879579271E+02 0.  0.
         25    2    1    2    0    0  0.76389725681E+02  0.18613198519E+03 -0.56384853883E+02  0.24353061231E+03  0.12508957304E+03 0.  0.
         24    2    1    2    0    0 -0.88917453133E+02 -0.21397638609E+03  0.14251553592E+03  0.28396813788E+03  0.81455620296E+02 0.  0.
        -13    1    5    5    0    0 -0.34888103499E+01 -0.42931707350E+02 -0.37617882098E+01  0.43237187052E+02  0.00000000000E+00 0.  1.
         14    1    5    5    0    0 -0.85428642783E+02 -0.17104467874E+03  0.14627732413E+03  0.24073095083E+03  0.00000000000E+00 0. -1.
         13    1    3    3    0    0 -0.11491817086E+02  0.37530173743E+02 -0.46199542566E+02  0.60621559980E+02  0.00000000000E+00 0. -1.
        -14    1    3    3    0    0  0.24019544538E+02 -0.96857728432E+01 -0.19835429572E+03  0.20003794477E+03  0.00000000000E+00 0.  1.
          5    1    4    4  501    0  0.24061628284E+02  0.45585288929E+02  0.39850818103E+02  0.65288135414E+02  0.41800000000E+01 0. -1.
         -5    1    4    4    0  501  0.52328097397E+02  0.14054669626E+03 -0.96235671987E+02  0.17824247690E+03  0.41800000000E+01 0. -1.
</event>
<event>
11    1  0.8551154E-009  0.1415950E+03  0.7561462E-02  0.1105790E+00
         22   -1    0    0    0    0  0.00000000000E+00  0.00000000000E+00  0.13059988186E+04  0.13059988186E+04  0.00000000000E+00 0.  1.
         22   -1    0    0    0    0 -0.00000000000E+00 -0.00000000000E+00 -0.60428526871E+02  0.60428526871E+02  0.00000000000E+00 0.  1.
        -24    2    1    2    0    0  0.74144139474E+02  0.19036849037E+02  0.57060573162E+02  0.12466184853E+03  0.80155551457E+02 0.  0.
         25    2    1    2    0    0 -0.25327049165E+02 -0.55404800167E+02  0.17850144460E+03  0.22632142811E+03  0.12508985488E+03 0.  0.
         24    2    1    2    0    0 -0.48817090309E+02  0.36367951130E+02  0.10100082739E+04  0.10154440688E+04  0.85464655188E+02 0.  0.
        -11    1    5    5    0    0 -0.17218106873E+01 -0.17160739995E+02  0.51899330656E+03  0.51927979730E+03  0.00000000000E+00 0.  1.
         12    1    5    5    0    0 -0.47095279622E+02  0.53528691125E+02  0.49101496736E+03  0.49616427149E+03  0.00000000000E+00 0. -1.
         11    1    3    3    0    0 -0.34982117705E+01 -0.10707822288E+02  0.37625566035E+02  0.39275668844E+02  0.00000000000E+00 0. -1.
        -12    1    3    3    0    0  0.77642351244E+02  0.29744671325E+02  0.19435007127E+02  0.85386179684E+02  0.00000000000E+00 0.  1.
          5    1    4    4  501    0 -0.11506465381E+02 -0.91876832436E+02  0.88547907806E+02  0.12818718914E+03  0.41800000000E+01 0.  1.
         -5    1    4    4    0  501 -0.13820583784E+02  0.36472032269E+02  0.89953536797E+02  0.98134238960E+02  0.41800000000E+01 0.  1.
</event>
<event>
11    1  0.8551154E-009  0.1363389E+03  0.7561462E-02  0.1111717E+00
         22   -1    0    0    0    0  0.00000000000E+00  0.00000000000E+00  0.14216965457E+04  0.14216965457E+04  0.00000000000E+00 0.  1.
         22   -1    0    0    0    0 -0.00000000000E+00 -0.00000000000E+00 -0.54909973171E+03  0.54909973171E+03  0.00000000000E+00 0. -1.
        -24    2    1    2    0    0  0.40796214477E+02  0.14545605005E+02 -0.52525170955E+03  0.53227402414E+03  0.74500823163E+02 0.  0.
         25    2    1    2    0    0 -0.90702286768E+02 -0.10650882069E+02  0.31116271849E+03  0.34757732817E+03  0.12508963014E+03 0.  0.
         24    2    1    2    0    0  0.49906072291E+02 -0.38947229358E+01  0.10866858051E+04  0.10909449251E+04  0.82273967944E+02 0.  0.
        -11    1    5    5    0    0  0.21041577797E+02 -0.17340346720E+02  0.95765619428E+03  0.95804426936E+03  0.00000000000E+00 0.  1.
         12    1    5    5    0    0  0.28864494494E+02  0.13445623785E+02  0.12902961080E+03  0.13290065577E+03  0.00000000000E+00 0. -1.
         13    1    3    3    0    0 -0.16815235942E+02 -0.44438052302E+01 -0.24074386507E+03  0.24137130760E+03  0.00000000000E+00 0. -1.
        -14    1    3    3    0    0  0.57611450419E+02  0.18989410235E+02 -0.28450784448E+03  0.29090271654E+03  0.00000000000E+00 0.  1.
          5    1    4    4  501    0 -0.90798414327E+02 -0.31503120357E+02  0.11354185363E+03  0.14881540095E+03  0.41800000000E+01 0.  1.
         -5    1    4    4    0  501  0.96127558846E-01  0.20852238287E+02  0.19762086486E+03  0.19876192721E+03  0.41800000000E+01 0.  1.
</event>
<event>
11    1  0.8551154E-009  0.1312060E+03  0.7561462E-02  0.1117796E+00
         22   -1    0    0    0    0  0.00000000000E+00  0.00000000000E+00  0.19308652334E+03  0.19308652334E+03  0.00000000000E+00 0. -1.
         22   -1    0    0    0    0 -0.00000000000E+00 -0.00000000000E+00 -0.17528923494E+04  0.17528923494E+04  0.00000000000E+00 0. -1.
         24    2    1    2    0    0 -0.46088857588E+01  0.13456349699E+02 -0.16853124307E+04  0.16873260926E+04  0.81172892877E+02 0.  0.
         25    2    1    2    0    0 -0.28391039006E+02  0.15044965627E+02  0.49431985505E+02  0.13828800442E+03  0.12509056275E+03 0.  0.
        -24    2    1    2    0    0  0.32999924765E+02 -0.28501315327E+02  0.76074619062E+02  0.12036477580E+03  0.82456119100E+02 0.  0.
        -13    1    3    3    0    0  0.35812261747E+02  0.85776157629E+01 -0.51983203218E+03  0.52113475730E+03  0.00000000000E+00 0.  1.
         14    1    3    3    0    0 -0.40421147506E+02  0.48787339365E+01 -0.11654803985E+04  0.11661913353E+04  0.00000000000E+00 0. -1.
         11    1    5    5    0    0 -0.32846334881E+01 -0.50600956102E+02  0.43919784270E+02  0.67083478040E+02  0.00000000000E+00 0. -1.
        -12    1    5    5    0    0  0.36284558253E+02  0.22099640776E+02  0.32154834792E+02  0.53281297756E+02  0.00000000000E+00 0.  1.
          5    1    4    4  501    0  0.31970311448E+02 -0.32486069229E+02  0.39969425952E+02  0.60765721579E+02  0.41800000000E+01 0.  1.
         -5    1    4    4    0  501 -0.60361350454E+02  0.47531034856E+02  0.94625595525E+01  0.77522282838E+02  0.41800000000E+01 0.  1.
</event>
<event>
11    1  0.8551154E-009  0.1716440E+03  0.7561462E-02  0.1076610E+00
         22   -1    0    0    0    0  0.00000000000E+00  0.00000000000E+00  0.96094848714E+03  0.96094848714E+03  0.00000000000E+00 0.  1.
         22   -1    0    0    0    0 -0.00000000000E+00 -0.00000000000E+00 -0.21053630889E+04  0.21053630889E+04  0.00000000000E+00 0. -1.
        -24    2    1    2    0    0  0.30970382332E+02  0.32982434160E+02 -0.20213964544E+04  0.20234718866E+04  0.79673360072E+02 0.  0.
         25    2    1    2    0    0 -0.65331347844E+02  0.81070433809E+02  0.89572674197E+01  0.16299637476E+03  0.12508791027E+03 0.  0.
         24    2    1    2    0    0  0.34360965512E+02 -0.11405286797E+03  0.86802458529E+03  0.87984331466E+03  0.80429130495E+02 0.  0.
        -13    1    5    5    0    0  0.11698613950E+02 -0.11896534855E+03  0.76136981395E+03  0.77069683101E+03  0.00000000000E+00 0.  1.
         14    1    5    5    0    0  0.22662351562E+02  0.49124805850E+01  0.10665477134E+03  0.10914648365E+03  0.00000000000E+00 0. -1.
         13    1    3    3    0    0  0.45196562425E+02  0.48987325207E+02 -0.17331404426E+04  0.17344215984E+04  0.00000000000E+00 0. -1.
        -14    1    3    3    0    0 -0.14226180093E+02 -0.16004891047E+02 -0.28825601183E+03  0.28905028817E+03  0.00000000000E+00 0.  1.
          5    1    4    4  501    0 -0.73567702286E+02  0.47530751906E+01 -0.26352025692E+02  0.78400894137E+02  0.41800000000E+01 0.  1.
         -5    1    4    4    0  501  0.82363544422E+01  0.76317358619E+02  0.35309293111E+02  0.84595480618E+02  0.41800000000E+01 0.  1.
</event>
<event>
11    1  0.8551154E-009  0.1322922E+03  0.7561462E-02  0.1116484E+00
         22   -1    0    0    0    0  0.00000000000E+00  0.00000000000E+00  0.91400239995E+03  0.91400239995E+03  0.00000000000E+00 0. -1.
         22   -1    0    0    0    0 -0.00000000000E+00 -0.00000000000E+00 -0.61189138888E+03  0.61189138888E+03  0.00000000000E+00 0.  1.
        -24    2    1    2    0    0  0.45872356104E+01  0.54672224086E+01 -0.50434587647E+03  0.51025830575E+03  0.77122255041E+02 0.  0.
         25    2    1    2    0    0 -0.24601810627E+01  0.37642236959E+02 -0.60326821592E+02  0.14391718450E+03  0.12509932093E+03 0.  0.
         24    2    1    2    0    0 -0.21270545476E+01 -0.43109459367E+02  0.86678370913E+03  0.87171829859E+03  0.81950252193E+02 0.  0.
        -11    1    5    5    0    0 -0.10176970713E+02  0.23259016304E+02  0.27537011144E+03  0.27653797361E+03  0.00000000000E+00 0.  1.
         12    1    5    5    0    0  0.80499161651E+01 -0.66368475672E+02  0.59141359769E+03  0.59518032498E+03  0.00000000000E+00 0. -1.
         11    1    3    3    0    0  0.20747019101E+02 -0.17107684919E+02 -0.69405255108E+02  0.74432527308E+02  0.00000000000E+00 0. -1.
        -12    1    3    3    0    0 -0.16159783491E+02  0.22574907327E+02 -0.43494062136E+03  0.43582577844E+03  0.00000000000E+00 0.  1.
          5    1    4    4  501    0  0.29449251635E+02 -0.35144650359E+02 -0.41842587642E+02  0.62214784508E+02  0.41800000000E+01 0.  1.
         -5    1    4    4    0  501 -0.31909432698E+02  0.72786887318E+02 -0.18484233950E+02  0.81702399997E+02  0.41800000000E+01 0.  1.
</event>
<event>
11    1  0.8551154E-009  0.1383785E+03  0.7561462E-02  0.1109383E+00
         22   -1    0    0    0    0  0.00000000000E+00  0.00000000000E+00  0.32712857863E+03  0.32712857863E+03  0.00000000000E+00 0. -1.
         22   -1    0    0    0    0 -0.00000000000E+00 -0.00000000000E+00 -0.47220674835E+03  0.47220674835E+03  0.00000000000E+00 0. -1.
         24    2    1    2    0    0  0.18451373243E+02  0.54390842007E+02 -0.39512157794E+03  0.40730612139E+03  0.80488497918E+02 0.  0.
         25    2    1    2    0    0  0.66501494568E-01 -0.91061557304E+02  0.34908635003E+02  0.15861550681E+03  0.12509218426E+03 0.  0.
        -24    2    1    2    0    0 -0.18517874738E+02  0.36670715297E+02  0.21513477322E+03  0.23341369878E+03  0.80692819298E+02 0.  0.
        -11    1    3    3    0    0  0.32064083935E+02  0.22371087401E+02 -0.68783656882E+02  0.79118660784E+02  0.00000000000E+00 0.  1.
         12    1    3    3    0    0 -0.13612710691E+02  0.32019754606E+02 -0.32633792106E+03  0.32818746060E+03  0.00000000000E+00 0. -1.
         11    1    5    5    0    0 -0.40556201744E+02  0.43026064175E+02  0.19174570227E+03  0.20065508226E+03  0.00000000000E+00 0. -1.
        -12    1    5    5    0    0  0.22038327006E+02 -0.63553488778E+01  0.23389070951E+02  0.32758616524E+02  0.00000000000E+00 0.  1.
          5    1    4    4  501    0  0.45955109468E+01 -0.11141809905E+03 -0.67986821191E+01  0.11179805900E+03  0.41800000000E+01 0. -1.
         -5    1    4    4    0  501 -0.45290094522E+01  0.20356541747E+02  0.41707317122E+02  0.46817447817E+02  0.41800000000E+01 0. -1.
</event>
<event>
11    1  0.8551154E-009  0.1427878E+03  0.7561462E-02  0.1104485E+00
         22   -1    0    0    0    0  0.00000000000E+00  0.00000000000E+00  0.99061697790E+02  0.99061697790E+02  0.00000000000E+00 0. -1.
         22   -1    0    0    0    0 -0.00000000000E+00 -0.00000000000E+00 -0.29043018556E+04  0.29043018556E+04  0.00000000000E+00 0. -1.
        -24    2    1    2    0    0  0.21918157018E+02  0.59708193390E+02 -0.25589913262E+04  0.25610303254E+04  0.79964029168E+02 0.  0.
         25    2    1    2    0    0 -0.82976133911E+02 -0.26320094156E+02 -0.28049510091E+03  0.31922177732E+03  0.12508898962E+03 0.  0.
         24    2    1    2    0    0  0.61057976893E+02 -0.33388099235E+02  0.34246269256E+02  0.12311145074E+03  0.95607429800E+02 0.  0.
        -13    1    5    5    0    0  0.40211950253E+02 -0.41308359850E+02 -0.22698111184E+02  0.61956321615E+02  0.00000000000E+00 0.  1.
         14    1    5    5    0    0  0.20846026639E+02  0.79202606151E+01  0.56944380440E+02  0.61155129127E+02  0.00000000000E+00 0. -1.
         11    1    3    3    0    0  0.20807193133E+02  0.59110795960E+02 -0.25590017035E+04  0.25597688849E+04  0.00000000000E+00 0. -1.
        -12    1    3    3    0    0  0.11109638854E+01  0.59739743044E+00  0.10377296095E-01  0.12614404991E+01  0.00000000000E+00 0.  1.
          5    1    4    4  501    0  0.25313803575E+02  0.12796333483E+02 -0.21758051074E+02  0.35991943384E+02  0.41800000000E+01 0.  1.
         -5    1    4    4    0  501 -0.10828993749E+03 -0.39116427639E+02 -0.25873704984E+03  0.28322983394E+03  0.41800000000E+01 0.  1.
</event>
<event>
11    1  0.8551154E-009  0.1492636E+03  0.7561462E-02  0.1097634E+00
         22   -1    0    0    0    0  0.00000000000E+00  0.00000000000E+00  0.98483322244E+03  0.98483322244E+03  0.00000000000E+00 0.  1.
         22   -1    0    0    0    0 -0.00000000000E+00 -0.00000000000E+00 -0.32466113968E+03  0.32466113968E+03  0.00000000000E+00 0. -1.
         24    2    1    2    0    0  0.11119040739E+02 -0.31209753391E+01 -0.22572518242E+03  0.24025420874E+03  0.81466884566E+02 0.  0.
         25    2    1    2    0    0 -0.68592620080E+02 -0.54261709226E+02 -0.21972583744E+02  0.15420624953E+03  0.12508993701E+03 0.  0.
        -24    2    1    2    0    0  0.57473579341E+02  0.57382684565E+02  0.90786984893E+03  0.91503390386E+03  0.80395259812E+02 0.  0.
        -13    1    3    3    0    0  0.16651254075E+02 -0.31948615035E+02 -0.47444366552E+02  0.59573032342E+02  0.00000000000E+00 0.  1.
         14    1    3    3    0    0 -0.55322133359E+01  0.28827639696E+02 -0.17828081587E+03  0.18068117639E+03  0.00000000000E+00 0. -1.
         11    1    5    5    0    0  0.51715960318E+02  0.67106882455E+02  0.50890799990E+03  0.51591203377E+03  0.00000000000E+00 0. -1.
        -12    1    5    5    0    0  0.57576190229E+01 -0.97241978894E+01  0.39896184903E+03  0.39912187008E+03  0.00000000000E+00 0.  1.
          5    1    4    4  501    0 -0.99761739073E+02 -0.30533700849E+02 -0.38770150316E+02  0.11137912024E+03  0.41800000000E+01 0. -1.
         -5    1    4    4    0  501  0.31169118993E+02 -0.23728008377E+02  0.16797566572E+02  0.42827129288E+02  0.41800000000E+01 0. -1.
</event>
<event>
11    1  0.8551154E-009  0.1313627E+03  0.7561462E-02  0.1117606E+00
         22   -1    0    0    0    0  0.00000000000E+00  0.00000000000E+00  0.10341375781E+04  0.10341375781E+04  0.00000000000E+00 0. -1.
         22   -1    0    0    0    0 -0.00000000000E+00 -0.00000000000E+00 -0.12869131505E+03  0.12869131505E+03  0.00000000000E+00 0.  1.
         24    2    1    2    0    0 -0.31375920766E+01  0.24985524012E+02 -0.94431191020E+02  0.12572783470E+03  0.79095623693E+02 0.  0.
         25    2    1    2    0    0 -0.33696988604E+02 -0.37871419973E+02  0.27803491088E+03  0.30906342302E+03  0.12508819404E+03 0.  0.
        -24    2    1    2    0    0  0.36834580681E+02  0.12885895961E+02  0.72184254317E+03  0.72803763541E+03  0.86367290078E+02 0.  0.
        -13    1    3    3    0    0 -0.36019443301E+02  0.14207424990E+02 -0.78714861205E+02  0.87722748447E+02  0.00000000000E+00 0.  1.
         14    1    3    3    0    0  0.32881851224E+02  0.10778099022E+02 -0.15716329815E+02  0.38005086256E+02  0.00000000000E+00 0. -1.
         11    1    5    5    0    0 -0.22938427874E+02 -0.13972091133E+02  0.29145569951E+03  0.29269064826E+03  0.00000000000E+00 0. -1.
        -12    1    5    5    0    0  0.59773008555E+02  0.26857987094E+02  0.43038684366E+03  0.43534698715E+03  0.00000000000E+00 0.  1.
          5    1    4    4  501    0 -0.37540716700E+02  0.41077880893E+02  0.11297791902E+03  0.12600865167E+03  0.41800000000E+01 0. -1.
         -5    1    4    4    0  501  0.38437280959E+01 -0.78949300866E+02  0.16505699186E+03  0.18305477135E+03  0.41800000000E+01 0. -1.
</event>
<event>
11    1  0.8551154E-009  0.1332823E+03  0.7561462E-02  0.1115301E+00
         22   -1    0    0    0    0  0.00000000000E+00  0.00000000000E+00  0.27649609710E+03  0.27649609710E+03  0.00000000000E+00 0. -1.
         22   -1    0    0    0    0 -0.00000000000E+00 -0.00000000000E+00 -0.71994654631E+03  0.71994654631E+03  0.00000000000E+00 0.  1.
         24    2    1    2    0    0 -0.17421249000E+02 -0.20085822497E+02 -0.62700594245E+03  0.63224587871E+03  0.76755840753E+02 0.  0.
         25    2    1    2    0    0  0.47739120914E+02 -0.14962456296E+02 -0.23712433044E+02  0.13679258832E+03  0.12508810484E+03 0.  0.
        -24    2    1    2    0    0 -0.30317871914E+02  0.35048278793E+02  0.20726792629E+03  0.22740417638E+03  0.81271833755E+02 0.  0.
        -13    1    3    3    0    0 -0.46922807061E+02 -0.57774751768E+01 -0.42111378322E+03  0.42375930368E+03  0.00000000000E+00 0.  1.
         14    1    3    3    0    0  0.29501558061E+02 -0.14308347320E+02 -0.20589215924E+03  0.20848657503E+03  0.00000000000E+00 0. -1.
         11    1    5    5    0    0 -0.26992061743E+02  0.50854619559E+02  0.77030435749E+02  0.96168871051E+02  0.00000000000E+00 0. -1.
        -12    1    5    5    0    0 -0.33258101704E+01 -0.15806340765E+02  0.13023749055E+03  0.13123530533E+03  0.00000000000E+00 0.  1.
          5    1    4    4  501    0  0.41897419153E+02 -0.62304747574E+02  0.13180498845E+02  0.76344438251E+02  0.41800000000E+01 0.  1.
         -5    1    4    4    0  501  0.58417017605E+01  0.47342291278E+02 -0.36892931889E+02  0.60448150065E+02  0.41800000000E+01 0.  1.
</event>
<event>
11    1  0.8551154E-009  0.1397967E+03  0.7561462E-02  0.1107786E+00
         22   -1    0    0    0    0  0.00000000000E+00  0.00000000000E+00  0.21353965717E+04  0.21353965717E+04  0.00000000000E+00 0. -1.
         22   -1    0    0    0    0 -0.00000000000E+00 -0.00000000000E+00 -0.10864421368E+04  0.10864421368E+04  0.00000000000E+00 0. -1.
         24    2    1    2    0    0 -0.25765942333E+02 -0.55386261411E+02 -0.96505781775E+03  0.97034549349E+03  0.80636613292E+02 0.  0.
         25    2    1    2    0    0  0.51840988243E+02  0.73860111991E+02 -0.67325037572E+02  0.16827299228E+03  0.12506132512E+03 0.  0.
        -24    2    1    2    0    0 -0.26075045910E+02 -0.18473850580E+02  0.20813372902E+04  0.20832202228E+04  0.82585651357E+02 0.  0.
        -11    1    3    3    0    0 -0.15138819855E+02 -0.76206941922E+02 -0.75866831233E+03  0.76263640747E+03  0.00000000000E+00 0.  1.
         12    1    3    3    0    0 -0.10627122478E+02  0.20820680511E+02 -0.20638950541E+03  0.20770908602E+03  0.00000000000E+00 0. -1.
         11    1    5    5    0    0 -0.38205029324E+00  0.31941759001E+02  0.77428446332E+03  0.77494312828E+03  0.00000000000E+00 0. -1.
        -12    1    5    5    0    0 -0.25692995617E+02 -0.50415609580E+02  0.13070528269E+04  0.13082770945E+04  0.00000000000E+00 0.  1.
          5    1    4    4  501    0 -0.27751617287E+02 -0.47137005215E+00 -0.50805659855E+02  0.58043620882E+02  0.41800000000E+01 0. -1.
         -5    1    4    4    0  501  0.79592605530E+02  0.74331482043E+02 -0.16519377717E+02  0.11022937139E+03  0.41800000000E+01 0. -1.
</event>
<event>
11    1  0.8551154E-009  0.1785971E+03  0.7561462E-02  0.1070783E+00
         22   -1    0    0    0    0  0.00000000000E+00  0.00000000000E+00  0.60994971611E+03  0.60994971611E+03  0.00000000000E+00 0.  1.
         22   -1    0    0    0    0 -0.00000000000E+00 -0.00000000000E+00 -0.85051286032E+03  0.85051286032E+03  0.00000000000E+00 0. -1.
         24    2    1    2    0    0 -0.12445528179E+03  0.13393418097E+02 -0.77319222898E+03  0.78737648878E+03  0.80417730124E+02 0.  0.
         25    2    1    2    0    0  0.20177791799E+03 -0.49016849769E+02  0.18187345106E+03  0.30305681943E+03  0.12509398009E+03 0.  0.
        -24    2    1    2    0    0 -0.77322636198E+02  0.35623431672E+02  0.35075563371E+03  0.37002926821E+03  0.81512733966E+02 0.  0.
        -13    1    3    3    0    0 -0.42388838035E+02 -0.83111970694E+01 -0.10105507821E+03  0.10990003830E+03  0.00000000000E+00 0.  1.
         14    1    3    3    0    0 -0.82066443754E+02  0.21704615166E+02 -0.67213715077E+03  0.67747645048E+03  0.00000000000E+00 0. -1.
         13    1    5    5    0    0 -0.17753147966E+02 -0.19588163096E+02  0.16760522150E+03  0.16967728390E+03  0.00000000000E+00 0. -1.
        -14    1    5    5    0    0 -0.59569488232E+02  0.55211594768E+02  0.18315041221E+03  0.20035198431E+03  0.00000000000E+00 0.  1.
          5    1    4    4  501    0  0.12523704969E+03 -0.71409312855E+02  0.16898577568E+03  0.22216496880E+03  0.41800000000E+01 0.  1.
         -5    1    4    4    0  501  0.76540868298E+02  0.22392463086E+02  0.12887675379E+02  0.80891850637E+02  0.41800000000E+01 0.  1.
</event>
<event>
11    1  0.8551154E-009  0.1465907E+03  0.7561462E-02  0.1100414E+00
         22   -1    0    0    0    0  0.00000000000E+00  0.00000000000E+00  0.41513157535E+03  0.41513157535E+03  0.00000000000E+00 0. -1.
         22   -1    0    0    0    0 -0.00000000000E+00 -0.00000000000E+00 -0.79502265705E+03  0.79502265705E+03  0.00000000000E+00 0. -1.
         24    2    1    2    0    0  0.15633681248E+02 -0.23521946922E+02 -0.75109863892E+03  0.75591026382E+03  0.80333477392E+02 0.  0.
         25    2    1    2    0    0 -0.86279104630E+02  0.23462514944E+02  0.18927765988E+03  0.24386294469E+03  0.12509408364E+03 0.  0.
        -24    2    1    2    0    0  0.70645423382E+02  0.59431978065E-01  0.18192989734E+03  0.21038102388E+03  0.78555128955E+02 0.  0.
        -13    1    3    3    0    0 -0.70349935727E+01 -0.84675716635E+01 -0.11900840775E+02  0.16211752391E+02  0.00000000000E+00 0.  1.
         14    1    3    3    0    0  0.22668674821E+02 -0.15054375258E+02 -0.73919779814E+03  0.73969851143E+03  0.00000000000E+00 0. -1.
         13    1    5    5    0    0  0.56651904505E+02 -0.23264238874E+02  0.61032487764E+02  0.86461712088E+02  0.00000000000E+00 0. -1.
        -14    1    5    5    0    0  0.13993518877E+02  0.23323670852E+02  0.12089740958E+03  0.12391931179E+03  0.00000000000E+00 0.  1.
          5    1    4    4  501    0 -0.95818179702E+02  0.50252378877E+02  0.18561436322E+03  0.21488738766E+03  0.41800000000E+01 0.  1.
         -5    1    4    4    0  501  0.95390750712E+01 -0.26789863934E+02  0.36632966652E+01  0.28975557031E+02  0.41800000000E+01 0.  1.
</event>
<event>
11    1  0.8551154E-009  0.4557948E+03  0.7561462E-02  0.9498114E-01
         22   -1    0    0    0    0  0.00000000000E+00  0.00000000000E+00  0.21920410463E+04  0.21920410463E+04  0.00000000000E+00 0.  1.
         22   -1    0    0    0    0 -0.00000000000E+00 -0.00000000000E+00 -0.85645529802E+03  0.85645529802E+03  0.00000000000E+00 0.  1.
        -24    2    1    2    0    0  0.35573240351E+03 -0.23527565966E+03 -0.65921374032E+03  0.78924449430E+03  0.80274139241E+02 0.  0.
         25    2    1    2    0    0 -0.63325207033E+03  0.36048808052E+03  0.15062691142E+04  0.16779315547E+04  0.12509123580E+03 0.  0.
         24    2    1    2    0    0  0.27751966682E+03 -0.12521242085E+03  0.48853037436E+03  0.58132029523E+03  0.81092805871E+02 0.  0.
        -13    1    5    5    0    0  0.28018952880E+03 -0.11737593619E+03  0.45725388096E+03  0.54896666028E+03  0.00000000000E+00 0.  1.
         14    1    5    5    0    0 -0.26698619823E+01 -0.78364846646E+01  0.31276493402E+02  0.32353634950E+02  0.00000000000E+00 0. -1.
         13    1    3    3    0    0  0.92499701541E+02 -0.67259615487E+02 -0.24612957828E+03  0.27140342659E+03  0.00000000000E+00 0. -1.
        -14    1    3    3    0    0  0.26323270197E+03 -0.16801604418E+03 -0.41308416204E+03  0.51784106772E+03  0.00000000000E+00 0.  1.
          5    1    4    4  501    0 -0.33304804289E+03  0.19553100343E+03  0.65607976972E+03  0.76132221090E+03  0.41800000000E+01 0.  1.
         -5    1    4    4    0  501 -0.30020402744E+03  0.16495707709E+03  0.85018934447E+03  0.91660934385E+03  0.41800000000E+01 0.  1.
</event>
<event>
11    1  0.8551154E-009  0.1402156E+03  0.7561462E-02  0.1107318E+00
         22   -1    0    0    0    0  0.00000000000E+00  0.00000000000E+00  0.21769483785E+03  0.21769483785E+03  0.00000000000E+00 0.  1.
         22   -1    0    0    0    0 -0.00000000000E+00 -0.00000000000E+00 -0.79729091274E+03  0.79729091274E+03  0.00000000000E+00 0. -1.
        -24    2    1    2    0    0  0.41529572297E+01 -0.64060200052E+02 -0.73752782283E+03  0.74522902664E+03  0.85428662733E+02 0.  0.
         25    2    1    2    0    0 -0.40911393895E+01  0.38831933736E+02  0.72625695158E+02  0.14982014898E+03  0.12508768502E+03 0.  0.
         24    2    1    2    0    0 -0.61817840253E-01  0.25228266315E+02  0.85306052775E+02  0.11993657497E+03  0.80443707851E+02 0.  0.
        -11    1    5    5    0    0 -0.26227862244E+02 -0.18959822714E+02  0.26214338997E+02  0.41648135664E+02  0.00000000000E+00 0.  1.
         12    1    5    5    0    0  0.26166044404E+02  0.44188089029E+02  0.59091713778E+02  0.78288439307E+02  0.00000000000E+00 0. -1.
         11    1    3    3    0    0  0.25189132304E+01 -0.64558127504E+02 -0.73967163752E+03  0.74248786394E+03  0.00000000000E+00 0. -1.
        -12    1    3    3    0    0  0.16340439993E+01  0.49792745181E+00  0.21438146878E+01  0.27411627012E+01  0.00000000000E+00 0.  1.
          5    1    4    4  501    0  0.72661720317E+01 -0.42578377510E+02  0.57583512975E+01  0.43776095041E+02  0.41800000000E+01 0.  1.
         -5    1    4    4    0  501 -0.11357311421E+02  0.81410311247E+02  0.66867343861E+02  0.10604405394E+03  0.41800000000E+01 0.  1.
</event>
<event>
11    1  0.8551154E-009  0.1393733E+03  0.7561462E-02  0.1108260E+00
         22   -1    0    0    0    0  0.00000000000E+00  0.00000000000E+00  0.95292980573E+03  0.95292980573E+03  0.00000000000E+00 0. -1.
         22   -1    0    0    0    0 -0.00000000000E+00 -0.00000000000E+00 -0.50262364484E+03  0.50262364484E+03  0.00000000000E+00 0.  1.
        -24    2    1    2    0    0  0.59874442656E+02  0.92380302024E+01 -0.46528504064E+03  0.47599587578E+03  0.80072558542E+02 0.  0.
         25    2    1    2    0    0 -0.42323578996E+02 -0.68720866984E+02  0.16524634360E+03  0.22240509337E+03  0.12507529166E+03 0.  0.
         24    2    1    2    0    0 -0.17550863660E+02  0.59482836781E+02  0.75034485794E+03  0.75715248142E+03  0.80101395764E+02 0.  0.
        -13    1    5    5    0    0 -0.19435929842E+02  0.42434445094E+02  0.16282917262E+03  0.16938647217E+03  0.00000000000E+00 0.  1.
         14    1    5    5    0    0  0.18850661828E+01  0.17048391687E+02  0.58751568532E+03  0.58776600925E+03  0.00000000000E+00 0. -1.
         11    1    3    3    0    0  0.17507699159E+02 -0.68277071311E+01 -0.16735934911E+02  0.25164034491E+02  0.00000000000E+00 0. -1.
        -12    1    3    3    0    0  0.42366743497E+02  0.16065737333E+02 -0.44854910573E+03  0.45083184129E+03  0.00000000000E+00 0.  1.
          5    1    4    4  501    0 -0.31983349988E+02 -0.53985805964E+02  0.18497496956E+03  0.19537301166E+03  0.41800000000E+01 0.  1.
         -5    1    4    4    0  501 -0.10340229009E+02 -0.14735061020E+02 -0.19728625957E+02  0.27032081706E+02  0.41800000000E+01 0.  1.
</event>
<event>
11    1  0.8551154E-009  0.1540140E+03  0.7561462E-02  0.1092846E+00
         22   -1    0    0    0    0  0.00000000000E+00  0.00000000000E+00  0.87436913169E+02  0.87436913169E+02  0.00000000000E+00 0.  1.
         22   -1    0    0    0    0 -0.00000000000E+00 -0.00000000000E+00 -0.69304811588E+03  0.69304811588E+03  0.00000000000E+00 0.  1.
        -24    2    1    2    0    0 -0.97051799317E+02  0.40589756373E+01 -0.45844000732E+03  0.47536512692E+03  0.79807496844E+02 0.  0.
         25    2    1    2    0    0  0.63636589184E+02  0.39026281267E+02 -0.14737784090E+03  0.20722034070E+03  0.12508946998E+03 0.  0.
         24    2    1    2    0    0  0.33415210133E+02 -0.43085256904E+02  0.20664550018E+00  0.97899561431E+02  0.81310305590E+02 0.  0.
        -13    1    5    5    0    0 -0.21794009034E+02 -0.91218422884E+01  0.19101991908E+02  0.30382115320E+02  0.00000000000E+00 0.  1.
         14    1    5    5    0    0  0.55209219167E+02 -0.33963414616E+02 -0.18895346407E+02  0.67517446110E+02  0.00000000000E+00 0. -1.
         13    1    3    3    0    0 -0.10521898609E+02  0.12718499680E+02 -0.11682263327E+02  0.20222409869E+02  0.00000000000E+00 0. -1.
        -14    1    3    3    0    0 -0.86529900708E+02 -0.86595240430E+01 -0.44675774399E+03  0.45514271705E+03  0.00000000000E+00 0.  1.
          5    1    4    4  501    0  0.90260789575E+02  0.25372601090E+02 -0.52263438665E+02  0.10742308151E+03  0.41800000000E+01 0. -1.
         -5    1    4    4    0  501 -0.26624200391E+02  0.13653680177E+02 -0.95114402234E+02  0.99797259187E+02  0.41800000000E+01 0. -1.
</event>
<event>
11    1  0.8551154E-009  0.1403740E+03  0.7561462E-02  0.1107141E+00
         22   -1    0    0    0    0  0.00000000000E+00  0.00000000000E+00  0.60505809669E+03  0.60505809669E+03  0.00000000000E+00 0. -1.
         22   -1    0    0    0    0 -0.00000000000E+00 -0.00000000000E+00 -0.25284077545E+03  0.25284077545E+03  0.00000000000E+00 0. -1.
         24    2    1    2    0    0  0.33514586491E+02  0.57092377316E+02 -0.17605389553E+03  0.20933652109E+03  0.91891446164E+02 0.  0.
         25    2    1    2    0    0  0.17694585722E+02 -0.65040293681E+02  0.35433689518E+02  0.14644898207E+03  0.12509364425E+03 0.  0.
        -24    2    1    2    0    0 -0.51209172213E+02  0.79479163650E+01  0.49283752725E+03  0.50211336898E+03  0.80891645737E+02 0.  0.
        -13    1    3    3    0    0  0.59127970546E+02  0.15595423373E+02 -0.72287886354E+02  0.94683011384E+02  0.00000000000E+00 0.  1.
         14    1    3    3    0    0 -0.25613384055E+02  0.41496953942E+02 -0.10376600917E+03  0.11465350971E+03  0.00000000000E+00 0. -1.
         11    1    5    5    0    0 -0.55851926394E+02  0.31251000704E+02  0.24798280838E+03  0.25610844574E+03  0.00000000000E+00 0. -1.
        -12    1    5    5    0    0  0.46427541807E+01 -0.23303084339E+02  0.24485471887E+03  0.24600492324E+03  0.00000000000E+00 0.  1.
          5    1    4    4  501    0  0.67370525099E+01 -0.50497260176E+02 -0.42395142788E+02  0.66409198864E+02  0.41800000000E+01 0.  1.
         -5    1    4    4    0  501  0.10957533212E+02 -0.14543033505E+02  0.77828832306E+02  0.80039783206E+02  0.41800000000E+01 0.  1.
</event>
<event>
11    1  0.8551154E-009  0.1502521E+03  0.7561462E-02  0.1096621E+00
         22   -1    0    0    0    0  0.00000000000E+00  0.00000000000E+00  0.87672684018E+03  0.87672684018E+03  0.00000000000E+00 0.  1.
         22   -1    0    0    0    0 -0.00000000000E+00 -0.00000000000E+00 -0.44037297111E+03  0.44037297111E+03  0.00000000000E+00 0.  1.
         24    2    1    2    0    0 -0.40887298340E+02  0.61610894335E+01 -0.39168747809E+03  0.40275588886E+03  0.84163503543E+02 0.  0.
         25    2    1    2    0    0  0.25305690371E+02  0.76989810610E+02  0.10612148276E+03  0.18297436583E+03  0.12510012208E+03 0.  0.
        -24    2    1    2    0    0  0.15581607969E+02 -0.83150900044E+02  0.72191986439E+03  0.73136955661E+03  0.81094260194E+02 0.  0.
        -13    1    3    3    0    0 -0.26460309703E+02 -0.22251631617E+02 -0.34190300752E+03  0.34364654756E+03  0.00000000000E+00 0.  1.
         14    1    3    3    0    0 -0.14426988637E+02  0.28412721051E+02 -0.49784470570E+02  0.59109341297E+02  0.00000000000E+00 0. -1.
         13    1    5    5    0    0  0.11316550347E+02  0.14911402136E+02  0.97269341517E+02  0.99054222649E+02  0.00000000000E+00 0. -1.
        -14    1    5    5    0    0  0.42650576224E+01 -0.98062302179E+02  0.62465052288E+03  0.63231533396E+03  0.00000000000E+00 0.  1.
          5    1    4    4  501    0  0.83509284749E+00  0.73900903999E+02  0.81838564940E-01  0.74023780567E+02  0.41800000000E+01 0. -1.
         -5    1    4    4    0  501  0.24470597524E+02  0.30889066109E+01  0.10603964420E+03  0.10895058526E+03  0.41800000000E+01 0. -1.
</event>
<event>
11    1  0.8551154E-009  0.1381261E+03  0.7561462E-02  0.1109669E+00
         22   -1    0    0    0    0  0.00000000000E+00  0.00000000000E+00  0.46556829710E+03  0.46556829710E+03  0.00000000000E+00 0. -1.
         22   -1    0    0    0    0 -0.00000000000E+00 -0.00000000000E+00 -0.24045189286E+03  0.24045189286E+03  0.00000000000E+00 0.  1.
         24    2    1    2    0    0  0.57647482451E+01 -0.58887138669E+02 -0.19751475768E+03  0.22285793902E+03  0.84573364961E+02 0.  0.
         25    2    1    2    0    0  0.18457927611E+02  0.50928026404E+02  0.17777131343E+03  0.22401959278E+03  0.12509108324E+03 0.  0.
        -24    2    1    2    0    0 -0.24222675857E+02  0.79591122649E+01  0.24485984850E+03  0.25914265816E+03  0.80922718531E+02 0.  0.
        -13    1    3    3    0    0  0.39591758710E+02 -0.75808187386E+01 -0.60587841194E+02  0.72772678053E+02  0.00000000000E+00 0.  1.
         14    1    3    3    0    0 -0.33827010464E+02 -0.51306319930E+02 -0.13692691649E+03  0.15008526097E+03  0.00000000000E+00 0. -1.
         11    1    5    5    0    0 -0.22820845976E+01 -0.56677619609E+01  0.22847349924E+03  0.22855518215E+03  0.00000000000E+00 0. -1.
        -12    1    5    5    0    0 -0.21940591259E+02  0.13626874226E+02  0.16386349263E+02  0.30587476001E+02  0.00000000000E+00 0.  1.
          5    1    4    4  501    0  0.29924611035E+02 -0.36730967140E+02  0.55769827393E+02  0.73296605243E+02  0.41800000000E+01 0. -1.
         -5    1    4    4    0  501 -0.11466683423E+02  0.87658993543E+02  0.12200148603E+03  0.15072298754E+03  0.41800000000E+01 0. -1.
</event>
<event>
11    1  0.8551154E-009  0.1401858E+03  0.7561462E-02  0.1107351E+00
         22   -1    0    0    0    0  0.00000000000E+00  0.00000000000E+00  0.21982943429E+03  0.21982943429E+03  0.00000000000E+00 0. -1.
         22   -1    0    0    0    0 -0.00000000000E+00 -0.00000000000E+00 -0.10994906988E+04  0.10994906988E+04  0.00000000000E+00 0. -1.
        -24    2    1    2    0    0 -0.35020355578E+02  0.54122699435E+02 -0.98542680632E+03  0.99079072861E+03  0.80278175040E+02 0.  0.
         25    2    1    2    0    0  0.68897023799E+01 -0.47566950246E+02 -0.57463035858E+02  0.14580508022E+03  0.12508812163E+03 0.  0.
         24    2    1    2    0    0  0.28130653198E+02 -0.65557491884E+01  0.16322857770E+03  0.18272432422E+03  0.76878466328E+02 0.  0.
        -13    1    5    5    0    0  0.18483761882E+02  0.31659738575E+02  0.11347896627E+03  0.11925378101E+03  0.00000000000E+00 0.  1.
         14    1    5    5    0    0  0.96468913167E+01 -0.38215487763E+02  0.49749611434E+02  0.63470543206E+02  0.00000000000E+00 0. -1.
         11    1    3    3    0    0 -0.16087698919E+02  0.61801545925E+02 -0.92079019816E+03  0.92300207700E+03  0.00000000000E+00 0. -1.
        -12    1    3    3    0    0 -0.18932656659E+02 -0.76788464898E+01 -0.64636608166E+02  0.67788651608E+02  0.00000000000E+00 0.  1.
          5    1    4    4  501    0 -0.48680293688E+02 -0.87549291807E+01 -0.59970234930E+02  0.77848065204E+02  0.41800000000E+01 0. -1.
         -5    1    4    4    0  501  0.55569996068E+02 -0.38812021066E+02  0.25071990720E+01  0.67957015012E+02  0.41800000000E+01 0. -1.
</event>
<event>
11    1  0.8551154E-009  0.1442204E+03  0.7561462E-02  0.1102935E+00
         22   -1    0    0    0    0  0.00000000000E+00  0.00000000000E+00  0.45896518656E+03  0.45896518656E+03  0.00000000000E+00 0. -1.
         22   -1    0    0    0    0 -0.00000000000E+00 -0.00000000000E+00 -0.40962930511E+03  0.40962930511E+03  0.00000000000E+00 0. -1.
         24    2    1    2    0    0  0.88084394193E+01  0.69902084067E+02 -0.32495048154E+03  0.34232295332E+03  0.81414365799E+02 0.  0.
         25    2    1    2    0    0  0.23448146253E+01 -0.84757436231E+02  0.85995230596E+01  0.15136513313E+03  0.12509248810E+03 0.  0.
        -24    2    1    2    0    0 -0.11153254045E+02  0.14855352165E+02  0.36568683993E+03  0.37490640521E+03  0.80516279151E+02 0.  0.
        -11    1    3    3    0    0 -0.85131643328E+01 -0.32236109360E+01 -0.16864518944E+03  0.16889069115E+03  0.00000000000E+00 0.  1.
         12    1    3    3    0    0  0.17321603752E+02  0.73125695003E+02 -0.15630529210E+03  0.17343226218E+03  0.00000000000E+00 0. -1.
         13    1    5    5    0    0 -0.18800003278E+02 -0.15701453998E+02  0.30969795300E+03  0.31066508957E+03  0.00000000000E+00 0. -1.
        -14    1    5    5    0    0  0.76467492335E+01  0.30556806163E+02  0.55988886925E+02  0.64241315645E+02  0.00000000000E+00 0.  1.
          5    1    4    4  501    0 -0.19491340652E+02  0.19732580100E+02  0.31427566722E+02  0.42124238009E+02  0.41800000000E+01 0.  1.
         -5    1    4    4    0  501  0.21836155277E+02 -0.10449001633E+03 -0.22828043662E+02  0.10924089512E+03  0.41800000000E+01 0.  1.
</event>
<event>
11    1  0.1730138E-008  0.7403286E+03  0.7561462E-02  0.8974898E-01
         22   -1    0    0    0    0  0.00000000000E+00  0.00000000000E+00  0.55458850726E+03  0.55458850726E+03  0.00000000000E+00 0.  1.
         22   -1    0    0    0    0 -0.00000000000E+00 -0.00000000000E+00 -0.11753278488E+04  0.11753278488E+04  0.00000000000E+00 0.  1.
        -24    2    1    2    0    0 -0.37445580879E+02 -0.23058434980E+02 -0.46274223172E+02  0.10311162563E+03  0.80974320981E+02 0.  0.
         25    2    1    2    0    0 -0.31898645401E+03  0.65877728090E+03 -0.48787102551E+03  0.88848599480E+03  0.12509740907E+03 0.  0.
         24    2    1    2    0    0  0.35643203489E+03 -0.63571884592E+03 -0.86594092846E+02  0.73831873562E+03  0.80210796625E+02 0.  0.
        -11    1    5    5    0    0  0.10612449794E+03 -0.13224598342E+03 -0.39397095182E+02  0.17407912081E+03  0.00000000000E+00 0.  1.
         12    1    5    5    0    0  0.25030753695E+03 -0.50347286250E+03 -0.47196997664E+02  0.56423961481E+03  0.00000000000E+00 0. -1.
         13    1    3    3    0    0 -0.26841216666E+01  0.28846139470E+02 -0.20718678334E+02  0.35616960894E+02  0.00000000000E+00 0. -1.
        -14    1    3    3    0    0 -0.34761459212E+02 -0.51904574451E+02 -0.25555544838E+02  0.67494664733E+02  0.00000000000E+00 0.  1.
          5    1    4    4  501    0 -0.26788983193E+03  0.42190687470E+03 -0.31455960495E+03  0.59053839032E+03  0.41800000000E+01 0. -1.
         -5    1    4    4    0  501 -0.51096622072E+02  0.23687040620E+03 -0.17331142056E+03  0.29794760449E+03  0.41800000000E+01 0. -1.
</event>
<event>
11    1  0.8551154E-009  0.1323103E+03  0.7561462E-02  0.1116462E+00
         22   -1    0    0    0    0  0.00000000000E+00  0.00000000000E+00  0.50142494286E+03  0.50142494286E+03  0.00000000000E+00 0.  1.
         22   -1    0    0    0    0 -0.00000000000E+00 -0.00000000000E+00 -0.21463959812E+04  0.21463959812E+04  0.00000000000E+00 0. -1.
        -24    2    1    2    0    0 -0.31384990960E+01 -0.46251171910E+01 -0.16814100559E+04  0.16832952383E+04  0.79447096749E+02 0.  0.
         25    2    1    2    0    0 -0.39220102133E+02 -0.35705416243E+01 -0.45046251603E+03  0.46916432443E+03  0.12509084615E+03 0.  0.
         24    2    1    2    0    0  0.42358601229E+02  0.81956588153E+01  0.48690153362E+03  0.49536136134E+03  0.80301649740E+02 0.  0.
        -11    1    5    5    0    0  0.39004671159E+02  0.34945754182E+02  0.41968549257E+03  0.42294028276E+03  0.00000000000E+00 0.  1.
         12    1    5    5    0    0  0.33539300699E+01 -0.26750095366E+02  0.67216041052E+02  0.72421078587E+02  0.00000000000E+00 0. -1.
         13    1    3    3    0    0 -0.19590815246E+02 -0.36379031602E+02 -0.11086983491E+04  0.11094680092E+04  0.00000000000E+00 0. -1.
        -14    1    3    3    0    0  0.16452316150E+02  0.31753914411E+02 -0.57271170678E+03  0.57382722911E+03  0.00000000000E+00 0.  1.
          5    1    4    4  501    0 -0.45025626960E+02 -0.58773713550E+02 -0.22376553543E+03  0.23573320457E+03  0.41800000000E+01 0. -1.
         -5    1    4    4    0  501  0.58055248276E+01  0.55203171926E+02 -0.22669698060E+03  0.23343111986E+03  0.41800000000E+01 0. -1.
</event>
<event>
11    1  0.8551154E-009  0.1320859E+03  0.7561462E-02  0.1116732E+00
         22   -1    0    0    0    0  0.00000000000E+00  0.00000000000E+00  0.75334666460E+03  0.75334666460E+03  0.00000000000E+00 0. -1.
         22   -1    0    0    0    0 -0.00000000000E+00 -0.00000000000E+00 -0.21760280661E+04  0.21760280661E+04  0.00000000000E+00 0.  1.
         24    2    1    2    0    0 -0.12651239447E+02 -0.40814815022E+02 -0.20989506036E+04  0.21009442542E+04  0.80914893101E+02 0.  0.
         25    2    1    2    0    0  0.26029355103E+02  0.17750773313E+02 -0.16988010296E+02  0.13010969658E+03  0.12508926160E+03 0.  0.
        -24    2    1    2    0    0 -0.13378115655E+02  0.23064041709E+02  0.69325721248E+03  0.69832077984E+03  0.79595382458E+02 0.  0.
        -11    1    3    3    0    0 -0.34226374872E+02 -0.50731389309E+02 -0.10917910253E+04  0.10935048064E+04  0.00000000000E+00 0.  1.
         12    1    3    3    0    0  0.21575135425E+02  0.99165742869E+01 -0.10071595783E+04  0.10074394478E+04  0.00000000000E+00 0. -1.
         11    1    5    5    0    0 -0.52268954792E+01 -0.27276557891E+02  0.37261239353E+03  0.37364599136E+03  0.00000000000E+00 0. -1.
        -12    1    5    5    0    0 -0.81512201761E+01  0.50340599599E+02  0.32064481895E+03  0.32467478848E+03  0.00000000000E+00 0.  1.
          5    1    4    4  501    0  0.13472977525E+02  0.71573782765E+02 -0.33352581360E+01  0.73026870736E+02  0.41800000000E+01 0. -1.
         -5    1    4    4    0  501  0.12556377577E+02 -0.53823009451E+02 -0.13652752160E+02  0.57082825839E+02  0.41800000000E+01 0. -1.
</event>
<event>
11    1  0.8551154E-009  0.1339549E+03  0.7561462E-02  0.1114503E+00
         22   -1    0    0    0    0  0.00000000000E+00  0.00000000000E+00  0.15530202996E+03  0.15530202996E+03  0.00000000000E+00 0. -1.
         22   -1    0    0    0    0 -0.00000000000E+00 -0.00000000000E+00 -0.35745077097E+04  0.35745077097E+04  0.00000000000E+00 0. -1.
         24    2    1    2    0    0  0.88743603475E+01 -0.21943260753E+02 -0.32271846256E+04  0.32282396435E+04  0.79059008661E+02 0.  0.
         25    2    1    2    0    0  0.36710813017E+02  0.36989977764E+02 -0.31508007808E+03  0.34298258859E+03  0.12508260562E+03 0.  0.
        -24    2    1    2    0    0 -0.45585173365E+02 -0.15046717011E+02  0.12305902401E+03  0.15858750756E+03  0.87761394932E+02 0.  0.
        -13    1    3    3    0    0 -0.10770615632E+02 -0.24227690029E+02 -0.35566171764E+03  0.35664862893E+03  0.00000000000E+00 0.  1.
         14    1    3    3    0    0  0.19644975980E+02  0.22844292757E+01 -0.28715229080E+04  0.28715910146E+04  0.00000000000E+00 0. -1.
         13    1    5    5    0    0 -0.27944906586E+02 -0.43871099670E+02  0.11121588031E+03  0.12277851287E+03  0.00000000000E+00 0. -1.
        -14    1    5    5    0    0 -0.17640266779E+02  0.28824382659E+02  0.11843143696E+02  0.35808994684E+02  0.00000000000E+00 0.  1.
          5    1    4    4  501    0  0.80794241764E+02  0.11142354883E+02 -0.15983698636E+03  0.17949149334E+03  0.41800000000E+01 0. -1.
         -5    1    4    4    0  501 -0.44083428747E+02  0.25847622881E+02 -0.15524309172E+03  0.16349109525E+03  0.41800000000E+01 0. -1.
</event>
<event>
11    1  0.8551154E-009  0.2886835E+03  0.7561462E-02  0.1005098E+00
         22   -1    0    0    0    0  0.00000000000E+00  0.00000000000E+00  0.62881154407E+03  0.62881154407E+03  0.00000000000E+00 0. -1.
         22   -1    0    0    0    0 -0.00000000000E+00 -0.00000000000E+00 -0.64693572508E+03  0.64693572508E+03  0.00000000000E+00 0. -1.
        -24    2    1    2    0    0 -0.17457600386E+02  0.63021683980E+02 -0.44222306022E+03  0.45499891925E+03  0.84771935573E+02 0.  0.
         25    2    1    2    0    0  0.56388142712E+02 -0.30760545036E+03  0.16942154328E+02  0.33724692242E+03  0.12509082444E+03 0.  0.
         24    2    1    2    0    0 -0.38930542326E+02  0.24458376638E+03  0.40715672489E+03  0.48350142747E+03  0.81610206742E+02 0.  0.
        -11    1    5    5    0    0  0.11700901467E+02  0.31751801095E+02  0.10599647269E+03  0.11126697709E+03  0.00000000000E+00 0.  1.
         12    1    5    5    0    0 -0.50631443793E+02  0.21283196529E+03  0.30116025219E+03  0.37223445038E+03  0.00000000000E+00 0. -1.
         13    1    3    3    0    0 -0.91370414950E+01  0.25727744600E+02 -0.38632644365E+03  0.38728997331E+03  0.00000000000E+00 0. -1.
        -14    1    3    3    0    0 -0.83205588912E+01  0.37293939380E+02 -0.55896616578E+02  0.67708945935E+02  0.00000000000E+00 0.  1.
          5    1    4    4  501    0 -0.27753280470E+02 -0.14292718724E+03  0.39454729003E+02  0.15090584306E+03  0.41800000000E+01 0. -1.
         -5    1    4    4    0  501  0.84141423182E+02 -0.16467826312E+03 -0.22512574674E+02  0.18634107937E+03  0.41800000000E+01 0. -1.
</event>
<event>
11    1  0.8551154E-009  0.1415721E+03  0.7561462E-02  0.1105815E+00
         22   -1    0    0    0    0  0.00000000000E+00  0.00000000000E+00  0.31681944846E+03  0.31681944846E+03  0.00000000000E+00 0. -1.
         22   -1    0    0    0    0 -0.00000000000E+00 -0.00000000000E+00 -0.58486457480E+03  0.58486457480E+03  0.00000000000E+00 0.  1.
         24    2    1    2    0    0 -0.26337769912E+02 -0.34986570942E+02 -0.43458195409E+03  0.44402612545E+03  0.79874820717E+02 0.  0.
         25    2    1    2    0    0 -0.19741523439E+02  0.81917439045E+02 -0.93030575824E+02  0.17720157412E+03  0.12508203415E+03 0.  0.
        -24    2    1    2    0    0  0.46079293350E+02 -0.46930868103E+02  0.25956740358E+03  0.28045632369E+03  0.83394872971E+02 0.  0.
        -13    1    3    3    0    0 -0.26739069936E+02 -0.57320313713E+02 -0.24108042886E+03  0.24923958234E+03  0.00000000000E+00 0.  1.
         14    1    3    3    0    0  0.40130002411E+00  0.22333742771E+02 -0.19350152523E+03  0.19478654310E+03  0.00000000000E+00 0. -1.
         11    1    5    5    0    0  0.50730062728E+02 -0.58587425938E+02  0.13823792853E+03  0.15847949592E+03  0.00000000000E+00 0. -1.
        -12    1    5    5    0    0 -0.46507693776E+01  0.11656557834E+02  0.12132947505E+03  0.12197682777E+03  0.00000000000E+00 0.  1.
          5    1    4    4  501    0 -0.61302527540E+02  0.38428543677E+01 -0.29809728195E+02  0.68402190809E+02  0.41800000000E+01 0. -1.
         -5    1    4    4    0  501  0.41561004101E+02  0.78074584678E+02 -0.63220847629E+02  0.10879938331E+03  0.41800000000E+01 0. -1.
</event>
<event>
11    1  0.8551154E-009  0.2134219E+03  0.7561462E-02  0.1045418E+00
         22   -1    0    0    0    0  0.00000000000E+00  0.00000000000E+00  0.17062360090E+04  0.17062360090E+04  0.00000000000E+00 0. -1.
         22   -1    0    0    0    0 -0.00000000000E+00 -0.00000000000E+00 -0.13735270856E+04  0.13735270856E+04  0.00000000000E+00 0.  1.
        -24    2    1    2    0    0 -0.13957073391E+03  0.30419990362E+02 -0.13296009976E+04  0.13392993804E+04  0.74017917061E+02 0.  0.
         25    2    1    2    0    0  0.11374987951E+03 -0.19747813318E+03  0.50397811163E+03  0.56707839236E+03  0.12508923978E+03 0.  0.
         24    2    1    2    0    0  0.25820854398E+02  0.16705814281E+03  0.11583318093E+04  0.11733853218E+04  0.80779906814E+02 0.  0.
        -13    1    5    5    0    0  0.16821599560E+02 -0.11767394047E+01  0.16590904746E+03  0.16676379390E+03  0.00000000000E+00 0.  1.
         14    1    5    5    0    0  0.89992548387E+01  0.16823488222E+03  0.99242276186E+03  0.10066215279E+04  0.00000000000E+00 0. -1.
         13    1    3    3    0    0 -0.11965339627E+03  0.15017326886E+00 -0.85719449797E+03  0.86550526581E+03  0.00000000000E+00 0. -1.
        -14    1    3    3    0    0 -0.19917337632E+02  0.30269817093E+02 -0.47240649959E+03  0.47379411459E+03  0.00000000000E+00 0.  1.
          5    1    4    4  501    0  0.12661930744E+03 -0.13353684540E+03  0.29129040451E+03  0.34457526065E+03  0.41800000000E+01 0. -1.
         -5    1    4    4    0  501 -0.12869427935E+02 -0.63941287779E+02  0.21268770712E+03  0.22250313171E+03  0.41800000000E+01 0. -1.
</event>
<event>
11    1  0.8551154E-009  0.1285946E+03  0.7561462E-02  0.1121008E+00
         22   -1    0    0    0    0  0.00000000000E+00  0.00000000000E+00  0.63357256386E+03  0.63357256386E+03  0.00000000000E+00 0.  1.
         22   -1    0    0    0    0 -0.00000000000E+00 -0.00000000000E+00 -0.26133382205E+03  0.26133382205E+03  0.00000000000E+00 0. -1.
        -24    2    1    2    0    0  0.47029109393E+01  0.17836130546E+02 -0.21284224234E+03  0.22848411587E+03  0.81011888984E+02 0.  0.
         25    2    1    2    0    0  0.23544427719E+02 -0.57399319529E+01  0.72771674880E+02  0.14675030369E+03  0.12511054341E+03 0.  0.
         24    2    1    2    0    0 -0.28247338658E+02 -0.12096198593E+02  0.51230930926E+03  0.51967196634E+03  0.81571404819E+02 0.  0.
        -13    1    5    5    0    0 -0.50808698325E+02 -0.16814598800E+02  0.45115207600E+03  0.45431536430E+03  0.00000000000E+00 0.  1.
         14    1    5    5    0    0  0.22561359667E+02  0.47184002066E+01  0.61157233264E+02  0.65356602047E+02  0.00000000000E+00 0. -1.
         13    1    3    3    0    0  0.67917661718E+01 -0.22054691784E+02 -0.16292676664E+03  0.16455293618E+03  0.00000000000E+00 0. -1.
        -14    1    3    3    0    0 -0.20888552325E+01  0.39890822330E+02 -0.49915475698E+02  0.63931179690E+02  0.00000000000E+00 0.  1.
          5    1    4    4  501    0  0.71245861810E+01 -0.26188021236E+02  0.10295133144E+03  0.10655055715E+03  0.41800000000E+01 0.  1.
         -5    1    4    4    0  501  0.16419841538E+02  0.20448089283E+02 -0.30179656560E+02  0.40199746536E+02  0.41800000000E+01 0.  1.
</event>
<event>
11    1  0.8551154E-009  0.5808230E+03  0.7561462E-02  0.9229096E-01
         22   -1    0    0    0    0  0.00000000000E+00  0.00000000000E+00  0.85235686338E+03  0.85235686338E+03  0.00000000000E+00 0. -1.
         22   -1    0    0    0    0 -0.00000000000E+00 -0.00000000000E+00 -0.98947811280E+02  0.98947811280E+02  0.00000000000E+00 0.  1.
         24    2    1    2    0    0  0.29969183642E+02 -0.13369774499E+02  0.11105086776E+03  0.15003602447E+03  0.95402361456E+02 0.  0.
         25    2    1    2    0    0 -0.63339763518E+02  0.21132466936E+03  0.42262749927E+03  0.49286903638E+03  0.12504336192E+03 0.  0.
        -24    2    1    2    0    0  0.33370579876E+02 -0.19795489486E+03  0.21973068507E+03  0.30839961381E+03  0.80802300911E+02 0.  0.
        -13    1    3    3    0    0  0.53034700956E+02 -0.15213692757E+02  0.11405845596E+03  0.12670227831E+03  0.00000000000E+00 0.  1.
         14    1    3    3    0    0 -0.23065517314E+02  0.18439182585E+01 -0.30075881958E+01  0.23333746168E+02  0.00000000000E+00 0. -1.
         13    1    5    5    0    0  0.37683778852E+02 -0.30330805597E+02  0.42117677922E+02  0.64139876444E+02  0.00000000000E+00 0. -1.
        -14    1    5    5    0    0 -0.43131989756E+01 -0.16762408927E+03  0.17761300715E+03  0.24425973736E+03  0.00000000000E+00 0.  1.
          5    1    4    4  501    0  0.21265752825E+02  0.12669351114E+03  0.26862744691E+03  0.29779465348E+03  0.41800000000E+01 0.  1.
         -5    1    4    4    0  501 -0.84605516343E+02  0.84631158223E+02  0.15400005236E+03  0.19507438291E+03  0.41800000000E+01 0.  1.
</event>
<event>
11    1  0.8551154E-009  0.1404348E+03  0.7561462E-02  0.1107074E+00
         22   -1    0    0    0    0  0.00000000000E+00  0.00000000000E+00  0.19663758633E+03  0.19663758633E+03  0.00000000000E+00 0.  1.
         22   -1    0    0    0    0 -0.00000000000E+00 -0.00000000000E+00 -0.99477868988E+03  0.99477868988E+03  0.00000000000E+00 0. -1.
         24    2    1    2    0    0  0.17607961908E+02  0.63188307105E+02 -0.88790237587E+03  0.89393352947E+03  0.80272807073E+02 0.  0.
         25    2    1    2    0    0  0.29202487493E+02 -0.32264898034E+01 -0.32542232629E+02  0.13255071428E+03  0.12508996538E+03 0.  0.
        -24    2    1    2    0    0 -0.46810449401E+02 -0.59961817302E+02  0.12230350495E+03  0.16493203246E+03  0.80360377688E+02 0.  0.
        -13    1    3    3    0    0 -0.28569860289E+02  0.35540244401E+02 -0.28400392461E+03  0.28764140016E+03  0.00000000000E+00 0.  1.
         14    1    3    3    0    0  0.46177822196E+02  0.27648062705E+02 -0.60389845126E+03  0.60629212931E+03  0.00000000000E+00 0. -1.
         11    1    5    5    0    0 -0.18770284430E+02 -0.40980615367E+02  0.80772858707E+01  0.45792761005E+02  0.00000000000E+00 0. -1.
        -12    1    5    5    0    0 -0.28040164971E+02 -0.18981201935E+02  0.11422621908E+03  0.11913927146E+03  0.00000000000E+00 0.  1.
          5    1    4    4  501    0  0.40992420378E+01 -0.22133266867E+02 -0.75650894907E+02  0.79039329373E+02  0.41800000000E+01 0. -1.
         -5    1    4    4    0  501  0.25103245456E+02  0.18906777063E+02  0.43108662278E+02  0.53511384907E+02  0.41800000000E+01 0. -1.
</event>
<event>
11    1  0.8551154E-009  0.1119760E+04  0.7561462E-02  0.8572767E-01
         22   -1    0    0    0    0  0.00000000000E+00  0.00000000000E+00  0.90113206006E+03  0.90113206006E+03  0.00000000000E+00 0.  1.
         22   -1    0    0    0    0 -0.00000000000E+00 -0.00000000000E+00 -0.27337060902E+04  0.27337060902E+04  0.00000000000E+00 0.  1.
        -24    2    1    2    0    0  0.22678806484E+03  0.10574160257E+04 -0.18880760960E+04  0.21773387613E+04  0.80070340449E+02 0.  0.
         25    2    1    2    0    0 -0.25331793110E+03 -0.12306965299E+04  0.64235274240E+02  0.12643402677E+04  0.12508484791E+03 0.  0.
         24    2    1    2    0    0  0.26529866260E+02  0.17328050417E+03 -0.87332083851E+01  0.19315912130E+03  0.80648684331E+02 0.  0.
        -13    1    5    5    0    0  0.30235959596E+02  0.18112026770E+03 -0.11686989742E+02  0.18399823465E+03  0.00000000000E+00 0.  1.
         14    1    5    5    0    0 -0.37060933353E+01 -0.78397635291E+01  0.29537813570E+01  0.91608866551E+01  0.00000000000E+00 0. -1.
         13    1    3    3    0    0  0.83725605321E+02  0.32406068676E+03 -0.65469333540E+03  0.73528815379E+03  0.00000000000E+00 0. -1.
        -14    1    3    3    0    0  0.14306245952E+03  0.73335533893E+03 -0.12333827606E+04  0.14420506075E+04  0.00000000000E+00 0.  1.
          5    1    4    4  501    0 -0.19682688853E+03 -0.10683648724E+04  0.91755886151E+02  0.10902205922E+04  0.41800000000E+01 0. -1.
         -5    1    4    4    0  501 -0.56491042573E+02 -0.16233165745E+03 -0.27520611911E+02  0.17411967546E+03  0.41800000000E+01 0. -1.
</event>
<event>
11    1  0.8551154E-009  0.1321849E+03  0.7561462E-02  0.1116613E+00
         22   -1    0    0    0    0  0.00000000000E+00  0.00000000000E+00  0.96454140504E+02  0.96454140504E+02  0.00000000000E+00 0.  1.
         22   -1    0    0    0    0 -0.00000000000E+00 -0.00000000000E+00 -0.18406138793E+04  0.18406138793E+04  0.00000000000E+00 0.  1.
         24    2    1    2    0    0 -0.20145818830E+02 -0.10160878181E+02 -0.16911664693E+04  0.16930289912E+04  0.76118595935E+02 0.  0.
         25    2    1    2    0    0 -0.13022289126E+02  0.39830140524E+02 -0.71617674400E+02  0.15010267365E+03  0.12508277756E+03 0.  0.
        -24    2    1    2    0    0  0.33168107956E+02 -0.29669262342E+02  0.18624404892E+02  0.93936354980E+02  0.80602616682E+02 0.  0.
        -11    1    3    3    0    0 -0.30020386267E+02 -0.73085891431E+01 -0.16584107269E+04  0.16586985194E+04  0.00000000000E+00 0.  1.
         12    1    3    3    0    0  0.98745674370E+01 -0.28522890383E+01 -0.32755742407E+02  0.34330471821E+02  0.00000000000E+00 0. -1.
         11    1    5    5    0    0  0.44370342922E+02  0.10688885992E+02 -0.48936395524E+01  0.45901278008E+02  0.00000000000E+00 0. -1.
        -12    1    5    5    0    0 -0.11202234965E+02 -0.40358148334E+02  0.23518044445E+02  0.48035076972E+02  0.00000000000E+00 0.  1.
          5    1    4    4  501    0 -0.31979708277E+02  0.64459498076E+02 -0.88778686840E+02  0.11435408288E+03  0.41800000000E+01 0.  1.
         -5    1    4    4    0  501  0.18957419151E+02 -0.24629357552E+02  0.17161012440E+02  0.35748590773E+02  0.41800000000E+01 0.  1.
</event>
<event>
11    1  0.8551154E-009  0.1290909E+03  0.7561462E-02  0.1120391E+00
         22   -1    0    0    0    0  0.00000000000E+00  0.00000000000E+00  0.20296590390E+04  0.20296590390E+04  0.00000000000E+00 0. -1.
         22   -1    0    0    0    0 -0.00000000000E+00 -0.00000000000E+00 -0.21670732690E+03  0.21670732690E+03  0.00000000000E+00 0. -1.
        -24    2    1    2    0    0 -0.55332763818E+01 -0.33050178400E+02 -0.18136129638E+03  0.20438631522E+03  0.88084701211E+02 0.  0.
         25    2    1    2    0    0 -0.27850875772E+02  0.10389358463E+02  0.15903856309E+03  0.20450877616E+03  0.12508782884E+03 0.  0.
         24    2    1    2    0    0  0.33384152154E+02  0.22660819938E+02  0.18352744454E+04  0.18374712745E+04  0.80251981093E+02 0.  0.
        -13    1    5    5    0    0 -0.34653347638E+00  0.35416461918E+01  0.26503680518E+01  0.44370929682E+01  0.00000000000E+00 0.  1.
         14    1    5    5    0    0  0.33730685630E+02  0.19119173746E+02  0.18326240773E+04  0.18330341816E+04  0.00000000000E+00 0. -1.
         11    1    3    3    0    0 -0.26306610640E+02  0.80322955326E+01 -0.13942780656E+03  0.14211498435E+03  0.00000000000E+00 0. -1.
        -12    1    3    3    0    0  0.20773334258E+02 -0.41082473933E+02 -0.41933489820E+02  0.62271330876E+02  0.00000000000E+00 0.  1.
          5    1    4    4  501    0 -0.27226965495E+02  0.78464198819E+01  0.18036215728E+03  0.18262216222E+03  0.41800000000E+01 0. -1.
         -5    1    4    4    0  501 -0.62391027717E+00  0.25429385810E+01 -0.21323594186E+02  0.21886613938E+02  0.41800000000E+01 0. -1.
</event>
<event>
11    1  0.8551154E-009  0.1786960E+03  0.7561462E-02  0.1070702E+00
         22   -1    0    0    0    0  0.00000000000E+00  0.00000000000E+00  0.33309554143E+04  0.33309554143E+04  0.00000000000E+00 0. -1.
         22   -1    0    0    0    0 -0.00000000000E+00 -0.00000000000E+00 -0.18306779667E+03  0.18306779667E+03  0.00000000000E+00 0.  1.
         24    2    1    2    0    0  0.24724495863E+02 -0.33458504847E+02 -0.14609402749E+03  0.17071828428E+03  0.77913384449E+02 0.  0.
         25    2    1    2    0    0 -0.14645938014E+03 -0.71908880843E+00  0.38462622458E+03  0.43015790663E+03  0.12509046681E+03 0.  0.
        -24    2    1    2    0    0  0.12173488427E+03  0.34177593655E+02  0.29093554205E+04  0.29131470201E+04  0.78032733556E+02 0.  0.
        -11    1    3    3    0    0  0.27537752943E+02 -0.56844273805E+02 -0.11969667521E+03  0.13533991783E+03  0.00000000000E+00 0.  1.
         12    1    3    3    0    0 -0.28132570799E+01  0.23385768959E+02 -0.26397352278E+02  0.35378366448E+02  0.00000000000E+00 0. -1.
         11    1    5    5    0    0  0.88066875924E+02 -0.20810330176E+01  0.12733220071E+04  0.12763655586E+04  0.00000000000E+00 0. -1.
        -12    1    5    5    0    0  0.33668008350E+02  0.36258626673E+02  0.16360334134E+04  0.16367814615E+04  0.00000000000E+00 0.  1.
          5    1    4    4  501    0 -0.12547691441E+03  0.51797877144E+02  0.26527256796E+03  0.29801758981E+03  0.41800000000E+01 0.  1.
         -5    1    4    4    0  501 -0.20982465731E+02 -0.52516965953E+02  0.11935365662E+03  0.13214031682E+03  0.41800000000E+01 0.  1.
</event>
<event>
11    1  0.8551154E-009  0.2387842E+03  0.7561462E-02  0.1030050E+00
         22   -1    0    0    0    0  0.00000000000E+00  0.00000000000E+00  0.18211468772E+04  0.18211468772E+04  0.00000000000E+00 0. -1.
         22   -1    0    0    0    0 -0.00000000000E+00 -0.00000000000E+00 -0.12635751651E+04  0.12635751651E+04  0.00000000000E+00 0. -1.
        -24    2    1    2    0    0 -0.50578437822E+02 -0.25755962837E+02 -0.95198910616E+03  0.95718364840E+03  0.81827443542E+02 0.  0.
         25    2    1    2    0    0  0.24292773099E+03 -0.37624947635E+02 -0.23931375925E+03  0.36516837606E+03  0.12508936144E+03 0.  0.
         24    2    1    2    0    0 -0.19234929316E+03  0.63380910471E+02  0.17488745776E+04  0.17623700178E+04  0.79814792955E+02 0.  0.
        -11    1    5    5    0    0 -0.60406344223E+02 -0.68881378433E+01  0.32227512903E+03  0.32795980189E+03  0.00000000000E+00 0.  1.
         12    1    5    5    0    0 -0.13194294894E+03  0.70269048314E+02  0.14265994486E+04  0.14344102159E+04  0.00000000000E+00 0. -1.
         13    1    3    3    0    0 -0.55138821658E+02 -0.28757551061E+02 -0.94885056763E+03  0.95088626349E+03  0.00000000000E+00 0. -1.
        -14    1    3    3    0    0  0.45603838364E+01  0.30015882244E+01 -0.31385385317E+01  0.62973849111E+01  0.00000000000E+00 0.  1.
          5    1    4    4  501    0  0.18851512202E+03 -0.38708605789E+02 -0.24353231013E+03  0.31042191590E+03  0.41800000000E+01 0.  1.
         -5    1    4    4    0  501  0.54412608964E+02  0.10836581549E+01  0.42185508808E+01  0.54746460167E+02  0.41800000000E+01 0.  1.
</event>
<event>
11    1  0.8551154E-009  0.1309576E+03  0.7561462E-02  0.1118098E+00
         22   -1    0    0    0    0  0.00000000000E+00  0.00000000000E+00  0.60983692681E+03  0.60983692681E+03  0.00000000000E+00 0.  1.
         22   -1    0    0    0    0 -0.00000000000E+00 -0.00000000000E+00 -0.36461121355E+03  0.36461121355E+03  0.00000000000E+00 0.  1.
         24    2    1    2    0    0 -0.39538761790E+02  0.64042838273E+01 -0.29470905150E+03  0.30833967800E+03  0.81336360025E+02 0.  0.
         25    2    1    2    0    0  0.23506256644E+02 -0.15400256371E+02  0.89172420823E+01  0.12851472319E+03  0.12508718908E+03 0.  0.
        -24    2    1    2    0    0  0.16032505146E+02  0.89959725441E+01  0.53101752267E+03  0.53759373917E+03  0.81789059608E+02 0.  0.
        -13    1    3    3    0    0 -0.18886529969E+02 -0.25838901100E+02 -0.23656495012E+03  0.23872018233E+03  0.00000000000E+00 0.  1.
         14    1    3    3    0    0 -0.20652231821E+02  0.32243184928E+02 -0.58144101372E+02  0.69619495674E+02  0.00000000000E+00 0. -1.
         11    1    5    5    0    0  0.11684452512E+02  0.55691490644E+01  0.95222272652E+01  0.16069059210E+02  0.00000000000E+00 0. -1.
        -12    1    5    5    0    0  0.43480526342E+01  0.34268234797E+01  0.52149529540E+03  0.52152467996E+03  0.00000000000E+00 0.  1.
          5    1    4    4  501    0  0.22801191795E+02 -0.69372977977E+02  0.12724423535E+02  0.74242088973E+02  0.41800000000E+01 0.  1.
         -5    1    4    4    0  501  0.70506484912E+00  0.53972721606E+02 -0.38071814527E+01  0.54272634215E+02  0.41800000000E+01 0.  1.
</event>
<event>
11    1  0.8551154E-009  0.1319695E+03  0.7561462E-02  0.1116872E+00
         22   -1    0    0    0    0  0.00000000000E+00  0.00000000000E+00  0.94313671527E+03  0.94313671527E+03  0.00000000000E+00 0.  1.
         22   -1    0    0    0    0 -0.00000000000E+00 -0.00000000000E+00 -0.15880717903E+04  0.15880717903E+04  0.00000000000E+00 0.  1.
        -24    2    1    2    0    0  0.14087340115E+02  0.39075627563E+02 -0.15146351416E+04  0.15172976333E+04  0.79668928057E+02 0.  0.
         25    2    1    2    0    0 -0.40671689027E+02 -0.61089206607E+02  0.54505193437E+01  0.14513139546E+03  0.12508931343E+03 0.  0.
         24    2    1    2    0    0  0.26584348912E+02  0.22013579044E+02  0.86424954719E+03  0.86877947684E+03  0.81603763902E+02 0.  0.
        -13    1    5    5    0    0  0.55184039931E+02  0.95298240199E+01  0.47739349627E+03  0.48066687642E+03  0.00000000000E+00 0.  1.
         14    1    5    5    0    0 -0.28599691019E+02  0.12483755024E+02  0.38685605092E+03  0.38811260041E+03  0.00000000000E+00 0. -1.
         13    1    3    3    0    0 -0.22184091796E+02  0.25471652507E+02 -0.27634430619E+03  0.27840099600E+03  0.00000000000E+00 0. -1.
        -14    1    3    3    0    0  0.36271431910E+02  0.13603975056E+02 -0.12382908354E+04  0.12388966373E+04  0.00000000000E+00 0.  1.
          5    1    4    4  501    0 -0.74705877417E+02 -0.12175375261E+02  0.28662133314E+02  0.81044420965E+02  0.41800000000E+01 0.  1.
         -5    1    4    4    0  501  0.34034188390E+02 -0.48913831346E+02 -0.23211613971E+02  0.64086974492E+02  0.41800000000E+01 0.  1.
</event>
<event>
11    1  0.8551154E-009  0.2401995E+03  0.7561462E-02  0.1029254E+00
         22   -1    0    0    0    0  0.00000000000E+00  0.00000000000E+00  0.78912239969E+02  0.78912239969E+02  0.00000000000E+00 0. -1.
         22   -1    0    0    0    0 -0.00000000000E+00 -0.00000000000E+00 -0.11679047095E+04  0.11679047095E+04  0.00000000000E+00 0. -1.
         24    2    1    2    0    0 -0.51752001820E+02  0.18145127820E+03 -0.54736164498E+03  0.58428066480E+03  0.78589368310E+02 0.  0.
         25    2    1    2    0    0  0.11397338515E+03 -0.21576968307E+03 -0.42742491914E+03  0.50782435452E+03  0.12508806853E+03 0.  0.
        -24    2    1    2    0    0 -0.62221383333E+02  0.34318404866E+02 -0.11420590537E+03  0.15471193011E+03  0.76443044418E+02 0.  0.
        -11    1    3    3    0    0  0.61149778586E+01  0.12150362098E+02 -0.12291674167E+03  0.12366709197E+03  0.00000000000E+00 0.  1.
         12    1    3    3    0    0 -0.57866979679E+02  0.16930091610E+03 -0.42444490331E+03  0.46061357283E+03  0.00000000000E+00 0. -1.
         13    1    5    5    0    0  0.54534808235E+01  0.27475211345E+02 -0.64943396902E+02  0.70726745243E+02  0.00000000000E+00 0. -1.
        -14    1    5    5    0    0 -0.67674864156E+02  0.68431935207E+01 -0.49262508469E+02  0.83985184865E+02  0.00000000000E+00 0.  1.
          5    1    4    4  501    0  0.78124170141E+01  0.90219449244E+01  0.78023463146E+00  0.12669274482E+02  0.41800000000E+01 0. -1.
         -5    1    4    4    0  501  0.10616096814E+03 -0.22479162799E+03 -0.42820515377E+03  0.49515508004E+03  0.41800000000E+01 0. -1.
</event>
<event>
11    1  0.8551154E-009  0.1335218E+03  0.7561462E-02  0.1115016E+00
         22   -1    0    0    0    0  0.00000000000E+00  0.00000000000E+00  0.92648897725E+03  0.92648897725E+03  0.00000000000E+00 0.  1.
         22   -1    0    0    0    0 -0.00000000000E+00 -0.00000000000E+00 -0.50258122402E+03  0.50258122402E+03  0.00000000000E+00 0.  1.
         24    2    1    2    0    0  0.49066456365E+01 -0.11147320567E+02 -0.44897448436E+03  0.45586074195E+03  0.77990964292E+02 0.  0.
         25    2    1    2    0    0  0.41644118719E+02  0.41702298637E+01  0.43884158906E+02  0.13900092844E+03  0.12507523840E+03 0.  0.
        -24    2    1    2    0    0 -0.46550764355E+02  0.69770907036E+01  0.82899807870E+03  0.83420853089E+03  0.80314413796E+02 0.  0.
        -13    1    3    3    0    0  0.15720029686E+02  0.31338307388E+02 -0.19268713265E+03  0.19585081039E+03  0.00000000000E+00 0.  1.
         14    1    3    3    0    0 -0.10813384050E+02 -0.42485627955E+02 -0.25628735172E+03  0.26000993156E+03  0.00000000000E+00 0. -1.
         13    1    5    5    0    0 -0.20318514741E+02 -0.10855935632E+02  0.55910159550E+02  0.60470152312E+02  0.00000000000E+00 0. -1.
        -14    1    5    5    0    0 -0.26232249615E+02  0.17833026335E+02  0.77308791915E+03  0.77373837858E+03  0.00000000000E+00 0.  1.
          5    1    4    4  501    0 -0.14683916868E+02  0.46894412474E+01  0.73505045479E+02  0.75220159430E+02  0.41800000000E+01 0.  1.
         -5    1    4    4    0  501  0.56328035587E+02 -0.51921138369E+00 -0.29620886573E+02  0.63780769005E+02  0.41800000000E+01 0.  1.
</event>
<event>
11    1  0.8551154E-009  0.2125034E+03  0.7561462E-02  0.1046018E+00
         22   -1    0    0    0    0  0.00000000000E+00  0.00000000000E+00  0.40911383534E+03  0.40911383534E+03  0.00000000000E+00 0.  1.
         22   -1    0    0    0    0 -0.00000000000E+00 -0.00000000000E+00 -0.47459891555E+03  0.47459891555E+03  0.00000000000E+00 0.  1.
        -24    2    1    2    0    0 -0.12932546670E+03 -0.11923511577E+03 -0.34618975178E+03  0.39719396693E+03  0.83508166990E+02 0.  0.
         25    2    1    2    0    0  0.42575054011E+02  0.16922280129E+03  0.46489088947E+02  0.21967689898E+03  0.12509081842E+03 0.  0.
         24    2    1    2    0    0  0.86750412685E+02 -0.49987685527E+02  0.23421558262E+03  0.26684188499E+03  0.79518863390E+02 0.  0.
        -11    1    5    5    0    0  0.64397753053E+02 -0.64794573721E+02  0.21572960508E+03  0.23427477433E+03  0.00000000000E+00 0.  1.
         12    1    5    5    0    0  0.22352659632E+02  0.14806888194E+02  0.18485977548E+02  0.32567110657E+02  0.00000000000E+00 0. -1.
         11    1    3    3    0    0 -0.49297464395E+02  0.14840667189E+01 -0.10158558073E+03  0.11292507544E+03  0.00000000000E+00 0. -1.
        -12    1    3    3    0    0 -0.80028002301E+02 -0.12071918248E+03 -0.24460417105E+03  0.28426889149E+03  0.00000000000E+00 0.  1.
          5    1    4    4  501    0  0.36822658597E+02  0.18634180665E+03  0.25533837680E+02  0.19169931236E+03  0.41800000000E+01 0.  1.
         -5    1    4    4    0  501  0.57523954148E+01 -0.17119005357E+02  0.20955251267E+02  0.27977586620E+02  0.41800000000E+01 0.  1.
</event>
<event>
11    1  0.8551154E-009  0.1391483E+03  0.7561462E-02  0.1108513E+00
         22   -1    0    0    0    0  0.00000000000E+00  0.00000000000E+00  0.25472274070E+04  0.25472274070E+04  0.00000000000E+00 0. -1.
         22   -1    0    0    0    0 -0.00000000000E+00 -0.00000000000E+00 -0.31414421593E+03  0.31414421593E+03  0.00000000000E+00 0. -1.
         24    2    1    2    0    0  0.28268347089E+02  0.34518735472E+02 -0.24615743627E+03  0.26191731980E+03  0.77566464623E+02 0.  0.
         25    2    1    2    0    0  0.33139803544E+02 -0.31172403695E+02  0.16056244960E+02  0.13407065081E+03  0.12508865286E+03 0.  0.
        -24    2    1    2    0    0 -0.61408150633E+02 -0.33463317773E+01  0.24631843824E+04  0.24653836523E+04  0.84006503493E+02 0.  0.
        -11    1    3    3    0    0  0.32781663426E+02  0.24440261297E+00 -0.20743094186E+03  0.21000545905E+03  0.00000000000E+00 0.  1.
         12    1    3    3    0    0 -0.45133163370E+01  0.34274332859E+02 -0.38726494412E+02  0.51911860752E+02  0.00000000000E+00 0. -1.
         13    1    5    5    0    0 -0.78532624108E+01  0.31908627792E+02  0.13149274472E+04  0.13153379891E+04  0.00000000000E+00 0. -1.
        -14    1    5    5    0    0 -0.53554888223E+02 -0.35254959569E+02  0.11482569352E+04  0.11500456632E+04  0.00000000000E+00 0.  1.
          5    1    4    4  501    0  0.64049136539E+02 -0.60740805219E+02  0.52296392148E+00  0.88371280410E+02  0.41800000000E+01 0.  1.
         -5    1    4    4    0  501 -0.30909332995E+02  0.29568401524E+02  0.15533281038E+02  0.45699370397E+02  0.41800000000E+01 0.  1.
</event>
<event>
11    1  0.8551154E-009  0.1439204E+03  0.7561462E-02  0.1103258E+00
         22   -1    0    0    0    0  0.00000000000E+00  0.00000000000E+00  0.27326490819E+03  0.27326490819E+03  0.00000000000E+00 0.  1.
         22   -1    0    0    0    0 -0.00000000000E+00 -0.00000000000E+00 -0.31992770332E+03  0.31992770332E+03  0.00000000000E+00 0. -1.
        -24    2    1    2    0    0 -0.21751171100E+02 -0.51985517887E+02 -0.13795424898E+03  0.16953370295E+03  0.80837454868E+02 0.  0.
         25    2    1    2    0    0 -0.51198526690E+02  0.46156161429E+02 -0.11961288021E+03  0.18627225152E+03  0.12505370927E+03 0.  0.
         24    2    1    2    0    0  0.72949697790E+02  0.58293564575E+01  0.21090433406E+03  0.23738665704E+03  0.80722654891E+02 0.  0.
        -13    1    5    5    0    0  0.68851149634E+02  0.27222533029E+02  0.10034677010E+03  0.12470373443E+03  0.00000000000E+00 0.  1.
         14    1    5    5    0    0  0.40985481562E+01 -0.21393176572E+02  0.11055756396E+03  0.11268292261E+03  0.00000000000E+00 0. -1.
         11    1    3    3    0    0  0.17047784735E+02 -0.48201806247E+02 -0.42707464543E+02  0.66618080260E+02  0.00000000000E+00 0. -1.
        -12    1    3    3    0    0 -0.38798955835E+02 -0.37837116393E+01 -0.95246784436E+02  0.10291562269E+03  0.00000000000E+00 0.  1.
          5    1    4    4  501    0  0.98210620367E+01 -0.25905164345E+02  0.64111735863E+01  0.28742065793E+02  0.41800000000E+01 0. -1.
         -5    1    4    4    0  501 -0.61019588727E+02  0.72061325774E+02 -0.12602405379E+03  0.15753018573E+03  0.41800000000E+01 0. -1.
</event>
<event>
11    1  0.8551154E-009  0.1384328E+03  0.7561462E-02  0.1109321E+00
         22   -1    0    0    0    0  0.00000000000E+00  0.00000000000E+00  0.67284887817E+03  0.67284887817E+03  0.00000000000E+00 0.  1.
         22   -1    0    0    0    0 -0.00000000000E+00 -0.00000000000E+00 -0.26497696844E+03  0.26497696844E+03  0.00000000000E+00 0. -1.
         24    2    1    2    0    0 -0.56800224188E+02 -0.61974582916E+01 -0.21040849578E+03  0.23207949979E+03  0.79526631848E+02 0.  0.
         25    2    1    2    0    0  0.87305011486E+02  0.14727746558E+02  0.10576692818E+03  0.18620728295E+03  0.12508971811E+03 0.  0.
        -24    2    1    2    0    0 -0.30504787299E+02 -0.85302882663E+01  0.51251347732E+03  0.51953906387E+03  0.79040917119E+02 0.  0.
        -11    1    3    3    0    0 -0.19942993973E+02  0.17987134821E+02 -0.13052813682E+02  0.29860274156E+02  0.00000000000E+00 0.  1.
         12    1    3    3    0    0 -0.36857230215E+02 -0.24184593112E+02 -0.19735568209E+03  0.20221922564E+03  0.00000000000E+00 0. -1.
         13    1    5    5    0    0  0.20594232927E+02  0.18180374451E+02  0.17089309082E+03  0.17308696350E+03  0.00000000000E+00 0. -1.
        -14    1    5    5    0    0 -0.51099020226E+02 -0.26710662717E+02  0.34162038651E+03  0.34645210037E+03  0.00000000000E+00 0.  1.
          5    1    4    4  501    0  0.22956225232E+02  0.62845825564E+02  0.23245056249E+02  0.70953443241E+02  0.41800000000E+01 0. -1.
         -5    1    4    4    0  501  0.64348786255E+02 -0.48118079006E+02  0.82521871933E+02  0.11525383971E+03  0.41800000000E+01 0. -1.
</event>
<event>
11    1  0.8551154E-009  0.1292144E+03  0.7561462E-02  0.1120238E+00
         22   -1    0    0    0    0  0.00000000000E+00  0.00000000000E+00  0.11415146875E+03  0.11415146875E+03  0.00000000000E+00 0.  1.
         22   -1    0    0    0    0 -0.00000000000E+00 -0.00000000000E+00 -0.89594019766E+03  0.89594019766E+03  0.00000000000E+00 0.  1.
        -24    2    1    2    0    0 -0.17200052225E+02 -0.26227379280E+02 -0.73145415523E+03  0.73625128804E+03  0.77827120757E+02 0.  0.
         25    2    1    2    0    0  0.14123943455E+02  0.45978701590E+02 -0.10858311215E+03  0.17248062277E+03  0.12508295730E+03 0.  0.
         24    2    1    2    0    0  0.30761087692E+01 -0.19751322310E+02  0.58248538464E+02  0.10135975560E+03  0.80506711800E+02 0.  0.
        -11    1    5    5    0    0 -0.12021401365E+02 -0.32999025624E+02  0.69837061801E+02  0.78170742506E+02  0.00000000000E+00 0.  1.
         12    1    5    5    0    0  0.15097510134E+02  0.13247703314E+02 -0.11588523337E+02  0.23189013098E+02  0.00000000000E+00 0. -1.
         13    1    3    3    0    0 -0.21501788060E+02  0.11155397181E+02 -0.77092202247E+02  0.80808275711E+02  0.00000000000E+00 0. -1.
        -14    1    3    3    0    0  0.43017358353E+01 -0.37382776461E+02 -0.65436195298E+03  0.65544301233E+03  0.00000000000E+00 0.  1.
          5    1    4    4  501    0  0.12777211597E+02 -0.15753291069E+02 -0.10863621235E+03  0.11059259627E+03  0.41800000000E+01 0.  1.
         -5    1    4    4    0  501  0.13467318588E+01  0.61731992660E+02  0.53100198481E-01  0.61888026500E+02  0.41800000000E+01 0.  1.
</event>
<event>
11    1  0.8551154E-009  0.1557949E+03  0.7561462E-02  0.1091100E+00
         22   -1    0    0    0    0  0.00000000000E+00  0.00000000000E+00  0.25259650800E+03  0.25259650800E+03  0.00000000000E+00 0. -1.
         22   -1    0    0    0    0 -0.00000000000E+00 -0.00000000000E+00 -0.31014609620E+03  0.31014609620E+03  0.00000000000E+00 0. -1.
         24    2    1    2    0    0 -0.73495165287E+02 -0.23432181316E+02 -0.20509383103E+03  0.23615080848E+03  0.88051793715E+02 0.  0.
         25    2    1    2    0    0 -0.29718657355E+01  0.93786507015E+02  0.55740076232E+02  0.16601148769E+03  0.12509243408E+03 0.  0.
        -24    2    1    2    0    0  0.76467031023E+02 -0.70354325700E+02  0.91804166592E+02  0.16058030803E+03  0.81000570033E+02 0.  0.
        -11    1    3    3    0    0  0.14224022701E+02  0.40189802804E+01 -0.44181165808E+01  0.15427079387E+02  0.00000000000E+00 0.  1.
         12    1    3    3    0    0 -0.87719187988E+02 -0.27451161596E+02 -0.20067571445E+03  0.22072372909E+03  0.00000000000E+00 0. -1.
         13    1    5    5    0    0  0.54624494512E+02 -0.84455297018E+02  0.52507611055E+02  0.11346180773E+03  0.00000000000E+00 0. -1.
        -14    1    5    5    0    0  0.21842536511E+02  0.14100971319E+02  0.39296555536E+02  0.47118500299E+02  0.00000000000E+00 0.  1.
          5    1    4    4  501    0 -0.81252519342E+01 -0.26171304873E+02 -0.94953153885E+01  0.29301712101E+02  0.41800000000E+01 0.  1.
         -5    1    4    4    0  501  0.51533861986E+01  0.11995781189E+03  0.65235391620E+02  0.13670977559E+03  0.41800000000E+01 0.  1.
</event>
<event>
11    1  0.8551154E-009  0.1298706E+03  0.7561462E-02  0.1119428E+00
         22   -1    0    0    0    0  0.00000000000E+00  0.00000000000E+00  0.55362632546E+03  0.55362632546E+03  0.00000000000E+00 0. -1.
         22   -1    0    0    0    0 -0.00000000000E+00 -0.00000000000E+00 -0.14239333700E+03  0.14239333700E+03  0.00000000000E+00 0.  1.
         24    2    1    2    0    0  0.11772064030E+02  0.32485333985E+02 -0.86139286264E+02  0.12356259586E+03  0.81571196151E+02 0.  0.
         25    2    1    2    0    0 -0.34293293740E+02 -0.26405716700E+02  0.99058142018E+02  0.16532743133E+03  0.12508937677E+03 0.  0.
        -24    2    1    2    0    0  0.22521229709E+02 -0.60796172851E+01  0.39831413271E+03  0.40712963527E+03  0.80970513572E+02 0.  0.
        -11    1    3    3    0    0  0.47206083447E+01  0.59978610269E+02 -0.56776386487E+02  0.82724095011E+02  0.00000000000E+00 0.  1.
         12    1    3    3    0    0  0.70514556855E+01 -0.27493276284E+02 -0.29362899777E+02  0.40838500847E+02  0.00000000000E+00 0. -1.
         11    1    5    5    0    0 -0.12743918752E+02 -0.35890812818E+02  0.18064618203E+03  0.18461744498E+03  0.00000000000E+00 0. -1.
        -12    1    5    5    0    0  0.35265148462E+02  0.29811195533E+02  0.21766795068E+03  0.22251219029E+03  0.00000000000E+00 0.  1.
          5    1    4    4  501    0  0.17586026990E+02  0.55504801194E+01 -0.22438697699E+02  0.29343546638E+02  0.41800000000E+01 0. -1.
         -5    1    4    4    0  501 -0.51879320730E+02 -0.31956196819E+02  0.12149683972E+03  0.13598388469E+03  0.41800000000E+01 0. -1.
</event>
<event>
11    1  0.8551154E-009  0.1516245E+03  0.7561462E-02  0.1095230E+00
         22   -1    0    0    0    0  0.00000000000E+00  0.00000000000E+00  0.11178699975E+04  0.11178699975E+04  0.00000000000E+00 0.  1.
         22   -1    0    0    0    0 -0.00000000000E+00 -0.00000000000E+00 -0.30158283685E+03  0.30158283685E+03  0.00000000000E+00 0.  1.
        -24    2    1    2    0    0 -0.49974475486E+02  0.38332281533E+00 -0.26265663416E+03  0.27873569340E+03  0.78787588943E+02 0.  0.
         25    2    1    2    0    0 -0.42152200346E+02 -0.24131842431E+01  0.13514114934E+03  0.18892614220E+03  0.12508927016E+03 0.  0.
         24    2    1    2    0    0  0.92126675832E+02  0.20298614278E+01  0.94380264549E+03  0.95179099877E+03  0.81555054779E+02 0.  0.
        -13    1    5    5    0    0  0.55939444439E+02  0.10453426338E+02  0.83266062003E+03  0.83460302163E+03  0.00000000000E+00 0.  1.
         14    1    5    5    0    0  0.36187231393E+02 -0.84235649103E+01  0.11114202547E+03  0.11718797714E+03  0.00000000000E+00 0. -1.
         13    1    3    3    0    0 -0.15181500425E+02  0.33478892369E+02 -0.17469096764E+03  0.17851680135E+03  0.00000000000E+00 0. -1.
        -14    1    3    3    0    0 -0.34792975062E+02 -0.33095569553E+02 -0.87965666519E+02  0.10021889205E+03  0.00000000000E+00 0.  1.
          5    1    4    4  501    0 -0.65272855653E+02 -0.28855658374E+02  0.13588786977E+03  0.15354536873E+03  0.41800000000E+01 0. -1.
         -5    1    4    4    0  501  0.23120655307E+02  0.26442474131E+02 -0.74672043364E+00  0.35380773471E+02  0.41800000000E+01 0. -1.
</event>
<event>
11    1  0.8551154E-009  0.1480662E+03  0.7561462E-02  0.1098871E+00
         22   -1    0    0    0    0  0.00000000000E+00  0.00000000000E+00  0.77886571838E+03  0.77886571838E+03  0.00000000000E+00 0. -1.
         22   -1    0    0    0    0 -0.00000000000E+00 -0.00000000000E+00 -0.97498641166E+03  0.97498641166E+03  0.00000000000E+00 0.  1.
        -24    2    1    2    0    0 -0.43382567743E+02 -0.68141726650E+02 -0.80054350367E+03  0.80865046662E+03  0.80748583889E+02 0.  0.
         25    2    1    2    0    0  0.89304359677E+02  0.17521468389E+02 -0.13065997479E+03  0.20248476178E+03  0.12508308930E+03 0.  0.
         24    2    1    2    0    0 -0.45921791934E+02  0.50620258261E+02  0.73508278518E+03  0.74271690164E+03  0.81304817765E+02 0.  0.
        -13    1    5    5    0    0 -0.95054754490E+00  0.13055454654E+00 -0.21686966755E+01  0.23714616579E+01  0.00000000000E+00 0.  1.
         14    1    5    5    0    0 -0.44971244389E+02  0.50489703715E+02  0.73725148185E+03  0.74034543998E+03  0.00000000000E+00 0. -1.
         13    1    3    3    0    0  0.14857026903E+02 -0.50773634293E+02 -0.33361084726E+03  0.33777935194E+03  0.00000000000E+00 0. -1.
        -14    1    3    3    0    0 -0.58239594646E+02 -0.17368092357E+02 -0.46693265641E+03  0.47087111468E+03  0.00000000000E+00 0.  1.
          5    1    4    4  501    0  0.33191416004E+02  0.61728068316E+02 -0.24304667517E+02  0.74298141144E+02  0.41800000000E+01 0. -1.
         -5    1    4    4    0  501  0.56112943673E+02 -0.44206599927E+02 -0.10635530727E+03  0.12818662063E+03  0.41800000000E+01 0. -1.
</event>
<event>
11    1  0.8551154E-009  0.1650342E+03  0.7561462E-02  0.1082436E+00
         22   -1    0    0    0    0  0.00000000000E+00  0.00000000000E+00  0.17976985711E+03  0.17976985711E+03  0.00000000000E+00 0. -1.
         22   -1    0    0    0    0 -0.00000000000E+00 -0.00000000000E+00 -0.42448511422E+03  0.42448511422E+03  0.00000000000E+00 0. -1.
         24    2    1    2    0    0 -0.32069101362E+01  0.13894810923E+02 -0.16295908816E+03  0.18240035539E+03  0.80689994356E+02 0.  0.
         25    2    1    2    0    0  0.10877429644E+03  0.67862777693E+01 -0.18761488231E+03  0.25044875708E+03  0.12508930700E+03 0.  0.
        -24    2    1    2    0    0 -0.10556738631E+03 -0.20681088692E+02  0.10585871336E+03  0.17140585886E+03  0.81250974005E+02 0.  0.
        -13    1    3    3    0    0 -0.26028283869E+02  0.32049698396E+02 -0.45783588098E+02  0.61650560968E+02  0.00000000000E+00 0.  1.
         14    1    3    3    0    0  0.22821373733E+02 -0.18154887473E+02 -0.11717550006E+03  0.12074979442E+03  0.00000000000E+00 0. -1.
         13    1    5    5    0    0 -0.93402319202E+02 -0.29818402610E+02  0.11692472996E+03  0.15259266969E+03  0.00000000000E+00 0. -1.
        -14    1    5    5    0    0 -0.12165067105E+02  0.91373139175E+01 -0.11066016604E+02  0.18813189171E+02  0.00000000000E+00 0.  1.
          5    1    4    4  501    0  0.67783344319E+02 -0.57052399011E+02 -0.11611935354E+03  0.14611890592E+03  0.41800000000E+01 0. -1.
         -5    1    4    4    0  501  0.40990952124E+02  0.63838676780E+02 -0.71495528771E+02  0.10432985116E+03  0.41800000000E+01 0. -1.
</event>
<event>
11    1  0.8551154E-009  0.1616845E+03  0.7561462E-02  0.1085504E+00
         22   -1    0    0    0    0  0.00000000000E+00  0.00000000000E+00  0.30160424592E+03  0.30160424592E+03  0.00000000000E+00 0. -1.
         22   -1    0    0    0    0 -0.00000000000E+00 -0.00000000000E+00 -0.44432396822E+03  0.44432396822E+03  0.00000000000E+00 0. -1.
        -24    2    1    2    0    0 -0.44713073980E+02  0.45090361518E+02 -0.28441717036E+03  0.30235862380E+03  0.80592871277E+02 0.  0.
         25    2    1    2    0    0  0.50215137588E+01  0.56785377018E+02 -0.97509675767E+02  0.16852572445E+03  0.12507193246E+03 0.  0.
         24    2    1    2    0    0  0.39691560222E+02 -0.10187573854E+03  0.23920712383E+03  0.27504386589E+03  0.80467347538E+02 0.  0.
        -13    1    5    5    0    0 -0.80551407024E+01 -0.50133501728E+02  0.42832815753E+02  0.66429687585E+02  0.00000000000E+00 0.  1.
         14    1    5    5    0    0  0.47746700924E+02 -0.51742236808E+02  0.19637430807E+03  0.20861417831E+03  0.00000000000E+00 0. -1.
         11    1    3    3    0    0 -0.57439109809E+02  0.53346898474E+02 -0.27098818211E+03  0.28209880850E+03  0.00000000000E+00 0. -1.
        -12    1    3    3    0    0  0.12726035829E+02 -0.82565369560E+01 -0.13428988249E+02  0.20259815296E+02  0.00000000000E+00 0.  1.
          5    1    4    4  501    0  0.15781563661E+02  0.21447566752E+02  0.27259826740E+02  0.38335706920E+02  0.41800000000E+01 0.  1.
         -5    1    4    4    0  501 -0.10760049902E+02  0.35337810266E+02 -0.12476950251E+03  0.13019001753E+03  0.41800000000E+01 0.  1.
</event>
<event>
11    1  0.8551154E-009  0.1808308E+03  0.7561462E-02  0.1068973E+00
         22   -1    0    0    0    0  0.00000000000E+00  0.00000000000E+00  0.26082939501E+03  0.26082939501E+03  0.00000000000E+00 0. -1.
         22   -1    0    0    0    0 -0.00000000000E+00 -0.00000000000E+00 -0.10300480789E+04  0.10300480789E+04  0.00000000000E+00 0.  1.
        -24    2    1    2    0    0 -0.58867539449E+02 -0.22718985250E+02 -0.87657716541E+03  0.88265914108E+03  0.81963973295E+02 0.  0.
         25    2    1    2    0    0  0.12139036124E+03  0.12509435330E+03 -0.22737030043E+02  0.21575390520E+03  0.12509419667E+03 0.  0.
         24    2    1    2    0    0 -0.62522821794E+02 -0.10237536805E+03  0.13009551153E+03  0.19246442767E+03  0.75682855186E+02 0.  0.
        -11    1    5    5    0    0  0.17337745631E+01 -0.58703171609E+02  0.82783423462E+02  0.10149957404E+03  0.00000000000E+00 0.  1.
         12    1    5    5    0    0 -0.64256596358E+02 -0.43672196445E+02  0.47312088067E+02  0.90964853625E+02  0.00000000000E+00 0. -1.
         11    1    3    3    0    0 -0.26093769184E+01 -0.22585744525E+02 -0.60272474959E+02  0.64418133638E+02  0.00000000000E+00 0. -1.
        -12    1    3    3    0    0 -0.56258162531E+02 -0.13324072447E+00 -0.81630469045E+03  0.81824100744E+03  0.00000000000E+00 0.  1.
          5    1    4    4  501    0  0.73239893127E+02  0.78386080953E+02  0.48506877170E+02  0.11780852756E+03  0.41800000000E+01 0.  1.
         -5    1    4    4    0  501  0.48150468117E+02  0.46708272351E+02 -0.71243907213E+02  0.97945377639E+02  0.41800000000E+01 0.  1.
</event>
<event>
11    1  0.8551154E-009  0.1296478E+03  0.7561462E-02  0.1119702E+00
         22   -1    0    0    0    0  0.00000000000E+00  0.00000000000E+00  0.10504736626E+04  0.10504736626E+04  0.00000000000E+00 0. -1.
         22   -1    0    0    0    0 -0.00000000000E+00 -0.00000000000E+00 -0.44063074361E+03  0.44063074361E+03  0.00000000000E+00 0.  1.
         24    2    1    2    0    0 -0.14093025935E+02  0.78601876624E+01 -0.34095875550E+03  0.35106357463E+03  0.82050987502E+02 0.  0.
         25    2    1    2    0    0  0.90298946070E+01 -0.41446682686E+02 -0.45478984891E+02  0.13969313112E+03  0.12508583578E+03 0.  0.
        -24    2    1    2    0    0  0.50631313284E+01  0.33586495023E+02  0.99628065939E+03  0.10003477005E+04  0.83466649740E+02 0.  0.
        -13    1    3    3    0    0 -0.97455335420E+01  0.37607530331E+02 -0.28412087291E+03  0.28676466342E+03  0.00000000000E+00 0.  1.
         14    1    3    3    0    0 -0.43474923934E+01 -0.29747342668E+02 -0.56837882594E+02  0.64298911217E+02  0.00000000000E+00 0. -1.
         11    1    5    5    0    0  0.30027700897E+02  0.12774383038E+02  0.84430762748E+03  0.84493799625E+03  0.00000000000E+00 0. -1.
        -12    1    5    5    0    0 -0.24964569569E+02  0.20812111986E+02  0.15197303191E+03  0.15540970423E+03  0.00000000000E+00 0.  1.
          5    1    4    4  501    0  0.53206740540E+01 -0.58251983338E+02 -0.81000911115E+02  0.10000111568E+03  0.41800000000E+01 0.  1.
         -5    1    4    4    0  501  0.37092205529E+01  0.16805300653E+02  0.35521926224E+02  0.39692015441E+02  0.41800000000E+01 0.  1.
</event>
<event>
11    1  0.8551154E-009  0.4836375E+03  0.7561462E-02  0.9430846E-01
         22   -1    0    0    0    0  0.00000000000E+00  0.00000000000E+00  0.16134094292E+04  0.16134094292E+04  0.00000000000E+00 0.  1.
         22   -1    0    0    0    0 -0.00000000000E+00 -0.00000000000E+00 -0.21964607642E+03  0.21964607642E+03  0.00000000000E+00 0.  1.
         24    2    1    2    0    0  0.22065565566E+02  0.11356111830E+03  0.14679034692E+03  0.20444350806E+03  0.82865706226E+02 0.  0.
         25    2    1    2    0    0 -0.48152849846E+03 -0.47376831485E+02  0.33348854558E+03  0.60081261978E+03  0.12508770949E+03 0.  0.
        -24    2    1    2    0    0  0.45946293289E+03 -0.66184286810E+02  0.91348446027E+03  0.10277993778E+04  0.80194484044E+02 0.  0.
        -13    1    3    3    0    0  0.49530816952E+02  0.96273679725E+02  0.99205713974E+02  0.14684582705E+03  0.00000000000E+00 0.  1.
         14    1    3    3    0    0 -0.27465251387E+02  0.17287438571E+02  0.47584632943E+02  0.57597681015E+02  0.00000000000E+00 0. -1.
         13    1    5    5    0    0  0.23154380796E+03 -0.62090265930E+02  0.52969301581E+03  0.58141416144E+03  0.00000000000E+00 0. -1.
        -14    1    5    5    0    0  0.22791912493E+03 -0.40940208800E+01  0.38379144446E+03  0.44638521633E+03  0.00000000000E+00 0.  1.
          5    1    4    4  501    0 -0.16608417907E+03  0.38159000787E+02  0.14295339515E+03  0.22247069349E+03  0.41800000000E+01 0. -1.
         -5    1    4    4    0  501 -0.31544431939E+03 -0.85535832273E+02  0.19053515043E+03  0.37834192628E+03  0.41800000000E+01 0. -1.
</event>
<event>
11    1  0.8551154E-009  0.3732977E+03  0.7561462E-02  0.9732005E-01
         22   -1    0    0    0    0  0.00000000000E+00  0.00000000000E+00  0.53364328099E+03  0.53364328099E+03  0.00000000000E+00 0. -1.
         22   -1    0    0    0    0 -0.00000000000E+00 -0.00000000000E+00 -0.17365476235E+04  0.17365476235E+04  0.00000000000E+00 0.  1.
         24    2    1    2    0    0  0.91855898549E+02 -0.94854862117E+02 -0.44595208624E+03  0.47225569216E+03  0.81958676137E+02 0.  0.
         25    2    1    2    0    0 -0.38741942237E+03 -0.93089754518E+02 -0.11746128728E+04  0.12466444218E+04  0.12508957633E+03 0.  0.
        -24    2    1    2    0    0  0.29556352382E+03  0.18794461664E+03  0.41766061661E+03  0.55129079051E+03  0.82463140221E+02 0.  0.
        -11    1    3    3    0    0 -0.11507927764E+02 -0.18493616012E+02 -0.11856618822E+03  0.12055035140E+03  0.00000000000E+00 0.  1.
         12    1    3    3    0    0  0.10336382631E+03 -0.76361246105E+02 -0.32738589802E+03  0.35170534076E+03  0.00000000000E+00 0. -1.
         13    1    5    5    0    0  0.24762639644E+03  0.18269569825E+03  0.38578620989E+03  0.49348510628E+03  0.00000000000E+00 0. -1.
        -14    1    5    5    0    0  0.47937127379E+02  0.52489183802E+01  0.31874406719E+02  0.57805684229E+02  0.00000000000E+00 0.  1.
          5    1    4    4  501    0 -0.33781956204E+02  0.71939253513E+01 -0.23706399740E+03  0.23960338977E+03  0.41800000000E+01 0. -1.
         -5    1    4    4    0  501 -0.35363746617E+03 -0.10028367987E+03 -0.93754887544E+03  0.10070410320E+04  0.41800000000E+01 0. -1.
</event>
<event>
11    1  0.8551154E-009  0.2207470E+03  0.7561462E-02  0.1040751E+00
         22   -1    0    0    0    0  0.00000000000E+00  0.00000000000E+00  0.26054768761E+04  0.26054768761E+04  0.00000000000E+00 0.  1.
         22   -1    0    0    0    0 -0.00000000000E+00 -0.00000000000E+00 -0.12620024608E+03  0.12620024608E+03  0.00000000000E+00 0. -1.
         24    2    1    2    0    0 -0.13311326529E+03  0.12274325305E+03 -0.30653758415E+02  0.19975003934E+03  0.78583571732E+02 0.  0.
         25    2    1    2    0    0  0.12038182739E+03 -0.16050717821E+03  0.16065885390E+04  0.16238930965E+04  0.12509083418E+03 0.  0.
        -24    2    1    2    0    0  0.12731437891E+02  0.37763925157E+02  0.90334184951E+03  0.90803398636E+03  0.83132543310E+02 0.  0.
        -11    1    3    3    0    0  0.31442471607E+01 -0.58632308739E+01  0.58531758404E+01  0.88613449265E+01  0.00000000000E+00 0.  1.
         12    1    3    3    0    0 -0.13625751245E+03  0.12860648392E+03 -0.36506934255E+02  0.19088869441E+03  0.00000000000E+00 0. -1.
         11    1    5    5    0    0 -0.33115053080E+02  0.16498672607E+01  0.27640597885E+03  0.27838748885E+03  0.00000000000E+00 0. -1.
        -12    1    5    5    0    0  0.45846490971E+02  0.36114057896E+02  0.62693587066E+03  0.62964649752E+03  0.00000000000E+00 0.  1.
          5    1    4    4  501    0  0.52239779554E+02  0.69656215814E+01  0.27028936365E+03  0.27541119613E+03  0.41800000000E+01 0. -1.
         -5    1    4    4    0  501  0.68142047841E+02 -0.16747279979E+03  0.13362991753E+04  0.13484819004E+04  0.41800000000E+01 0. -1.
</event>
<event>
11    1  0.8551154E-009  0.1406894E+03  0.7561462E-02  0.1106791E+00
         22   -1    0    0    0    0  0.00000000000E+00  0.00000000000E+00  0.27713213928E+03  0.27713213928E+03  0.00000000000E+00 0.  1.
         22   -1    0    0    0    0 -0.00000000000E+00 -0.00000000000E+00 -0.10419107135E+04  0.10419107135E+04  0.00000000000E+00 0.  1.
        -24    2    1    2    0    0 -0.65189240445E+02  0.32212838222E+01 -0.85120846388E+03  0.85753510180E+03  0.80935703472E+02 0.  0.
         25    2    1    2    0    0  0.57609527834E+02  0.66535077204E+01 -0.15462364773E+03  0.20716264770E+03  0.12507902822E+03 0.  0.
         24    2    1    2    0    0  0.75797126104E+01 -0.98747915427E+01  0.24105353734E+03  0.25434510333E+03  0.80185161817E+02 0.  0.
        -11    1    5    5    0    0 -0.27558664460E+02  0.16332373312E+02  0.14876636695E+03  0.15217640533E+03  0.00000000000E+00 0.  1.
         12    1    5    5    0    0  0.35138377070E+02 -0.26207164855E+02  0.92287170389E+02  0.10216869800E+03  0.00000000000E+00 0. -1.
         13    1    3    3    0    0  0.87327797527E+01 -0.65978962969E+01 -0.18506859033E+02  0.21501104833E+02  0.00000000000E+00 0. -1.
        -14    1    3    3    0    0 -0.73922020198E+02  0.98191801191E+01 -0.83270160484E+03  0.83603399696E+03  0.00000000000E+00 0.  1.
          5    1    4    4  501    0  0.41916434829E+01  0.47865690347E+02 -0.12563508217E+02  0.49839826708E+02  0.41800000000E+01 0.  1.
         -5    1    4    4    0  501  0.53417884352E+02 -0.41212182627E+02 -0.14206013951E+03  0.15732282099E+03  0.41800000000E+01 0.  1.
</event>
<event>
11    1  0.8551154E-009  0.1730547E+03  0.7561462E-02  0.1075404E+00
         22   -1    0    0    0    0  0.00000000000E+00  0.00000000000E+00  0.27153346273E+03  0.27153346273E+03  0.00000000000E+00 0.  1.
         22   -1    0    0    0    0 -0.00000000000E+00 -0.00000000000E+00 -0.39651777791E+03  0.39651777791E+03  0.00000000000E+00 0.  1.
        -24    2    1    2    0    0 -0.48566425073E+02  0.42651322350E+02 -0.14072834576E+03  0.17580117940E+03  0.83209100679E+02 0.  0.
         25    2    1    2    0    0 -0.60911398634E+02  0.19874296489E+02 -0.19069879938E+03  0.23689513847E+03  0.12509231950E+03 0.  0.
         24    2    1    2    0    0  0.10947782371E+03 -0.62525618839E+02  0.20644282995E+03  0.25535492277E+03  0.81808603773E+02 0.  0.
        -13    1    5    5    0    0  0.62598068790E+02 -0.38455897758E+02  0.18391142178E+03  0.19804238272E+03  0.00000000000E+00 0.  1.
         14    1    5    5    0    0  0.46879754917E+02 -0.24069721080E+02  0.22531408167E+02  0.57312540058E+02  0.00000000000E+00 0. -1.
         11    1    3    3    0    0 -0.52039859308E+02 -0.88984878538E+01 -0.82589061138E+02  0.98021849924E+02  0.00000000000E+00 0. -1.
        -12    1    3    3    0    0  0.34734342352E+01  0.51549810204E+02 -0.58139284619E+02  0.77779329474E+02  0.00000000000E+00 0.  1.
          5    1    4    4  501    0 -0.52056114296E+02 -0.48239838651E+02 -0.10815790114E+03  0.12943154580E+03  0.41800000000E+01 0.  1.
         -5    1    4    4    0  501 -0.88552843385E+01  0.68114135139E+02 -0.82540898244E+02  0.10746359267E+03  0.41800000000E+01 0.  1.
</event>
<event>
11    1  0.8551154E-009  0.1728195E+03  0.7561462E-02  0.1075604E+00
         22   -1    0    0    0    0  0.00000000000E+00  0.00000000000E+00  0.15909041701E+04  0.15909041701E+04  0.00000000000E+00 0.  1.
         22   -1    0    0    0    0 -0.00000000000E+00 -0.00000000000E+00 -0.15703498255E+03  0.15703498255E+03  0.00000000000E+00 0.  1.
        -24    2    1    2    0    0 -0.94220071375E+02  0.67413498766E+02 -0.89125496701E+02  0.16476266053E+03  0.76035376493E+02 0.  0.
         25    2    1    2    0    0  0.14338141717E+03 -0.57657879436E+02  0.32255065189E+03  0.37890459379E+03  0.12508839399E+03 0.  0.
         24    2    1    2    0    0 -0.49161345793E+02 -0.97556193299E+01  0.12004440324E+04  0.12042718984E+04  0.81810269640E+02 0.  0.
        -11    1    5    5    0    0 -0.69980072186E+02 -0.17080136206E+02  0.80666864726E+03  0.80987853906E+03  0.00000000000E+00 0.  1.
         12    1    5    5    0    0  0.20818726393E+02  0.73245168761E+01  0.39377538514E+03  0.39439335930E+03  0.00000000000E+00 0. -1.
         13    1    3    3    0    0 -0.13074484062E+01  0.35074258574E+02 -0.52656449987E+01  0.35491408159E+02  0.00000000000E+00 0. -1.
        -14    1    3    3    0    0 -0.92912622969E+02  0.32339240192E+02 -0.83859851702E+02  0.12927125238E+03  0.00000000000E+00 0.  1.
          5    1    4    4  501    0  0.16424517798E+03 -0.43336382236E+02  0.25289497123E+03  0.30467664727E+03  0.41800000000E+01 0. -1.
         -5    1    4    4    0  501 -0.20863760812E+02 -0.14321497201E+02  0.69655680652E+02  0.74227946519E+02  0.41800000000E+01 0. -1.
</event>
<event>
11    1  0.8551154E-009  0.1404975E+03  0.7561462E-02  0.1107004E+00
         22   -1    0    0    0    0  0.00000000000E+00  0.00000000000E+00  0.35859410108E+03  0.35859410108E+03  0.00000000000E+00 0. -1.
         22   -1    0    0    0    0 -0.00000000000E+00 -0.00000000000E+00 -0.20241345164E+04  0.20241345164E+04  0.00000000000E+00 0.  1.
        -24    2    1    2    0    0 -0.42540012038E+02  0.45946418438E+02 -0.18267590153E+04  0.18296008439E+04  0.80436447086E+02 0.  0.
         25    2    1    2    0    0  0.57995533609E+02 -0.75653695116E+02 -0.15752414889E+03  0.22259474693E+03  0.12509036884E+03 0.  0.
         24    2    1    2    0    0 -0.15455521570E+02  0.29707276678E+02  0.31874274887E+03  0.33053302665E+03  0.80831592316E+02 0.  0.
        -13    1    5    5    0    0  0.31073430295E+02 -0.15818813007E+01  0.10077052048E+03  0.10546448794E+03  0.00000000000E+00 0.  1.
         14    1    5    5    0    0 -0.46528951866E+02  0.31289157978E+02  0.21797222839E+03  0.22506853871E+03  0.00000000000E+00 0. -1.
         13    1    3    3    0    0 -0.52309821666E+01 -0.17752062447E+02 -0.13879570275E+03  0.14002409077E+03  0.00000000000E+00 0. -1.
        -14    1    3    3    0    0 -0.37309029872E+02  0.63698480885E+02 -0.16879633126E+04  0.16895767531E+04  0.00000000000E+00 0.  1.
          5    1    4    4  501    0 -0.51194219363E+00 -0.74132318449E+02 -0.14454354304E+03  0.16249975679E+03  0.41800000000E+01 0. -1.
         -5    1    4    4    0  501  0.58507475802E+02 -0.15213766670E+01 -0.12980605847E+02  0.60094990139E+02  0.41800000000E+01 0. -1.
</event>
<event>
11    1  0.8551154E-009  0.1773745E+03  0.7561462E-02  0.1071787E+00
         22   -1    0    0    0    0  0.00000000000E+00  0.00000000000E+00  0.74944463871E+02  0.74944463871E+02  0.00000000000E+00 0.  1.
         22   -1    0    0    0    0 -0.00000000000E+00 -0.00000000000E+00 -0.83163989677E+03  0.83163989677E+03  0.00000000000E+00 0. -1.
         24    2    1    2    0    0 -0.46612547261E+02  0.99994344338E+01 -0.28691904835E+03  0.30186319652E+03  0.80784471633E+02 0.  0.
         25    2    1    2    0    0  0.15291252123E+03 -0.54255391359E+02 -0.39042944951E+03  0.44091412721E+03  0.12507687990E+03 0.  0.
        -24    2    1    2    0    0 -0.10629997397E+03  0.44255956926E+02 -0.79346935044E+02  0.16380703692E+03  0.85314330877E+02 0.  0.
        -11    1    3    3    0    0 -0.34129964615E+02  0.43260091585E+02 -0.21045846775E+03  0.21755242278E+03  0.00000000000E+00 0.  1.
         12    1    3    3    0    0 -0.12482582646E+02 -0.33260657151E+02 -0.76460580595E+02  0.84310773740E+02  0.00000000000E+00 0. -1.
         13    1    5    5    0    0 -0.30334018901E+02  0.21555771874E+02 -0.75800816322E+02  0.84442689197E+02  0.00000000000E+00 0. -1.
        -14    1    5    5    0    0 -0.75965955068E+02  0.22700185052E+02 -0.35461187223E+01  0.79364347719E+02  0.00000000000E+00 0.  1.
          5    1    4    4  501    0 -0.29026266960E+01  0.24726052677E+02 -0.23445345552E+02  0.34452279326E+02  0.41800000000E+01 0.  1.
         -5    1    4    4    0  501  0.15581514793E+03 -0.78981444036E+02 -0.36698410396E+03  0.40646184788E+03  0.41800000000E+01 0.  1.
</event>
<event>
11    1  0.8551154E-009  0.1997832E+03  0.7561462E-02  0.1054677E+00
         22   -1    0    0    0    0  0.00000000000E+00  0.00000000000E+00  0.39032320223E+03  0.39032320223E+03  0.00000000000E+00 0.  1.
         22   -1    0    0    0    0 -0.00000000000E+00 -0.00000000000E+00 -0.16132788673E+04  0.16132788673E+04  0.00000000000E+00 0.  1.
        -24    2    1    2    0    0 -0.82188999220E+01  0.95557502827E+01 -0.13595440999E+04  0.13617453700E+04  0.76363803200E+02 0.  0.
         25    2    1    2    0    0 -0.12523804799E+03  0.72799394869E+02 -0.19090090053E+03  0.27032366694E+03  0.12508960998E+03 0.  0.
         24    2    1    2    0    0  0.13345694792E+03 -0.82355145152E+02  0.32748933532E+03  0.37153303264E+03  0.78704527916E+02 0.  0.
        -11    1    5    5    0    0  0.40615098121E+02 -0.30842692869E+02  0.19601131082E+03  0.20253713701E+03  0.00000000000E+00 0.  1.
         12    1    5    5    0    0  0.92841849795E+02 -0.51512452283E+02  0.13147802450E+03  0.16899589563E+03  0.00000000000E+00 0. -1.
         11    1    3    3    0    0  0.19043636970E+02  0.14889863793E+02 -0.15438157017E+03  0.15626271904E+03  0.00000000000E+00 0. -1.
        -12    1    3    3    0    0 -0.27262536892E+02 -0.53341135101E+01 -0.12051625297E+04  0.12054826509E+04  0.00000000000E+00 0.  1.
          5    1    4    4  501    0 -0.72171841208E+02 -0.42750955151E+01 -0.19501308873E+02  0.74998830343E+02  0.41800000000E+01 0. -1.
         -5    1    4    4    0  501 -0.53066206785E+02  0.77074490384E+02 -0.17139959166E+03  0.19532483660E+03  0.41800000000E+01 0. -1.
</event>
<event>
11    1  0.8551154E-009  0.1319158E+03  0.7561462E-02  0.1116937E+00
         22   -1    0    0    0    0  0.00000000000E+00  0.00000000000E+00  0.15858830351E+03  0.15858830351E+03  0.00000000000E+00 0.  1.
         22   -1    0    0    0    0 -0.00000000000E+00 -0.00000000000E+00 -0.69827715856E+03  0.69827715856E+03  0.00000000000E+00 0.  1.
        -24    2    1    2    0    0  0.22024059777E+02 -0.36597358991E+02 -0.41860740560E+03  0.42744803968E+03  0.75201334485E+02 0.  0.
         25    2    1    2    0    0 -0.62702846333E+02  0.35242435122E+02 -0.23991884562E+03  0.27996450945E+03  0.12508156498E+03 0.  0.
         24    2    1    2    0    0  0.40678786556E+02  0.13549238690E+01  0.11883739616E+03  0.14945291295E+03  0.80976829819E+02 0.  0.
        -13    1    5    5    0    0 -0.64300493619E+01 -0.12576373227E+02  0.92771028829E+02  0.93840153924E+02  0.00000000000E+00 0.  1.
         14    1    5    5    0    0  0.47108835918E+02  0.13931297096E+02  0.26066367332E+02  0.55612759023E+02  0.00000000000E+00 0. -1.
         11    1    3    3    0    0 -0.23198375452E+02  0.63363326145E+01 -0.12492378252E+03  0.12721739336E+03  0.00000000000E+00 0. -1.
        -12    1    3    3    0    0  0.45222435229E+02 -0.42933691605E+02 -0.29368362308E+03  0.30023064631E+03  0.00000000000E+00 0.  1.
          5    1    4    4  501    0 -0.14725000545E+02  0.44814084348E+02 -0.14891320818E+02  0.49642236379E+02  0.41800000000E+01 0.  1.
         -5    1    4    4    0  501 -0.47977845787E+02 -0.95716492259E+01 -0.22502752480E+03  0.23032227307E+03  0.41800000000E+01 0.  1.
</event>
<event>
11    1  0.8551154E-009  0.1957300E+03  0.7561462E-02  0.1057585E+00
         22   -1    0    0    0    0  0.00000000000E+00  0.00000000000E+00  0.25420467142E+04  0.25420467142E+04  0.00000000000E+00 0.  1.
         22   -1    0    0    0    0 -0.00000000000E+00 -0.00000000000E+00 -0.14055897702E+03  0.14055897702E+03  0.00000000000E+00 0.  1.
        -24    2    1    2    0    0 -0.48053151931E+00 -0.53918282387E+02 -0.10365710540E+03  0.14158445471E+03  0.79962179990E+02 0.  0.
         25    2    1    2    0    0 -0.13023836121E+03  0.11592592098E+03  0.82906812048E+03  0.85638937076E+03  0.12509179057E+03 0.  0.
         24    2    1    2    0    0  0.13071889273E+03 -0.62007638592E+02  0.16760767221E+04  0.16846318658E+04  0.88424931902E+02 0.  0.
        -13    1    5    5    0    0  0.51941195315E+02 -0.14319354480E+02  0.10930832662E+04  0.10944103245E+04  0.00000000000E+00 0.  1.
         14    1    5    5    0    0  0.78777697415E+02 -0.47688284112E+02  0.58299345597E+03  0.59022154125E+03  0.00000000000E+00 0. -1.
         11    1    3    3    0    0 -0.20206564336E+02  0.30397391110E+01  0.13802163895E+01  0.20480484697E+02  0.00000000000E+00 0. -1.
        -12    1    3    3    0    0  0.19726032817E+02 -0.56958021497E+02 -0.10503732179E+03  0.12110397001E+03  0.00000000000E+00 0.  1.
          5    1    4    4  501    0 -0.21455842344E+02 -0.26163450014E+02  0.17381926181E+03  0.17713127184E+03  0.41800000000E+01 0. -1.
         -5    1    4    4    0  501 -0.10878251887E+03  0.14208937099E+03  0.65524885866E+03  0.67925809891E+03  0.41800000000E+01 0. -1.
</event>
<event>
11    1  0.8551154E-009  0.1297258E+03  0.7561462E-02  0.1119606E+00
         22   -1    0    0    0    0  0.00000000000E+00  0.00000000000E+00  0.19771158761E+03  0.19771158761E+03  0.00000000000E+00 0.  1.
         22   -1    0    0    0    0 -0.00000000000E+00 -0.00000000000E+00 -0.74187509757E+03  0.74187509757E+03  0.00000000000E+00 0. -1.
         24    2    1    2    0    0 -0.31808289224E+02  0.11958182805E+02 -0.67539843361E+03  0.68055883393E+03  0.76436358585E+02 0.  0.
         25    2    1    2    0    0  0.50008911037E+02 -0.54088565902E+01  0.47431799696E+02  0.14292392728E+03  0.12508927394E+03 0.  0.
        -24    2    1    2    0    0 -0.18200621813E+02 -0.65493262145E+01  0.83803123958E+02  0.11610392397E+03  0.77993597607E+02 0.  0.
        -13    1    3    3    0    0  0.93309801468E+01 -0.20619506927E+02 -0.89583415757E+02  0.92398158180E+02  0.00000000000E+00 0.  1.
         14    1    3    3    0    0 -0.41139269371E+02  0.32577689732E+02 -0.58581501786E+03  0.58816067575E+03  0.00000000000E+00 0. -1.
         13    1    5    5    0    0  0.51700134150E+01 -0.14366314947E+02 -0.10567623715E+02  0.18568648708E+02  0.00000000000E+00 0. -1.
        -14    1    5    5    0    0 -0.23370635228E+02  0.78169887321E+01  0.94370747673E+02  0.97535275261E+02  0.00000000000E+00 0.  1.
          5    1    4    4  501    0  0.10821122957E+02  0.10551456904E+02  0.84848642519E+02  0.86285540400E+02  0.41800000000E+01 0.  1.
         -5    1    4    4    0  501  0.39187788080E+02 -0.15960313495E+02 -0.37416842822E+02  0.56638386879E+02  0.41800000000E+01 0.  1.
</event>
<event>
11    1  0.8551154E-009  0.1404333E+03  0.7561462E-02  0.1107076E+00
         22   -1    0    0    0    0  0.00000000000E+00  0.00000000000E+00  0.26325251712E+04  0.26325251712E+04  0.00000000000E+00 0. -1.
         22   -1    0    0    0    0 -0.00000000000E+00 -0.00000000000E+00 -0.17345723960E+03  0.17345723960E+03  0.00000000000E+00 0.  1.
         24    2    1    2    0    0 -0.66252575460E+02 -0.18225600910E+02 -0.13111889616E+03  0.16921717080E+03  0.81979934623E+02 0.  0.
         25    2    1    2    0    0  0.19067910923E+02 -0.20950109603E+01  0.15690554275E+03  0.20158045698E+03  0.12508939600E+03 0.  0.
        -24    2    1    2    0    0  0.47184664537E+02  0.20320611870E+02  0.24332812850E+04  0.24351847830E+04  0.81411274767E+02 0.  0.
        -13    1    3    3    0    0 -0.18281657725E+02 -0.46299248519E+02 -0.47458047818E+02  0.68775764083E+02  0.00000000000E+00 0.  1.
         14    1    3    3    0    0 -0.47970917736E+02  0.28073647610E+02 -0.83660848340E+02  0.10044140672E+03  0.00000000000E+00 0. -1.
         11    1    5    5    0    0  0.25624240731E+02 -0.18376975935E+02  0.18329928164E+04  0.18332640235E+04  0.00000000000E+00 0. -1.
        -12    1    5    5    0    0  0.21560423807E+02  0.38697587805E+02  0.60028846864E+03  0.60192075953E+03  0.00000000000E+00 0.  1.
          5    1    4    4  501    0 -0.38034520859E+02 -0.34356600415E+02  0.32358475062E+02  0.60758078289E+02  0.41800000000E+01 0.  1.
         -5    1    4    4    0  501  0.57102431782E+02  0.32261589454E+02  0.12454706769E+03  0.14082237869E+03  0.41800000000E+01 0.  1.
</event>
<event>
11    1  0.8551154E-009  0.1994913E+03  0.7561462E-02  0.1054884E+00
         22   -1    0    0    0    0  0.00000000000E+00  0.00000000000E+00  0.13687630650E+03  0.13687630650E+03  0.00000000000E+00 0. -1.
         22   -1    0    0    0    0 -0.00000000000E+00 -0.00000000000E+00 -0.24282928301E+04  0.24282928301E+04  0.00000000000E+00 0.  1.
         24    2    1    2    0    0  0.52021751483E+02  0.13938326521E+03 -0.19419228107E+04  0.19492112071E+04  0.78906083226E+02 0.  0.
         25    2    1    2    0    0 -0.52133093600E+02 -0.21631639195E+03 -0.41453523555E+03  0.48682435639E+03  0.12509137295E+03 0.  0.
        -24    2    1    2    0    0  0.11134211776E+00  0.76933126739E+02  0.65041522651E+02  0.12913357309E+03  0.80785900035E+02 0.  0.
        -11    1    3    3    0    0  0.45648343890E+02  0.11937593810E+03 -0.18679140055E+04  0.18722812603E+04  0.00000000000E+00 0.  1.
         12    1    3    3    0    0  0.63734075930E+01  0.20007327115E+02 -0.74008805204E+02  0.76929946773E+02  0.00000000000E+00 0. -1.
         11    1    5    5    0    0  0.16268016286E+02  0.80704959249E+02  0.73630712123E+02  0.11045098718E+03  0.00000000000E+00 0. -1.
        -12    1    5    5    0    0 -0.16156674168E+02 -0.37718325102E+01 -0.85891894725E+01  0.18682585914E+02  0.00000000000E+00 0.  1.
          5    1    4    4  501    0 -0.38164680091E+02 -0.11575648127E+03 -0.10464020831E+03  0.16069583491E+03  0.41800000000E+01 0. -1.
         -5    1    4    4    0  501 -0.13968413509E+02 -0.10055991068E+03 -0.30989502724E+03  0.32612852148E+03  0.41800000000E+01 0. -1.
</event>
<event>
11    1  0.8551154E-009  0.2501121E+03  0.7561462E-02  0.1023840E+00
         22   -1    0    0    0    0  0.00000000000E+00  0.00000000000E+00  0.18598539566E+03  0.18598539566E+03  0.00000000000E+00 0. -1.
         22   -1    0    0    0    0 -0.00000000000E+00 -0.00000000000E+00 -0.15898776032E+04  0.15898776032E+04  0.00000000000E+00 0.  1.
         24    2    1    2    0    0 -0.55165398711E+02 -0.16149066513E+03 -0.12051191558E+04  0.12196464315E+04  0.78120306274E+02 0.  0.
         25    2    1    2    0    0 -0.17162529035E+03  0.16752829300E+03 -0.15538245767E+03  0.31195067338E+03  0.12509414543E+03 0.  0.
        -24    2    1    2    0    0  0.22679068906E+03 -0.60376278743E+01 -0.43390594073E+02  0.24426589390E+03  0.79451958259E+02 0.  0.
        -11    1    3    3    0    0 -0.39746305205E+02 -0.12112023149E+03 -0.10751600931E+04  0.10826906784E+04  0.00000000000E+00 0.  1.
         12    1    3    3    0    0 -0.15419093507E+02 -0.40370433640E+02 -0.12995906267E+03  0.13695575317E+03  0.00000000000E+00 0. -1.
         13    1    5    5    0    0  0.47619550822E+02 -0.23657310945E+02 -0.35741072309E+02  0.64068043762E+02  0.00000000000E+00 0. -1.
        -14    1    5    5    0    0  0.17917113824E+03  0.17619683071E+02 -0.76495217643E+01  0.18019785014E+03  0.00000000000E+00 0.  1.
          5    1    4    4  501    0 -0.29948955809E+02  0.80468213821E+02 -0.10985813050E+03  0.13949320638E+03  0.41800000000E+01 0. -1.
         -5    1    4    4    0  501 -0.14167633454E+03  0.87060079184E+02 -0.45524327168E+02  0.17245746699E+03  0.41800000000E+01 0. -1.
</event>
<event>
11    1  0.8551154E-009  0.1324548E+03  0.7561462E-02  0.1116289E+00
         22   -1    0    0    0    0  0.00000000000E+00  0.00000000000E+00  0.36118147166E+02  0.36118147166E+02  0.00000000000E+00 0.  1.
         22   -1    0    0    0    0 -0.00000000000E+00 -0.00000000000E+00 -0.43421304000E+04  0.43421304000E+04  0.00000000000E+00 0. -1.
        -24    2    1    2    0    0  0.18667274842E+02  0.72393503330E+01 -0.35371010688E+04  0.35380840001E+04  0.80953971136E+02 0.  0.
         25    2    1    2    0    0  0.73319776279E+01 -0.42711663204E+02 -0.72723421951E+03  0.73918539580E+03  0.12508954899E+03 0.  0.
         24    2    1    2    0    0 -0.25999252470E+02  0.35472312871E+02 -0.41676964533E+02  0.10097915129E+03  0.80781021981E+02 0.  0.
        -11    1    5    5    0    0 -0.22701770510E+02  0.28862654828E+01  0.20486784060E+02  0.30714967587E+02  0.00000000000E+00 0.  1.
         12    1    5    5    0    0 -0.32974819600E+01  0.32586047388E+02 -0.62163748594E+02  0.70264183699E+02  0.00000000000E+00 0. -1.
         11    1    3    3    0    0  0.37506339619E+02 -0.23901831466E+02 -0.23644368829E+04  0.23648551322E+04  0.00000000000E+00 0. -1.
        -12    1    3    3    0    0 -0.18839064777E+02  0.31141181799E+02 -0.11726641859E+04  0.11732288679E+04  0.00000000000E+00 0.  1.
          5    1    4    4  501    0  0.43849617105E+02  0.19201959991E+02 -0.15077473342E+03  0.15824663291E+03  0.41800000000E+01 0. -1.
         -5    1    4    4    0  501 -0.36517639477E+02 -0.61913623195E+02 -0.57645948609E+03  0.58093876290E+03  0.41800000000E+01 0. -1.
</event>
<event>
11    1  0.8551154E-009  0.2388546E+03  0.7561462E-02  0.1030010E+00
         22   -1    0    0    0    0  0.00000000000E+00  0.00000000000E+00  0.19796818772E+04  0.19796818772E+04  0.00000000000E+00 0.  1.
         22   -1    0    0    0    0 -0.00000000000E+00 -0.00000000000E+00 -0.39588605492E+03  0.39588605492E+03  0.00000000000E+00 0. -1.
        -24    2    1    2    0    0 -0.16148909447E+03  0.13327405493E+03 -0.29696187510E+03  0.37211379325E+03  0.80259694179E+02 0.  0.
         25    2    1    2    0    0  0.13287454805E+03 -0.11178318115E+03  0.12981977839E+03  0.25030248280E+03  0.12508810065E+03 0.  0.
         24    2    1    2    0    0  0.28614546413E+02 -0.21490873775E+02  0.17509379190E+04  0.17531516561E+04  0.80476599882E+02 0.  0.
        -13    1    5    5    0    0  0.45128078179E+02 -0.23557887384E+02  0.16548736937E+04  0.16556565042E+04  0.00000000000E+00 0.  1.
         14    1    5    5    0    0 -0.16513531766E+02  0.20670136084E+01  0.96064225224E+02  0.97495151903E+02  0.00000000000E+00 0. -1.
         13    1    3    3    0    0 -0.13673287374E+03  0.11518095150E+03 -0.28998523378E+03  0.34066694316E+03  0.00000000000E+00 0. -1.
        -14    1    3    3    0    0 -0.24756220723E+02  0.18093103426E+02 -0.69766413210E+01  0.31446850084E+02  0.00000000000E+00 0.  1.
          5    1    4    4  501    0  0.12687030839E+03 -0.30510697397E+02  0.63646542927E+02  0.14524232383E+03  0.41800000000E+01 0. -1.
         -5    1    4    4    0  501  0.60042396675E+01 -0.81272483757E+02  0.66173235465E+02  0.10506015897E+03  0.41800000000E+01 0. -1.
</event>
<event>
11    1  0.8551154E-009  0.1419465E+03  0.7561462E-02  0.1105404E+00
         22   -1    0    0    0    0  0.00000000000E+00  0.00000000000E+00  0.47992543629E+02  0.47992543629E+02  0.00000000000E+00 0. -1.
         22   -1    0    0    0    0 -0.00000000000E+00 -0.00000000000E+00 -0.18867574017E+04  0.18867574017E+04  0.00000000000E+00 0. -1.
         24    2    1    2    0    0 -0.60830117058E+02  0.28105870666E+02 -0.96532488535E+03  0.97108290078E+03  0.81606512089E+02 0.  0.
         25    2    1    2    0    0  0.65409263349E+02 -0.18001400537E+02 -0.87077153680E+03  0.88232310204E+03  0.12509422419E+03 0.  0.
        -24    2    1    2    0    0 -0.45791462908E+01 -0.10104470129E+02 -0.26684359401E+01  0.81343942529E+02  0.80539726461E+02 0.  0.
        -11    1    3    3    0    0 -0.47330240348E+02  0.24539503889E+02 -0.24998739097E+03  0.25560914410E+03  0.00000000000E+00 0.  1.
         12    1    3    3    0    0 -0.13499876710E+02  0.35663667775E+01 -0.71533749438E+03  0.71547375669E+03  0.00000000000E+00 0. -1.
         13    1    5    5    0    0  0.35871259825E+02 -0.17837764061E+02 -0.28189360246E+01  0.40160671165E+02  0.00000000000E+00 0. -1.
        -14    1    5    5    0    0 -0.40450406115E+02  0.77332939317E+01  0.15050008458E+00  0.41183271364E+02  0.00000000000E+00 0.  1.
          5    1    4    4  501    0  0.71075212650E+02 -0.10940150227E+02 -0.22035336033E+03  0.23182848951E+03  0.41800000000E+01 0.  1.
         -5    1    4    4    0  501 -0.56659493013E+01 -0.70612503101E+01 -0.65041817647E+03  0.65049461252E+03  0.41800000000E+01 0.  1.
</event>
<event>
11    1  0.1120805E-008  0.1533269E+03  0.7561462E-02  0.1093527E+00
         22   -1    0    0    0    0  0.00000000000E+00  0.00000000000E+00  0.69991691414E+03  0.69991691414E+03  0.00000000000E+00 0.  1.
         22   -1    0    0    0    0 -0.00000000000E+00 -0.00000000000E+00 -0.29992654604E+03  0.29992654604E+03  0.00000000000E+00 0. -1.
         24    2    1    2    0    0 -0.51002014133E+02 -0.57884267139E+02 -0.22985581097E+03  0.25593466756E+03  0.81957711026E+02 0.  0.
         25    2    1    2    0    0  0.69351120101E+01 -0.28847377775E+02  0.31479694396E+02  0.13235304548E+03  0.12508433357E+03 0.  0.
        -24    2    1    2    0    0  0.44066902123E+02  0.86731644914E+02  0.59836648468E+03  0.61155574714E+03  0.80583570193E+02 0.  0.
        -13    1    3    3    0    0  0.61687901238E+00 -0.48084188357E+02 -0.53579078959E+02  0.71994356805E+02  0.00000000000E+00 0.  1.
         14    1    3    3    0    0 -0.51618893146E+02 -0.98000787820E+01 -0.17627673201E+03  0.18394031076E+03  0.00000000000E+00 0. -1.
         11    1    5    5    0    0  0.66611017501E+01  0.20957068594E+02  0.25323930526E+02  0.33539088507E+02  0.00000000000E+00 0. -1.
        -12    1    5    5    0    0  0.37405800373E+02  0.65774576320E+02  0.57304255415E+03  0.57801665863E+03  0.00000000000E+00 0.  1.
          5    1    4    4  501    0 -0.47468498206E+02  0.19948824485E+02 -0.23515200597E+01  0.51712822074E+02  0.41800000000E+01 0.  1.
         -5    1    4    4    0  501  0.54403610216E+02 -0.48796202261E+02  0.33831214456E+02  0.80640223407E+02  0.41800000000E+01 0.  1.
</event>
<event>
11    1  0.8551154E-009  0.5900241E+03  0.7561462E-02  0.9212187E-01
         22   -1    0    0    0    0  0.00000000000E+00  0.00000000000E+00  0.40410773697E+03  0.40410773697E+03  0.00000000000E+00 0.  1.
         22   -1    0    0    0    0 -0.00000000000E+00 -0.00000000000E+00 -0.21536854599E+03  0.21536854599E+03  0.00000000000E+00 0.  1.
         24    2    1    2    0    0 -0.58534303243E+02  0.89089979823E+02 -0.37951847381E+02  0.14069336150E+03  0.83612140804E+02 0.  0.
         25    2    1    2    0    0  0.17655111304E+03 -0.15321323276E+03  0.16519723443E+03  0.31238183735E+03  0.12509075040E+03 0.  0.
        -24    2    1    2    0    0 -0.11801680980E+03  0.64123252940E+02  0.61493803932E+02  0.16640108410E+03  0.76603354411E+02 0.  0.
        -11    1    3    3    0    0 -0.36114738424E+02  0.18966725610E+01  0.11534857046E+02  0.37959512975E+02  0.00000000000E+00 0.  1.
         12    1    3    3    0    0 -0.22419564819E+02  0.87193307262E+02 -0.49486704427E+02  0.10273384853E+03  0.00000000000E+00 0. -1.
         11    1    5    5    0    0 -0.14003497438E+01 -0.88773732778E+01  0.21223215872E+02  0.23047638223E+02  0.00000000000E+00 0. -1.
        -12    1    5    5    0    0 -0.11661646005E+03  0.73000626218E+02  0.40270588060E+02  0.14335344588E+03  0.00000000000E+00 0.  1.
          5    1    4    4  501    0  0.18740365411E+03 -0.10884997008E+03  0.11897170488E+03  0.24726541311E+03  0.41800000000E+01 0. -1.
         -5    1    4    4    0  501 -0.10852541071E+02 -0.44363262685E+02  0.46225529544E+02  0.65116424237E+02  0.41800000000E+01 0. -1.
</event>
<event>
11    1  0.8551154E-009  0.1363358E+03  0.7561462E-02  0.1111720E+00
         22   -1    0    0    0    0  0.00000000000E+00  0.00000000000E+00  0.70607950086E+03  0.70607950086E+03  0.00000000000E+00 0.  1.
         22   -1    0    0    0    0 -0.00000000000E+00 -0.00000000000E+00 -0.22263292655E+03  0.22263292655E+03  0.00000000000E+00 0.  1.
         24    2    1    2    0    0 -0.16493538046E+02 -0.10444735727E+02 -0.18478559374E+03  0.20225043087E+03  0.79864834775E+02 0.  0.
         25    2    1    2    0    0  0.10345807479E+02 -0.45393681505E+02  0.15892777636E+03  0.20754064390E+03  0.12508980261E+03 0.  0.
        -24    2    1    2    0    0  0.61477305671E+01  0.55838417232E+02  0.50930439169E+03  0.51892135264E+03  0.82052930536E+02 0.  0.
        -13    1    3    3    0    0  0.20891290511E+02  0.17981941027E+02 -0.11411878730E+03  0.11740057000E+03  0.00000000000E+00 0.  1.
         14    1    3    3    0    0 -0.37384828557E+02 -0.28426676754E+02 -0.70666806439E+02  0.84849860871E+02  0.00000000000E+00 0. -1.
         11    1    5    5    0    0  0.35905507964E+02  0.19726366429E+02  0.11968964192E+03  0.12650670108E+03  0.00000000000E+00 0. -1.
        -12    1    5    5    0    0 -0.29757777397E+02  0.36112050803E+02  0.38961474977E+03  0.39241465157E+03  0.00000000000E+00 0.  1.
          5    1    4    4  501    0 -0.31424795927E+02 -0.75033638350E+02  0.10708295319E+03  0.13454291489E+03  0.41800000000E+01 0.  1.
         -5    1    4    4    0  501  0.41770603406E+02  0.29639956845E+02  0.51844823168E+02  0.72997729006E+02  0.41800000000E+01 0.  1.
</event>
<event>
11    1  0.8551154E-009  0.2894078E+03  0.7561462E-02  0.1004776E+00
         22   -1    0    0    0    0  0.00000000000E+00  0.00000000000E+00  0.61954264431E+03  0.61954264431E+03  0.00000000000E+00 0. -1.
         22   -1    0    0    0    0 -0.00000000000E+00 -0.00000000000E+00 -0.38299979147E+03  0.38299979147E+03  0.00000000000E+00 0. -1.
         24    2    1    2    0    0  0.23297698959E+03  0.75209842624E+02 -0.19443888991E+03  0.32701102633E+03  0.95890204534E+02 0.  0.
         25    2    1    2    0    0 -0.34083581618E+03 -0.11288745077E+03  0.31236409151E+03  0.49206934860E+03  0.12509311746E+03 0.  0.
        -24    2    1    2    0    0  0.10785882659E+03  0.37677608149E+02  0.11861765124E+03  0.18346206085E+03  0.80839668209E+02 0.  0.
        -13    1    3    3    0    0  0.12332396694E+03  0.75990294700E+02 -0.69157057843E+02  0.16051798765E+03  0.00000000000E+00 0.  1.
         14    1    3    3    0    0  0.10965302265E+03 -0.78045207520E+00 -0.12528183207E+03  0.16649303867E+03  0.00000000000E+00 0. -1.
         13    1    5    5    0    0  0.10292339594E+03  0.56792271228E+02  0.87228659047E+02  0.14638110008E+03  0.00000000000E+00 0. -1.
        -14    1    5    5    0    0  0.49354306509E+01 -0.19114663079E+02  0.31388992191E+02  0.37080960763E+02  0.00000000000E+00 0.  1.
          5    1    4    4  501    0 -0.32951354756E+03 -0.13406392379E+03  0.29461299451E+03  0.46191622901E+03  0.41800000000E+01 0.  1.
         -5    1    4    4    0  501 -0.11322268614E+02  0.21176473020E+02  0.17751097001E+02  0.30153119588E+02  0.41800000000E+01 0.  1.
</event>
<event>
11    1  0.8551154E-009  0.1681353E+03  0.7561462E-02  0.1079666E+00
         22   -1    0    0    0    0  0.00000000000E+00  0.00000000000E+00  0.23379029500E+03  0.23379029500E+03  0.00000000000E+00 0.  1.
         22   -1    0    0    0    0 -0.00000000000E+00 -0.00000000000E+00 -0.99533956604E+03  0.99533956604E+03  0.00000000000E+00 0.  1.
         24    2    1    2    0    0  0.32402521211E+02 -0.11509015783E+03 -0.80628954043E+03  0.81911699447E+03  0.80957765596E+02 0.  0.
         25    2    1    2    0    0 -0.25813383988E+02  0.73236327586E+02 -0.14395433053E+03  0.20591122323E+03  0.12508673832E+03 0.  0.
        -24    2    1    2    0    0 -0.65891372232E+01  0.41853830243E+02  0.18869459992E+03  0.20410164334E+03  0.65243152441E+02 0.  0.
        -13    1    3    3    0    0 -0.49460463866E+01 -0.67923989214E+02 -0.61064559019E+03  0.61443158163E+03  0.00000000000E+00 0.  1.
         14    1    3    3    0    0  0.37348567598E+02 -0.47166168615E+02 -0.19564395024E+03  0.20468541284E+03  0.00000000000E+00 0. -1.
         11    1    5    5    0    0  0.28701897302E+01  0.33108686014E+02  0.29652557199E+02  0.44538716047E+02  0.00000000000E+00 0. -1.
        -12    1    5    5    0    0 -0.94593269534E+01  0.87451442283E+01  0.15904204272E+03  0.15956292729E+03  0.00000000000E+00 0.  1.
          5    1    4    4  501    0 -0.76577592246E+02  0.46691747135E+02 -0.88610342551E+02  0.12614876968E+03  0.41800000000E+01 0.  1.
         -5    1    4    4    0  501  0.50764208258E+02  0.26544580451E+02 -0.55343987977E+02  0.79762453552E+02  0.41800000000E+01 0.  1.
</event>
<event>
11    1  0.8551154E-009  0.1350271E+03  0.7561462E-02  0.1113242E+00
         22   -1    0    0    0    0  0.00000000000E+00  0.00000000000E+00  0.22205646301E+03  0.22205646301E+03  0.00000000000E+00 0. -1.
         22   -1    0    0    0    0 -0.00000000000E+00 -0.00000000000E+00 -0.35804112342E+03  0.35804112342E+03  0.00000000000E+00 0. -1.
         24    2    1    2    0    0 -0.20683429181E+02 -0.44543725218E+02 -0.28207720247E+03  0.29753048996E+03  0.80900535263E+02 0.  0.
         25    2    1    2    0    0  0.59115227234E+02  0.53165334838E+02  0.51318502400E+02  0.15685914560E+03  0.12510011971E+03 0.  0.
        -24    2    1    2    0    0 -0.38431798053E+02 -0.86216096209E+01  0.94774039659E+02  0.12570795087E+03  0.72588119309E+02 0.  0.
        -11    1    3    3    0    0 -0.15184888918E+01 -0.38430963003E+02 -0.43330023324E+02  0.57937342423E+02  0.00000000000E+00 0.  1.
         12    1    3    3    0    0 -0.19164940289E+02 -0.61127622150E+01 -0.23874717915E+03  0.23959314754E+03  0.00000000000E+00 0. -1.
         13    1    5    5    0    0 -0.58034136230E+02 -0.96557457482E+01  0.86021097863E+02  0.10421527561E+03  0.00000000000E+00 0. -1.
        -14    1    5    5    0    0  0.19602338178E+02  0.10341361274E+01  0.87529417958E+01  0.21492675255E+02  0.00000000000E+00 0.  1.
          5    1    4    4  501    0 -0.61541676941E+01  0.54622099834E+02  0.69739172367E+02  0.88895849919E+02  0.41800000000E+01 0.  1.
         -5    1    4    4    0  501  0.65269394928E+02 -0.14567649952E+01 -0.18420669968E+02  0.67963295686E+02  0.41800000000E+01 0.  1.
</event>
<event>
11    1  0.8551154E-009  0.1490287E+03  0.7561462E-02  0.1097875E+00
         22   -1    0    0    0    0  0.00000000000E+00  0.00000000000E+00  0.10538188385E+04  0.10538188385E+04  0.00000000000E+00 0. -1.
         22   -1    0    0    0    0 -0.00000000000E+00 -0.00000000000E+00 -0.12971035808E+03  0.12971035808E+03  0.00000000000E+00 0. -1.
        -24    2    1    2    0    0 -0.63972922793E+01 -0.79908002731E+02 -0.86047219223E+02  0.14252615537E+03  0.80519356558E+02 0.  0.
         25    2    1    2    0    0  0.19287128470E+02  0.95494054062E+02  0.51936602929E+03  0.54302893033E+03  0.12509292191E+03 0.  0.
         24    2    1    2    0    0 -0.12889836191E+02 -0.15586051332E+02  0.49078967036E+03  0.49797411089E+03  0.81820790208E+02 0.  0.
        -11    1    5    5    0    0  0.68768208996E+01  0.30081105203E+02  0.26352022932E+03  0.26532070183E+03  0.00000000000E+00 0.  1.
         12    1    5    5    0    0 -0.19766657090E+02 -0.45667156535E+02  0.22726944104E+03  0.23265340906E+03  0.00000000000E+00 0. -1.
         13    1    3    3    0    0 -0.20228406998E+02 -0.88546360424E+02 -0.87545798077E+02  0.12615035931E+03  0.00000000000E+00 0. -1.
        -14    1    3    3    0    0  0.13831114718E+02  0.86383576937E+01  0.14985788538E+01  0.16375796059E+02  0.00000000000E+00 0.  1.
          5    1    4    4  501    0 -0.27693162330E+02  0.51602022022E+02  0.81488289000E+02  0.10043651508E+03  0.41800000000E+01 0. -1.
         -5    1    4    4    0  501  0.46980290800E+02  0.43892032041E+02  0.43787774029E+03  0.44259241525E+03  0.41800000000E+01 0. -1.
</event>
<event>
11    1  0.8551154E-009  0.1498462E+03  0.7561462E-02  0.1097036E+00
         22   -1    0    0    0    0  0.00000000000E+00  0.00000000000E+00  0.87018508463E+03  0.87018508463E+03  0.00000000000E+00 0.  1.
         22   -1    0    0    0    0 -0.00000000000E+00 -0.00000000000E+00 -0.17056825060E+04  0.17056825060E+04  0.00000000000E+00 0. -1.
         24    2    1    2    0    0  0.42566529885E+02  0.47679104397E+02 -0.16484183277E+04  0.16516797613E+04  0.81718078558E+02 0.  0.
         25    2    1    2    0    0 -0.18579624661E+02  0.36053815946E+02  0.33364742799E+02  0.13567091499E+03  0.12509320931E+03 0.  0.
        -24    2    1    2    0    0 -0.23986905224E+02 -0.83732920343E+02  0.77955616346E+03  0.78851691440E+03  0.80402355314E+02 0.  0.
        -11    1    3    3    0    0  0.10545233581E+02 -0.23261973528E+02 -0.34995712780E+03  0.35088789187E+03  0.00000000000E+00 0.  1.
         12    1    3    3    0    0  0.32021296304E+02  0.70941077926E+02 -0.12984611999E+04  0.13007918694E+04  0.00000000000E+00 0. -1.
         13    1    5    5    0    0  0.16198275849E+01 -0.70243527228E+01  0.30771480206E+01  0.78379979918E+01  0.00000000000E+00 0. -1.
        -14    1    5    5    0    0 -0.25606732809E+02 -0.76708567620E+02  0.77647901544E+03  0.78067891641E+03  0.00000000000E+00 0.  1.
          5    1    4    4  501    0 -0.96449252069E+01 -0.90931874748E+01  0.73292651559E+02  0.74598899545E+02  0.41800000000E+01 0.  1.
         -5    1    4    4    0  501 -0.89346994542E+01  0.45147003421E+02 -0.39927908761E+02  0.61072015443E+02  0.41800000000E+01 0.  1.
</event>
<event>
11    1  0.8551154E-009  0.1471109E+03  0.7561462E-02  0.1099868E+00
         22   -1    0    0    0    0  0.00000000000E+00  0.00000000000E+00  0.24763553017E+03  0.24763553017E+03  0.00000000000E+00 0.  1.
         22   -1    0    0    0    0 -0.00000000000E+00 -0.00000000000E+00 -0.39178351063E+03  0.39178351063E+03  0.00000000000E+00 0. -1.
         24    2    1    2    0    0 -0.36148117491E+02 -0.14388466848E+02 -0.29886732146E+03  0.31237527415E+03  0.82115295083E+02 0.  0.
         25    2    1    2    0    0  0.18038645398E+02  0.87800893710E+02  0.24428839675E+02  0.15581780190E+03  0.12509208415E+03 0.  0.
        -24    2    1    2    0    0  0.18109472093E+02 -0.73412426861E+02  0.13029050133E+03  0.17122596474E+03  0.81396430324E+02 0.  0.
        -11    1    3    3    0    0 -0.55721626892E+02  0.12554676770E+02 -0.17350810561E+03  0.18266795648E+03  0.00000000000E+00 0.  1.
         12    1    3    3    0    0  0.19573509401E+02 -0.26943143619E+02 -0.12535921585E+03  0.12970731767E+03  0.00000000000E+00 0. -1.
         13    1    5    5    0    0  0.21039652224E+02 -0.18989815021E+02 -0.17331286439E+01  0.28395136470E+02  0.00000000000E+00 0. -1.
        -14    1    5    5    0    0 -0.29301801310E+01 -0.54422611840E+02  0.13202362997E+03  0.14283082827E+03  0.00000000000E+00 0.  1.
          5    1    4    4  501    0  0.48111238119E+02  0.10633314149E+03  0.92742834141E+01  0.11715337360E+03  0.41800000000E+01 0. -1.
         -5    1    4    4    0  501 -0.30072592721E+02 -0.18532247780E+02  0.15154556261E+02  0.38664428305E+02  0.41800000000E+01 0. -1.
</event>
<event>
11    1  0.8551154E-009  0.2055899E+03  0.7561462E-02  0.1050640E+00
         22   -1    0    0    0    0  0.00000000000E+00  0.00000000000E+00  0.41029424626E+03  0.41029424626E+03  0.00000000000E+00 0. -1.
         22   -1    0    0    0    0 -0.00000000000E+00 -0.00000000000E+00 -0.25201272256E+04  0.25201272256E+04  0.00000000000E+00 0. -1.
        -24    2    1    2    0    0  0.12517316755E+03  0.10376252184E+03 -0.23797407363E+04  0.23867071663E+04  0.82280878147E+02 0.  0.
         25    2    1    2    0    0 -0.17678071779E+03 -0.67359485626E+02 -0.28251329756E+02  0.22854809241E+03  0.12508944970E+03 0.  0.
         24    2    1    2    0    0  0.51607550243E+02 -0.36403036213E+02  0.29815908674E+03  0.31516621311E+03  0.80264441657E+02 0.  0.
        -11    1    5    5    0    0 -0.32767430399E+01  0.17383330305E+02  0.20537571875E+02  0.27105517445E+02  0.00000000000E+00 0.  1.
         12    1    5    5    0    0  0.54884293283E+02 -0.53786366518E+02  0.27762151487E+03  0.28806069567E+03  0.00000000000E+00 0. -1.
         11    1    3    3    0    0  0.13354457329E+03  0.89505620615E+02 -0.19378095137E+04  0.19444667959E+04  0.00000000000E+00 0. -1.
        -12    1    3    3    0    0 -0.83714057461E+01  0.14256901224E+02 -0.44193122263E+03  0.44224037039E+03  0.00000000000E+00 0.  1.
          5    1    4    4  501    0 -0.29978971528E+02 -0.87934327699E+01 -0.59544590064E+02  0.67372797178E+02  0.41800000000E+01 0.  1.
         -5    1    4    4    0  501 -0.14680174626E+03 -0.58566052856E+02  0.31293260308E+02  0.16117529523E+03  0.41800000000E+01 0.  1.
</event>
<event>
11    1  0.8551154E-009  0.1470770E+03  0.7561462E-02  0.1099904E+00
         22   -1    0    0    0    0  0.00000000000E+00  0.00000000000E+00  0.62959580982E+03  0.62959580982E+03  0.00000000000E+00 0.  1.
         22   -1    0    0    0    0 -0.00000000000E+00 -0.00000000000E+00 -0.17661405449E+03  0.17661405449E+03  0.00000000000E+00 0.  1.
         24    2    1    2    0    0  0.34594114793E+02  0.18040302775E+02 -0.12744913778E+03  0.15576663482E+03  0.80608662684E+02 0.  0.
         25    2    1    2    0    0 -0.94839713510E+01 -0.89429381163E+02  0.18977605546E+03  0.24443860548E+03  0.12509084978E+03 0.  0.
        -24    2    1    2    0    0 -0.25110143442E+02  0.71389078388E+02  0.39065483765E+03  0.40600462401E+03  0.80632702530E+02 0.  0.
        -13    1    3    3    0    0  0.44330670691E+02 -0.21104316433E+02 -0.73944897961E+02  0.88760624550E+02  0.00000000000E+00 0.  1.
         14    1    3    3    0    0 -0.97365558974E+01  0.39144619208E+02 -0.53504239818E+02  0.67006010269E+02  0.00000000000E+00 0. -1.
         13    1    5    5    0    0 -0.27125271879E+02 -0.41172724396E+01  0.49566709769E+02  0.56653252547E+02  0.00000000000E+00 0. -1.
        -14    1    5    5    0    0  0.20151284370E+01  0.75506350828E+02  0.34108812788E+03  0.34935137146E+03  0.00000000000E+00 0.  1.
          5    1    4    4  501    0 -0.50276905253E+02 -0.87643749993E+01  0.26243108875E+02  0.57539157401E+02  0.41800000000E+01 0. -1.
         -5    1    4    4    0  501  0.40792933902E+02 -0.80665006164E+02  0.16353294658E+03  0.18689944808E+03  0.41800000000E+01 0. -1.
</event>
<event>
11    1  0.8551154E-009  0.1466191E+03  0.7561462E-02  0.1100384E+00
         22   -1    0    0    0    0  0.00000000000E+00  0.00000000000E+00  0.34102351014E+03  0.34102351014E+03  0.00000000000E+00 0. -1.
         22   -1    0    0    0    0 -0.00000000000E+00 -0.00000000000E+00 -0.37706345508E+03  0.37706345508E+03  0.00000000000E+00 0. -1.
        -24    2    1    2    0    0  0.48950882768E+02  0.55756523594E+02 -0.22920220594E+03  0.25238702745E+03  0.75236836548E+02 0.  0.
         25    2    1    2    0    0 -0.49518793384E+02 -0.69741870035E+02 -0.85871339770E+02  0.17417741992E+03  0.12509135574E+03 0.  0.
         24    2    1    2    0    0  0.56791061583E+00  0.13985346441E+02  0.27903360077E+03  0.29152251786E+03  0.83244913500E+02 0.  0.
        -11    1    5    5    0    0 -0.29940593735E+02 -0.21247043189E+02  0.14661218030E+03  0.15113903338E+03  0.00000000000E+00 0.  1.
         12    1    5    5    0    0  0.30508504351E+02  0.35232389630E+02  0.13242142046E+03  0.14038348448E+03  0.00000000000E+00 0. -1.
         11    1    3    3    0    0  0.37999571671E+02  0.73119033798E+02 -0.20309771559E+03  0.21917810709E+03  0.00000000000E+00 0. -1.
        -12    1    3    3    0    0  0.10951311097E+02 -0.17362510204E+02 -0.26104490349E+02  0.33208920364E+02  0.00000000000E+00 0.  1.
          5    1    4    4  501    0 -0.20694450405E+02 -0.64936744165E+02  0.14285516754E+02  0.69760944728E+02  0.41800000000E+01 0. -1.
         -5    1    4    4    0  501 -0.28824342979E+02 -0.48051258696E+01 -0.10015685652E+03  0.10441647519E+03  0.41800000000E+01 0. -1.
</event>
<event>
11    1  0.8551154E-009  0.1480711E+03  0.7561462E-02  0.1098866E+00
         22   -1    0    0    0    0  0.00000000000E+00  0.00000000000E+00  0.53964508317E+03  0.53964508317E+03  0.00000000000E+00 0. -1.
         22   -1    0    0    0    0 -0.00000000000E+00 -0.00000000000E+00 -0.40919106894E+03  0.40919106894E+03  0.00000000000E+00 0.  1.
         24    2    1    2    0    0  0.46260516217E+02  0.62023583946E+02 -0.32066735291E+03  0.34019533673E+03  0.83176652868E+02 0.  0.
         25    2    1    2    0    0 -0.87219082245E+02 -0.53489948975E+02  0.14030192191E+02  0.16221424200E+03  0.12509304963E+03 0.  0.
        -24    2    1    2    0    0  0.40958566028E+02 -0.85336349715E+01  0.43709117496E+03  0.44642657338E+03  0.80607463266E+02 0.  0.
        -11    1    3    3    0    0  0.44811573032E+02 -0.22752525016E+01 -0.18023297669E+03  0.18573416417E+03  0.00000000000E+00 0.  1.
         12    1    3    3    0    0  0.14489431851E+01  0.64298836448E+02 -0.14043437622E+03  0.15446117256E+03  0.00000000000E+00 0. -1.
         13    1    5    5    0    0  0.64534547237E+02 -0.50850609776E+01  0.27038677441E+03  0.27802800832E+03  0.00000000000E+00 0. -1.
        -14    1    5    5    0    0 -0.23575981210E+02 -0.34485739939E+01  0.16670440055E+03  0.16839856506E+03  0.00000000000E+00 0.  1.
          5    1    4    4  501    0 -0.22806512266E+02 -0.20373062994E+02 -0.54360805091E+02  0.62512144642E+02  0.41800000000E+01 0. -1.
         -5    1    4    4    0  501 -0.64412569979E+02 -0.33116885981E+02  0.68390997283E+02  0.99702097358E+02  0.41800000000E+01 0. -1.
</event>
<event>
11    1  0.8551154E-009  0.1413410E+03  0.7561462E-02  0.1106070E+00
         22   -1    0    0    0    0  0.00000000000E+00  0.00000000000E+00  0.93410843770E+02  0.93410843770E+02  0.00000000000E+00 0.  1.
         22   -1    0    0    0    0 -0.00000000000E+00 -0.00000000000E+00 -0.20392792445E+04  0.20392792445E+04  0.00000000000E+00 0.  1.
         24    2    1    2    0    0  0.46138257663E+02 -0.49330433362E+02 -0.16880260790E+04  0.16912473099E+04  0.79518484331E+02 0.  0.
         25    2    1    2    0    0 -0.36068636860E+02  0.36266076577E+02 -0.32354452672E+03  0.35063505777E+03  0.12509079940E+03 0.  0.
        -24    2    1    2    0    0 -0.10069620803E+02  0.13064356785E+02  0.65702204984E+02  0.90807720614E+02  0.60474686456E+02 0.  0.
        -13    1    3    3    0    0  0.55948371161E+01 -0.61565351777E+02 -0.10479534723E+04  0.10497752497E+04  0.00000000000E+00 0.  1.
         14    1    3    3    0    0  0.40543420546E+02  0.12234918415E+02 -0.64007260664E+03  0.64147206014E+03  0.00000000000E+00 0. -1.
         11    1    5    5    0    0  0.75932598832E+01 -0.21848279361E+02  0.29642420528E+02  0.37598909578E+02  0.00000000000E+00 0. -1.
        -12    1    5    5    0    0 -0.17662880686E+02  0.34912636146E+02  0.36059784456E+02  0.53208811036E+02  0.00000000000E+00 0.  1.
          5    1    4    4  501    0 -0.34211508752E+02 -0.28644586798E+02 -0.41155205892E+02  0.60845402916E+02  0.41800000000E+01 0. -1.
         -5    1    4    4    0  501 -0.18571281078E+01  0.64910663375E+02 -0.28238932083E+03  0.28978965486E+03  0.41800000000E+01 0. -1.
</event>
<event>
11    1  0.8551154E-009  0.1289080E+03  0.7561462E-02  0.1120618E+00
         22   -1    0    0    0    0  0.00000000000E+00  0.00000000000E+00  0.59564646190E+02  0.59564646190E+02  0.00000000000E+00 0.  1.
         22   -1    0    0    0    0 -0.00000000000E+00 -0.00000000000E+00 -0.66551418188E+03  0.66551418188E+03  0.00000000000E+00 0.  1.
        -24    2    1    2    0    0 -0.10349095033E+02  0.33935044994E+02 -0.35509858372E+03  0.36591042275E+03  0.80850122288E+02 0.  0.
         25    2    1    2    0    0 -0.35238040740E+00 -0.19683838001E+02 -0.25136683010E+03  0.28146651412E+03  0.12510210888E+03 0.  0.
         24    2    1    2    0    0  0.10701475441E+02 -0.14251206993E+02  0.51587813578E+00  0.77701891187E+02  0.75628693539E+02 0.  0.
        -11    1    5    5    0    0  0.19611870557E+02 -0.27310014970E+02  0.29472230910E+02  0.44711014071E+02  0.00000000000E+00 0.  1.
         12    1    5    5    0    0 -0.89103951167E+01  0.13058807977E+02 -0.28956352774E+02  0.32990877116E+02  0.00000000000E+00 0. -1.
         11    1    3    3    0    0 -0.36304686035E+02 -0.80522325046E+01 -0.11772436724E+03  0.12345807110E+03  0.00000000000E+00 0. -1.
        -12    1    3    3    0    0  0.25955591002E+02  0.41987277499E+02 -0.23737421647E+03  0.24245235166E+03  0.00000000000E+00 0.  1.
          5    1    4    4  501    0 -0.57977766295E+02 -0.88847716900E+01 -0.17798313886E+03  0.18744554055E+03  0.41800000000E+01 0. -1.
         -5    1    4    4    0  501  0.57625385888E+02 -0.10799066311E+02 -0.73383691241E+02  0.94020973575E+02  0.41800000000E+01 0. -1.
</event>
<event>
11    1  0.8551154E-009  0.2451600E+03  0.7561462E-02  0.1026510E+00
         22   -1    0    0    0    0  0.00000000000E+00  0.00000000000E+00  0.22844532429E+04  0.22844532429E+04  0.00000000000E+00 0. -1.
         22   -1    0    0    0    0 -0.00000000000E+00 -0.00000000000E+00 -0.36439151848E+02  0.36439151848E+02  0.00000000000E+00 0. -1.
         24    2    1    2    0    0  0.27047681790E+02 -0.47496810023E+02  0.38509302461E+03  0.39714511968E+03  0.80250136627E+02 0.  0.
         25    2    1    2    0    0 -0.82678389176E+02 -0.17765452053E+03  0.81988129932E+03  0.85220257384E+03  0.12508811763E+03 0.  0.
        -24    2    1    2    0    0  0.55630707386E+02  0.22515133055E+03  0.10430397671E+04  0.10715447012E+04  0.80549324610E+02 0.  0.
        -13    1    3    3    0    0  0.20656477038E+02  0.16523189466E+02  0.57481619674E+02  0.63275923021E+02  0.00000000000E+00 0.  1.
         14    1    3    3    0    0  0.63912047514E+01 -0.64019999490E+02  0.32761140494E+03  0.33386919666E+03  0.00000000000E+00 0. -1.
         11    1    5    5    0    0  0.56299545396E+02  0.20034282197E+03  0.77819779368E+03  0.80554248256E+03  0.00000000000E+00 0. -1.
        -12    1    5    5    0    0 -0.66883800950E+00  0.24808508584E+02  0.26484197340E+03  0.26600221864E+03  0.00000000000E+00 0.  1.
          5    1    4    4  501    0 -0.80122408046E+02 -0.70444341866E+02  0.24297256988E+03  0.26539620887E+03  0.41800000000E+01 0.  1.
         -5    1    4    4    0  501 -0.25559811299E+01 -0.10721017867E+03  0.57690872945E+03  0.58680636496E+03  0.41800000000E+01 0.  1.
</event>
<event>
11    1  0.8551154E-009  0.1620269E+03  0.7561462E-02  0.1085186E+00
         22   -1    0    0    0    0  0.00000000000E+00  0.00000000000E+00  0.15140640282E+04  0.15140640282E+04  0.00000000000E+00 0.  1.
         22   -1    0    0    0    0 -0.00000000000E+00 -0.00000000000E+00 -0.82572050644E+02  0.82572050644E+02  0.00000000000E+00 0.  1.
         24    2    1    2    0    0  0.68302204567E+02 -0.79153977094E+02  0.18431858165E+02  0.13333806291E+03  0.80676901203E+02 0.  0.
         25    2    1    2    0    0 -0.11266052849E+03  0.24263691292E+02  0.29780683123E+03  0.34294783382E+03  0.12507272524E+03 0.  0.
        -24    2    1    2    0    0  0.44358323923E+02  0.54890285802E+02  0.11152532882E+04  0.11203501821E+04  0.80087635930E+02 0.  0.
        -13    1    3    3    0    0 -0.62520977049E+01  0.12255463216E+02 -0.98328992255E+00  0.13793185398E+02  0.00000000000E+00 0.  1.
         14    1    3    3    0    0  0.74554302272E+02 -0.91409440311E+02  0.19415148087E+02  0.11954487752E+03  0.00000000000E+00 0. -1.
         11    1    5    5    0    0 -0.10772107391E+02  0.27054874237E+00  0.23620105520E+02  0.25961912084E+02  0.00000000000E+00 0. -1.
        -12    1    5    5    0    0  0.55130431314E+02  0.54619737060E+02  0.10916331827E+04  0.10943882701E+04  0.00000000000E+00 0.  1.
          5    1    4    4  501    0 -0.94251146990E+02  0.88033846144E+00  0.29832713805E+03  0.31289072757E+03  0.41800000000E+01 0. -1.
         -5    1    4    4    0  501 -0.18409381499E+02  0.23383352831E+02 -0.52030681459E+00  0.30057106248E+02  0.41800000000E+01 0. -1.
</event>
<event>
11    1  0.8551154E-009  0.1380968E+03  0.7561462E-02  0.1109702E+00
         22   -1    0    0    0    0  0.00000000000E+00  0.00000000000E+00  0.13426606238E+03  0.13426606238E+03  0.00000000000E+00 0. -1.
         22   -1    0    0    0    0 -0.00000000000E+00 -0.00000000000E+00 -0.28482537076E+04  0.28482537076E+04  0.00000000000E+00 0.  1.
        -24    2    1    2    0    0  0.32287013899E+02  0.62184598392E+02 -0.21191085241E+04  0.21217679071E+04  0.79804380225E+02 0.  0.
         25    2    1    2    0    0  0.10073213287E+01 -0.11715299150E+02 -0.70066242005E+03  0.71183723568E+03  0.12508461255E+03 0.  0.
         24    2    1    2    0    0 -0.33294335227E+02 -0.50469299243E+02  0.10578329887E+03  0.14891462727E+03  0.85614233461E+02 0.  0.
        -11    1    5    5    0    0 -0.19065369322E+02 -0.68679148552E+01 -0.11276289020E+02  0.23190757985E+02  0.00000000000E+00 0.  1.
         12    1    5    5    0    0 -0.14228965905E+02 -0.43601384388E+02  0.11705958789E+03  0.12572386928E+03  0.00000000000E+00 0. -1.
         11    1    3    3    0    0 -0.25684152237E+02  0.15283806421E+02 -0.44743335712E+03  0.44843046226E+03  0.00000000000E+00 0. -1.
        -12    1    3    3    0    0  0.57971166136E+02  0.46900791971E+02 -0.16716751669E+04  0.16733374448E+04  0.00000000000E+00 0.  1.
          5    1    4    4  501    0  0.57503846243E+02  0.15873147531E+02 -0.41659183563E+03  0.42086206655E+03  0.41800000000E+01 0.  1.
         -5    1    4    4    0  501 -0.56496524914E+02 -0.27588446680E+02 -0.28407058443E+03  0.29097516914E+03  0.41800000000E+01 0.  1.
</event>
<event>
11    1  0.8551154E-009  0.1740991E+03  0.7561462E-02  0.1074519E+00
         22   -1    0    0    0    0  0.00000000000E+00  0.00000000000E+00  0.10105310481E+03  0.10105310481E+03  0.00000000000E+00 0. -1.
         22   -1    0    0    0    0 -0.00000000000E+00 -0.00000000000E+00 -0.21734141421E+04  0.21734141421E+04  0.00000000000E+00 0. -1.
        -24    2    1    2    0    0 -0.80678915715E+01 -0.88663290758E+01 -0.17682721271E+04  0.17701380723E+04  0.80366514854E+02 0.  0.
         25    2    1    2    0    0  0.27876271637E+01  0.12836586255E+03 -0.31097069666E+03  0.35894032117E+03  0.12509921842E+03 0.  0.
         24    2    1    2    0    0  0.52802644078E+01 -0.11949953347E+03  0.68817865171E+01  0.14538885344E+03  0.82356177833E+02 0.  0.
        -11    1    5    5    0    0 -0.16931074001E+02  0.17789857333E+01 -0.11760996753E+02  0.20691715774E+02  0.00000000000E+00 0.  1.
         12    1    5    5    0    0  0.22211338409E+02 -0.12127851920E+03  0.18642783270E+02  0.12469713767E+03  0.00000000000E+00 0. -1.
         13    1    3    3    0    0 -0.13924551114E+02  0.24310282302E+02 -0.14116976207E+04  0.14119755859E+04  0.00000000000E+00 0. -1.
        -14    1    3    3    0    0  0.58566595422E+01 -0.33176611378E+02 -0.35657450644E+03  0.35816248637E+03  0.00000000000E+00 0.  1.
          5    1    4    4  501    0  0.59877679247E+02  0.34618308081E+02 -0.12699729575E+03  0.14467048508E+03  0.41800000000E+01 0. -1.
         -5    1    4    4    0  501 -0.57090052083E+02  0.93747554466E+02 -0.18397340091E+03  0.21426983609E+03  0.41800000000E+01 0. -1.
</event>
<event>
11    1  0.8551154E-009  0.3191152E+03  0.7561462E-02  0.9924108E-01
         22   -1    0    0    0    0  0.00000000000E+00  0.00000000000E+00  0.17681403439E+04  0.17681403439E+04  0.00000000000E+00 0.  1.
         22   -1    0    0    0    0 -0.00000000000E+00 -0.00000000000E+00 -0.23189360874E+03  0.23189360874E+03  0.00000000000E+00 0. -1.
         24    2    1    2    0    0  0.19778941925E+03 -0.11684841072E+03  0.11854470420E+03  0.26707924927E+03  0.67113881131E+02 0.  0.
         25    2    1    2    0    0 -0.30776285509E+03  0.22826573979E+03  0.11596525397E+03  0.41942656159E+03  0.12508987773E+03 0.  0.
        -24    2    1    2    0    0  0.10997343583E+03 -0.11141732906E+03  0.13017367770E+04  0.13135281418E+04  0.79558562365E+02 0.  0.
        -11    1    3    3    0    0  0.11170033791E+03 -0.78914839836E+02  0.34784403939E+02  0.14111864580E+03  0.00000000000E+00 0.  1.
         12    1    3    3    0    0  0.86089081343E+02 -0.37933570886E+02  0.83760300259E+02  0.12596060347E+03  0.00000000000E+00 0. -1.
         11    1    5    5    0    0 -0.12681210203E+02 -0.68041659026E+01  0.10988049902E+03  0.11081892361E+03  0.00000000000E+00 0. -1.
        -12    1    5    5    0    0  0.12265464604E+03 -0.10461316316E+03  0.11918562780E+04  0.12027092181E+04  0.00000000000E+00 0.  1.
          5    1    4    4  501    0 -0.29492419373E+03  0.24364837257E+03  0.11129045119E+03  0.39843173371E+03  0.41800000000E+01 0.  1.
         -5    1    4    4    0  501 -0.12838661355E+02 -0.15382632783E+02  0.46748027819E+01  0.20994827881E+02  0.41800000000E+01 0.  1.
</event>
<event>
11    1  0.8551154E-009  0.1318130E+03  0.7561462E-02  0.1117061E+00
         22   -1    0    0    0    0  0.00000000000E+00  0.00000000000E+00  0.87238219134E+03  0.87238219134E+03  0.00000000000E+00 0. -1.
         22   -1    0    0    0    0 -0.00000000000E+00 -0.00000000000E+00 -0.27701344321E+03  0.27701344321E+03  0.00000000000E+00 0. -1.
         24    2    1    2    0    0  0.28584949171E+02 -0.30062910830E+02 -0.21694096404E+03  0.23512582388E+03  0.80621915428E+02 0.  0.
         25    2    1    2    0    0 -0.29078767016E+02  0.30088950347E+02  0.40745392209E+02  0.13806568384E+03  0.12510406246E+03 0.  0.
        -24    2    1    2    0    0  0.49381784527E+00 -0.26039516949E-01  0.77156431997E+03  0.77620412683E+03  0.84741383811E+02 0.  0.
        -11    1    3    3    0    0 -0.21764540719E+02 -0.13962063347E+02 -0.13611025872E+03  0.13854471110E+03  0.00000000000E+00 0.  1.
         12    1    3    3    0    0  0.50349489890E+02 -0.16100847483E+02 -0.80830705326E+02  0.96581112777E+02  0.00000000000E+00 0. -1.
         11    1    5    5    0    0 -0.30555836728E+01  0.10795491964E+02  0.75961138233E+03  0.75969423547E+03  0.00000000000E+00 0. -1.
        -12    1    5    5    0    0  0.35494015180E+01 -0.10821531481E+02  0.11952937641E+02  0.16509891368E+02  0.00000000000E+00 0.  1.
          5    1    4    4  501    0 -0.33322775521E+02 -0.26543955283E+02 -0.26190764304E+02  0.50183836694E+02  0.41800000000E+01 0. -1.
         -5    1    4    4    0  501  0.42440085056E+01  0.56632905630E+02  0.66936156513E+02  0.87881847142E+02  0.41800000000E+01 0. -1.
</event>
<event>
11    1  0.8551154E-009  0.1545213E+03  0.7561462E-02  0.1092346E+00
         22   -1    0    0    0    0  0.00000000000E+00  0.00000000000E+00  0.21812044293E+03  0.21812044293E+03  0.00000000000E+00 0.  1.
         22   -1    0    0    0    0 -0.00000000000E+00 -0.00000000000E+00 -0.32166515466E+03  0.32166515466E+03  0.00000000000E+00 0.  1.
         24    2    1    2    0    0  0.52602754428E+02  0.63822735074E+02 -0.17347000352E+03  0.20827647965E+03  0.80292331939E+02 0.  0.
         25    2    1    2    0    0 -0.69754963208E+02 -0.98390742724E+02 -0.52550132652E+02  0.18153814869E+03  0.12509232527E+03 0.  0.
        -24    2    1    2    0    0  0.17152208781E+02  0.34568007650E+02  0.12247542443E+03  0.14997096925E+03  0.77472037593E+02 0.  0.
        -11    1    3    3    0    0  0.46408699308E+02  0.68592949377E+02 -0.17996892389E+03  0.19811000389E+03  0.00000000000E+00 0.  1.
         12    1    3    3    0    0  0.61940551193E+01 -0.47702143028E+01  0.64989203718E+01  0.10166475757E+02  0.00000000000E+00 0. -1.
         11    1    5    5    0    0  0.41323255713E+02  0.29069343855E+02  0.41801093663E+02  0.65574153798E+02  0.00000000000E+00 0. -1.
        -12    1    5    5    0    0 -0.24171046932E+02  0.54986637948E+01  0.80674330772E+02  0.84396815454E+02  0.00000000000E+00 0.  1.
          5    1    4    4  501    0 -0.78681175768E+02 -0.43109896856E+01 -0.28862125859E+02  0.84022656239E+02  0.41800000000E+01 0. -1.
         -5    1    4    4    0  501  0.89262125595E+01 -0.94079753039E+02 -0.23688006793E+02  0.97515492453E+02  0.41800000000E+01 0. -1.
</event>
<event>
11    1  0.8551154E-009  0.1579916E+03  0.7561462E-02  0.1088982E+00
         22   -1    0    0    0    0  0.00000000000E+00  0.00000000000E+00  0.11349975071E+04  0.11349975071E+04  0.00000000000E+00 0. -1.
         22   -1    0    0    0    0 -0.00000000000E+00 -0.00000000000E+00 -0.19199028641E+03  0.19199028641E+03  0.00000000000E+00 0.  1.
        -24    2    1    2    0    0 -0.52728705407E+02  0.54837758485E+01 -0.11693858544E+03  0.15193668710E+03  0.81238758922E+02 0.  0.
         25    2    1    2    0    0  0.12510527227E+03 -0.64580584619E+02  0.11187416228E+03  0.21905455234E+03  0.12508831942E+03 0.  0.
         24    2    1    2    0    0 -0.72376566859E+02  0.59096808771E+02  0.94807164386E+03  0.95599655410E+03  0.79741891834E+02 0.  0.
        -13    1    5    5    0    0 -0.48555036613E+01 -0.14557829308E+02  0.47949349415E+02  0.50345272065E+02  0.00000000000E+00 0.  1.
         14    1    5    5    0    0 -0.67521063198E+02  0.73654638079E+02  0.90012229445E+03  0.90565128203E+03  0.00000000000E+00 0. -1.
         13    1    3    3    0    0  0.71638457059E+01 -0.26343656406E+02 -0.20989927100E+02  0.34436694932E+02  0.00000000000E+00 0. -1.
        -14    1    3    3    0    0 -0.59892551113E+02  0.31827432255E+02 -0.95948658335E+02  0.11749999217E+03  0.00000000000E+00 0.  1.
          5    1    4    4  501    0  0.52120496943E+02  0.12253745339E+02 -0.12965721321E+02  0.55247468773E+02  0.41800000000E+01 0. -1.
         -5    1    4    4    0  501  0.72984775323E+02 -0.76834329958E+02  0.12483988360E+03  0.16380708357E+03  0.41800000000E+01 0. -1.
</event>
<event>
11    1  0.8551154E-009  0.1656268E+03  0.7561462E-02  0.1081901E+00
         22   -1    0    0    0    0  0.00000000000E+00  0.00000000000E+00  0.39573093883E+03  0.39573093883E+03  0.00000000000E+00 0.  1.
         22   -1    0    0    0    0 -0.00000000000E+00 -0.00000000000E+00 -0.48189157035E+03  0.48189157035E+03  0.00000000000E+00 0.  1.
        -24    2    1    2    0    0 -0.24497254616E+02  0.94647336058E+02 -0.26325700603E+03  0.29160886770E+03  0.78570012031E+02 0.  0.
         25    2    1    2    0    0  0.48581672805E+02 -0.13546995899E+03 -0.15201516872E+03  0.24386236701E+03  0.12509178152E+03 0.  0.
         24    2    1    2    0    0 -0.24084418190E+02  0.40822622931E+02  0.32911154322E+03  0.34215127447E+03  0.80663132834E+02 0.  0.
        -13    1    5    5    0    0 -0.15833943669E+02  0.61525029115E+02  0.29225918624E+03  0.29908439431E+03  0.00000000000E+00 0.  1.
         14    1    5    5    0    0 -0.82504745202E+01 -0.20702406184E+02  0.36852356988E+02  0.43066880166E+02  0.00000000000E+00 0. -1.
         13    1    3    3    0    0 -0.18792484314E+02  0.13750817637E+02 -0.93983226682E+01  0.25111171246E+02  0.00000000000E+00 0. -1.
        -14    1    3    3    0    0 -0.57047703021E+01  0.80896518421E+02 -0.25385868336E+03  0.26649769645E+03  0.00000000000E+00 0.  1.
          5    1    4    4  501    0  0.37501361543E+02 -0.15074209291E+03 -0.15991953365E+03  0.22298264582E+03  0.41800000000E+01 0.  1.
         -5    1    4    4    0  501  0.11080311262E+02  0.15272133923E+02  0.79043649325E+01  0.20879721196E+02  0.41800000000E+01 0.  1.
</event>
<event>
11    1  0.8551154E-009  0.1285233E+03  0.7561462E-02  0.1121097E+00
         22   -1    0    0    0    0  0.00000000000E+00  0.00000000000E+00  0.53639856222E+03  0.53639856222E+03  0.00000000000E+00 0.  1.
         22   -1    0    0    0    0 -0.00000000000E+00 -0.00000000000E+00 -0.22454923241E+03  0.22454923241E+03  0.00000000000E+00 0. -1.
        -24    2    1    2    0    0  0.38630029688E+02 -0.49933505039E+00 -0.17921986837E+03  0.19846425666E+03  0.75998496207E+02 0.  0.
         25    2    1    2    0    0 -0.53548748296E+02 -0.21173283839E+02  0.12313641646E+03  0.18471678267E+03  0.12506772705E+03 0.  0.
         24    2    1    2    0    0  0.14918718607E+02  0.21672618889E+02  0.36793278171E+03  0.37776675530E+03  0.81491833821E+02 0.  0.
        -11    1    5    5    0    0  0.26354441877E+02 -0.25254082364E+02  0.18489619757E+03  0.18846466289E+03  0.00000000000E+00 0.  1.
         12    1    5    5    0    0 -0.11435723270E+02  0.46926701254E+02  0.18303658414E+03  0.18930209241E+03  0.00000000000E+00 0. -1.
         11    1    3    3    0    0  0.61810996020E+01 -0.15198430031E+02 -0.15386995613E+03  0.15474224267E+03  0.00000000000E+00 0. -1.
        -12    1    3    3    0    0  0.32448930086E+02  0.14699094981E+02 -0.25349912239E+02  0.43722013992E+02  0.00000000000E+00 0.  1.
          5    1    4    4  501    0  0.20057271547E+02 -0.53413859303E+02  0.49938646305E+02  0.75938628526E+02  0.41800000000E+01 0. -1.
         -5    1    4    4    0  501 -0.73606019843E+02  0.32240575464E+02  0.73197770155E+02  0.10877815414E+03  0.41800000000E+01 0. -1.
</event>
<event>
11    1  0.8551154E-009  0.1397620E+03  0.7561462E-02  0.1107824E+00
         22   -1    0    0    0    0  0.00000000000E+00  0.00000000000E+00  0.81434394148E+03  0.81434394148E+03  0.00000000000E+00 0. -1.
         22   -1    0    0    0    0 -0.00000000000E+00 -0.00000000000E+00 -0.31141994806E+03  0.31141994806E+03  0.00000000000E+00 0. -1.
        -24    2    1    2    0    0  0.61638105329E+02  0.10856636853E+02 -0.21477687708E+03  0.23766252287E+03  0.80232445161E+02 0.  0.
         25    2    1    2    0    0 -0.51227153365E+02 -0.49423962189E+02 -0.19714195390E+02  0.14526774127E+03  0.12508844021E+03 0.  0.
         24    2    1    2    0    0 -0.10410951964E+02  0.38567325336E+02  0.73741506588E+03  0.74283362539E+03  0.80156029821E+02 0.  0.
        -13    1    5    5    0    0 -0.41352727131E+02  0.21476111407E+01  0.30929018831E+03  0.31204980510E+03  0.00000000000E+00 0.  1.
         14    1    5    5    0    0  0.30941775168E+02  0.36419714195E+02  0.42812487757E+03  0.43078382029E+03  0.00000000000E+00 0. -1.
         13    1    3    3    0    0  0.10171069599E+02  0.44259523571E+01 -0.16629528212E+03  0.16666481502E+03  0.00000000000E+00 0. -1.
        -14    1    3    3    0    0  0.51467035729E+02  0.64306844964E+01 -0.48481594962E+02  0.70997707850E+02  0.00000000000E+00 0.  1.
          5    1    4    4  501    0 -0.56951992167E+02  0.29779360934E+02 -0.89975201237E+01  0.65028974448E+02  0.41800000000E+01 0. -1.
         -5    1    4    4    0  501  0.57248388018E+01 -0.79203323123E+02 -0.10716675266E+02  0.80238766826E+02  0.41800000000E+01 0. -1.
</event>
<event>
11    1  0.8551154E-009  0.1736846E+03  0.7561462E-02  0.1074869E+00
         22   -1    0    0    0    0  0.00000000000E+00  0.00000000000E+00  0.35780092780E+03  0.35780092780E+03  0.00000000000E+00 0.  1.
         22   -1    0    0    0    0 -0.00000000000E+00 -0.00000000000E+00 -0.38129979187E+03  0.38129979187E+03  0.00000000000E+00 0. -1.
        -24    2    1    2    0    0  0.11518702261E+03 -0.75121080158E+01 -0.24966043760E+03  0.28680985118E+03  0.81271610559E+02 0.  0.
         25    2    1    2    0    0 -0.14249552063E+03  0.24585394882E+02 -0.20241599125E+02  0.19226389220E+03  0.12508503854E+03 0.  0.
         24    2    1    2    0    0  0.27308498022E+02 -0.17073286867E+02  0.24640317266E+03  0.26002697629E+03  0.76565355830E+02 0.  0.
        -11    1    5    5    0    0  0.35595884536E+02 -0.53731716319E+01  0.24251359585E+03  0.24517092434E+03  0.00000000000E+00 0.  1.
         12    1    5    5    0    0 -0.82873865146E+01 -0.11700115235E+02  0.38895768062E+01  0.14856051948E+02  0.00000000000E+00 0. -1.
         11    1    3    3    0    0  0.10337016895E+03  0.24100684385E+02 -0.20480652497E+03  0.23067714990E+03  0.00000000000E+00 0. -1.
        -12    1    3    3    0    0  0.11816853659E+02 -0.31612792401E+02 -0.44853912636E+02  0.56132701276E+02  0.00000000000E+00 0.  1.
          5    1    4    4  501    0 -0.14179840478E+03  0.11926579579E+02 -0.56854233000E+02  0.15329353251E+03  0.41800000000E+01 0.  1.
         -5    1    4    4    0  501 -0.69711585515E+00  0.12658815303E+02  0.36612633874E+02  0.38970359693E+02  0.41800000000E+01 0.  1.
</event>
<event>
11    1  0.8551154E-009  0.1269343E+03  0.7561462E-02  0.1123094E+00
         22   -1    0    0    0    0  0.00000000000E+00  0.00000000000E+00  0.59251086234E+03  0.59251086234E+03  0.00000000000E+00 0.  1.
         22   -1    0    0    0    0 -0.00000000000E+00 -0.00000000000E+00 -0.54347437037E+03  0.54347437037E+03  0.00000000000E+00 0.  1.
         24    2    1    2    0    0  0.33059342344E+01 -0.60340230123E+01 -0.31729627599E+03  0.32735275222E+03  0.80221935892E+02 0.  0.
         25    2    1    2    0    0  0.74466799952E+01 -0.12810220617E+02 -0.19851684073E+03  0.23510832365E+03  0.12508969982E+03 0.  0.
        -24    2    1    2    0    0 -0.10752614230E+02  0.18844243629E+02  0.56484960869E+03  0.57352415683E+03  0.96975016386E+02 0.  0.
        -13    1    3    3    0    0  0.32717384341E+02  0.16172296265E+02 -0.22551314075E+03  0.22844725224E+03  0.00000000000E+00 0.  1.
         14    1    3    3    0    0 -0.29411450107E+02 -0.22206319277E+02 -0.91783135233E+02  0.98905499981E+02  0.00000000000E+00 0. -1.
         13    1    5    5    0    0 -0.26017209833E+02 -0.29264075121E+02  0.37644944517E+03  0.37848046986E+03  0.00000000000E+00 0. -1.
        -14    1    5    5    0    0  0.15264595603E+02  0.48108318749E+02  0.18840016352E+03  0.19504368697E+03  0.00000000000E+00 0.  1.
          5    1    4    4  501    0  0.45151658390E+01  0.39224176914E+02 -0.12112659221E+02  0.41510380516E+02  0.41800000000E+01 0. -1.
         -5    1    4    4    0  501  0.29315141562E+01 -0.52034397531E+02 -0.18640418151E+03  0.19359794313E+03  0.41800000000E+01 0. -1.
</event>
<event>
11    1  0.8551154E-009  0.1276416E+03  0.7561462E-02  0.1122201E+00
         22   -1    0    0    0    0  0.00000000000E+00  0.00000000000E+00  0.10666131479E+03  0.10666131479E+03  0.00000000000E+00 0.  1.
         22   -1    0    0    0    0 -0.00000000000E+00 -0.00000000000E+00 -0.70436882208E+03  0.70436882208E+03  0.00000000000E+00 0.  1.
         24    2    1    2    0    0  0.12313882671E+02 -0.14753698360E+02 -0.58958357233E+03  0.59535622155E+03  0.80442143490E+02 0.  0.
         25    2    1    2    0    0 -0.33130966333E+02  0.90782421317E+01 -0.10510072974E+02  0.13014657421E+03  0.12509034229E+03 0.  0.
        -24    2    1    2    0    0  0.20817083662E+02  0.56754562282E+01  0.23861380132E+01  0.85527341126E+02  0.82726480947E+02 0.  0.
        -11    1    3    3    0    0  0.39223800751E+02 -0.22112863742E+02 -0.48600352280E+03  0.48808494083E+03  0.00000000000E+00 0.  1.
         12    1    3    3    0    0 -0.26909918080E+02  0.73591653824E+01 -0.10358004953E+03  0.10727128071E+03  0.00000000000E+00 0. -1.
         13    1    5    5    0    0  0.34353882572E+02  0.26462894714E+02 -0.23792223012E+02  0.49462550685E+02  0.00000000000E+00 0. -1.
        -14    1    5    5    0    0 -0.13536798910E+02 -0.20787438486E+02  0.26178361025E+02  0.36064790441E+02  0.00000000000E+00 0.  1.
          5    1    4    4  501    0 -0.65906018662E+02 -0.34901043275E+02 -0.49236077136E+01  0.74855864370E+02  0.41800000000E+01 0.  1.
         -5    1    4    4    0  501  0.32775052329E+02  0.43979285407E+02 -0.55864652603E+01  0.55290709836E+02  0.41800000000E+01 0.  1.
</event>
<event>
11    1  0.8551154E-009  0.2664377E+03  0.7561462E-02  0.1015490E+00
         22   -1    0    0    0    0  0.00000000000E+00  0.00000000000E+00  0.64840780640E+03  0.64840780640E+03  0.00000000000E+00 0.  1.
         22   -1    0    0    0    0 -0.00000000000E+00 -0.00000000000E+00 -0.12156414257E+04  0.12156414257E+04  0.00000000000E+00 0. -1.
         24    2    1    2    0    0  0.21480175116E+03 -0.57601217381E+02 -0.68740305503E+03  0.72705531502E+03  0.81417310691E+02 0.  0.
         25    2    1    2    0    0 -0.25556546327E+03  0.59869718650E+02 -0.46296426159E+03  0.54670055701E+03  0.12508997684E+03 0.  0.
        -24    2    1    2    0    0  0.40763712108E+02 -0.22685012693E+01  0.58313369731E+03  0.59029336009E+03  0.82064095094E+02 0.  0.
        -11    1    3    3    0    0  0.20161907744E+02  0.18626200996E+02 -0.67998986548E+02  0.73330076087E+02  0.00000000000E+00 0.  1.
         12    1    3    3    0    0  0.19463984342E+03 -0.76227418377E+02 -0.61940406849E+03  0.65372523893E+03  0.00000000000E+00 0. -1.
         11    1    5    5    0    0 -0.47113657060E+01 -0.26391806702E+02  0.76703653299E+02  0.81253768265E+02  0.00000000000E+00 0. -1.
        -12    1    5    5    0    0  0.45475077814E+02  0.24123305433E+02  0.50643004401E+03  0.50903959182E+03  0.00000000000E+00 0.  1.
          5    1    4    4  501    0 -0.37504434405E+02  0.20738567578E+02 -0.19150993553E+03  0.19629110676E+03  0.41800000000E+01 0.  1.
         -5    1    4    4    0  501 -0.21806102887E+03  0.39131151072E+02 -0.27145432605E+03  0.35040945025E+03  0.41800000000E+01 0.  1.
</event>
<event>
11    1  0.8551154E-009  0.1477908E+03  0.7561462E-02  0.1099158E+00
         22   -1    0    0    0    0  0.00000000000E+00  0.00000000000E+00  0.29068327695E+02  0.29068327695E+02  0.00000000000E+00 0. -1.
         22   -1    0    0    0    0 -0.00000000000E+00 -0.00000000000E+00 -0.31964829674E+04  0.31964829674E+04  0.00000000000E+00 0. -1.
         24    2    1    2    0    0  0.67784402483E+02 -0.83171776529E+01 -0.15208204128E+04  0.15244695621E+04  0.80304527432E+02 0.  0.
         25    2    1    2    0    0 -0.10386131161E+03 -0.14791605506E+02 -0.15789856356E+04  0.15874032682E+04  0.12509010721E+03 0.  0.
        -24    2    1    2    0    0  0.36076909130E+02  0.23108783159E+02 -0.67608591352E+02  0.11367846481E+03  0.80723679950E+02 0.  0.
        -11    1    3    3    0    0 -0.75668458333E+01  0.23132702572E+01 -0.17288794381E+02  0.19013436993E+02  0.00000000000E+00 0.  1.
         12    1    3    3    0    0  0.75351248317E+02 -0.10630447910E+02 -0.15035316184E+04  0.15054561251E+04  0.00000000000E+00 0. -1.
         11    1    5    5    0    0  0.14437664864E+02 -0.21587597598E+01  0.17211021031E+02  0.22568244401E+02  0.00000000000E+00 0. -1.
        -12    1    5    5    0    0  0.21639244266E+02  0.25267542919E+02 -0.84819612383E+02  0.91110220405E+02  0.00000000000E+00 0.  1.
          5    1    4    4  501    0 -0.11384531667E+03 -0.51200134653E+02 -0.11631985660E+04  0.11698848602E+04  0.41800000000E+01 0. -1.
         -5    1    4    4    0  501  0.99840050552E+01  0.36408529147E+02 -0.41578706963E+03  0.41751840800E+03  0.41800000000E+01 0. -1.
</event>
<event>
11    1  0.8551154E-009  0.1875935E+03  0.7561462E-02  0.1063661E+00
         22   -1    0    0    0    0  0.00000000000E+00  0.00000000000E+00  0.70301688397E+03  0.70301688397E+03  0.00000000000E+00 0.  1.
         22   -1    0    0    0    0 -0.00000000000E+00 -0.00000000000E+00 -0.16022992565E+04  0.16022992565E+04  0.00000000000E+00 0. -1.
        -24    2    1    2    0    0  0.46501453109E+01  0.38329340020E+02 -0.14120859042E+04  0.14148540001E+04  0.79589437545E+02 0.  0.
         25    2    1    2    0    0 -0.12043449224E+03  0.41697156580E+02 -0.13424765356E+03  0.22340628489E+03  0.12507923829E+03 0.  0.
         24    2    1    2    0    0  0.11578434693E+03 -0.80026496601E+02  0.64705118526E+03  0.66705585545E+03  0.80486165220E+02 0.  0.
        -13    1    5    5    0    0  0.12731852950E+03 -0.64332919207E+02  0.56672151564E+03  0.58439884389E+03  0.00000000000E+00 0.  1.
         14    1    5    5    0    0 -0.11534182574E+02 -0.15693577394E+02  0.80329669624E+02  0.82657011566E+02  0.00000000000E+00 0. -1.
         11    1    3    3    0    0 -0.21377111292E+01  0.45752611258E+02 -0.13879550544E+04  0.13887105905E+04  0.00000000000E+00 0. -1.
        -12    1    3    3    0    0  0.67878564400E+01 -0.74232712375E+01 -0.24130849851E+02  0.26143409599E+02  0.00000000000E+00 0.  1.
          5    1    4    4  501    0 -0.13222915251E+03  0.59481849701E+02 -0.81564952079E+02  0.16641199784E+03  0.41800000000E+01 0.  1.
         -5    1    4    4    0  501  0.11794660270E+02 -0.17784693121E+02 -0.52682701483E+02  0.56994287046E+02  0.41800000000E+01 0.  1.
</event>
<event>
11    1  0.8551154E-009  0.3081084E+03  0.7561462E-02  0.9968168E-01
         22   -1    0    0    0    0  0.00000000000E+00  0.00000000000E+00  0.43398386978E+03  0.43398386978E+03  0.00000000000E+00 0.  1.
         22   -1    0    0    0    0 -0.00000000000E+00 -0.00000000000E+00 -0.33620876164E+04  0.33620876164E+04  0.00000000000E+00 0. -1.
        -24    2    1    2    0    0 -0.25583959880E+03  0.11717383288E+03 -0.31936645481E+04  0.32070674869E+04  0.81271224651E+02 0.  0.
         25    2    1    2    0    0  0.30393505512E+03 -0.22988020775E+02  0.45929350111E+02  0.33265868511E+03  0.12508928308E+03 0.  0.
         24    2    1    2    0    0 -0.48095456326E+02 -0.94185812110E+02  0.21963145139E+03  0.25634531421E+03  0.79314598634E+02 0.  0.
        -13    1    5    5    0    0 -0.45155485774E+02 -0.55539917822E+02  0.20095452520E+03  0.21332234193E+03  0.00000000000E+00 0.  1.
         14    1    5    5    0    0 -0.29399705523E+01 -0.38645894288E+02  0.18676926188E+02  0.43022972282E+02  0.00000000000E+00 0. -1.
         13    1    3    3    0    0 -0.23550294297E+03  0.96514153198E+02 -0.25298501389E+04  0.25426203695E+04  0.00000000000E+00 0. -1.
        -14    1    3    3    0    0 -0.20336655832E+02  0.20659679686E+02 -0.66381440923E+03  0.66444711742E+03  0.00000000000E+00 0.  1.
          5    1    4    4  501    0  0.17985027437E+03  0.33446223334E+02  0.66593457640E+02  0.19472270553E+03  0.41800000000E+01 0. -1.
         -5    1    4    4    0  501  0.12408478075E+03 -0.56434244108E+02 -0.20664107529E+02  0.13793597958E+03  0.41800000000E+01 0. -1.
</event>
<event>
11    1  0.8551154E-009  0.1663526E+03  0.7561462E-02  0.1081250E+00
         22   -1    0    0    0    0  0.00000000000E+00  0.00000000000E+00  0.24199043086E+03  0.24199043086E+03  0.00000000000E+00 0.  1.
         22   -1    0    0    0    0 -0.00000000000E+00 -0.00000000000E+00 -0.62470611266E+03  0.62470611266E+03  0.00000000000E+00 0. -1.
         24    2    1    2    0    0 -0.10302622717E+03 -0.19701131341E+02 -0.37870733155E+03  0.40118931105E+03  0.80815111614E+02 0.  0.
         25    2    1    2    0    0  0.13130190161E+03 -0.36819554198E+02 -0.18434089980E+03  0.26120695952E+03  0.12510651233E+03 0.  0.
        -24    2    1    2    0    0 -0.28275674441E+02  0.56520685538E+02  0.18033254955E+03  0.20430027294E+03  0.72281888721E+02 0.  0.
        -11    1    3    3    0    0 -0.12353852482E+02 -0.18704732947E+02 -0.16579985115E+02  0.27881546087E+02  0.00000000000E+00 0.  1.
         12    1    3    3    0    0 -0.90672374683E+02 -0.99639839376E+00 -0.36212734644E+03  0.37330776496E+03  0.00000000000E+00 0. -1.
         13    1    5    5    0    0  0.20993006195E+02  0.26932830246E+02  0.39626771565E+02  0.52310273167E+02  0.00000000000E+00 0. -1.
        -14    1    5    5    0    0 -0.49268680636E+02  0.29587855293E+02  0.14070577799E+03  0.15198999977E+03  0.00000000000E+00 0.  1.
          5    1    4    4  501    0 -0.12604457611E+02 -0.33978424812E+02 -0.16434454873E+02  0.40012115807E+02  0.41800000000E+01 0.  1.
         -5    1    4    4    0  501  0.14390635922E+03 -0.28411293856E+01 -0.16790644493E+03  0.22119484372E+03  0.41800000000E+01 0.  1.
</event>
<event>
11    1  0.8551154E-009  0.1600320E+03  0.7561462E-02  0.1087047E+00
         22   -1    0    0    0    0  0.00000000000E+00  0.00000000000E+00  0.50462243249E+03  0.50462243249E+03  0.00000000000E+00 0. -1.
         22   -1    0    0    0    0 -0.00000000000E+00 -0.00000000000E+00 -0.20205078551E+03  0.20205078551E+03  0.00000000000E+00 0. -1.
        -24    2    1    2    0    0 -0.48352681594E+02  0.77016442274E+02 -0.96016370063E+02  0.15517906100E+03  0.81190414791E+02 0.  0.
         25    2    1    2    0    0  0.57998273226E+02 -0.12494333584E+03  0.53792325971E+02  0.19368975746E+03  0.12508985148E+03 0.  0.
         24    2    1    2    0    0 -0.96455916321E+01  0.47926893567E+02  0.34479569107E+03  0.35780439954E+03  0.82157745719E+02 0.  0.
        -13    1    5    5    0    0 -0.42196735252E+02  0.83187468633E+01  0.18729663589E+03  0.19217126693E+03  0.00000000000E+00 0.  1.
         14    1    5    5    0    0  0.32551143619E+02  0.39608146704E+02  0.15749905518E+03  0.16563313261E+03  0.00000000000E+00 0. -1.
         11    1    3    3    0    0 -0.48019761476E+02  0.90886062078E+02 -0.96916521174E+02  0.14127627490E+03  0.00000000000E+00 0. -1.
        -12    1    3    3    0    0 -0.33292011771E+00 -0.13869619804E+02  0.90015111097E+00  0.13902786100E+02  0.00000000000E+00 0.  1.
          5    1    4    4  501    0  0.58465599790E+02 -0.89130267387E+02 -0.22753064787E+02  0.10907614442E+03  0.41800000000E+01 0. -1.
         -5    1    4    4    0  501 -0.46732656407E+00 -0.35813068454E+02  0.76545390758E+02  0.84613613045E+02  0.41800000000E+01 0. -1.
</event>
<event>
11    1  0.8551154E-009  0.1288536E+03  0.7561462E-02  0.1120686E+00
         22   -1    0    0    0    0  0.00000000000E+00  0.00000000000E+00  0.96411437222E+03  0.96411437222E+03  0.00000000000E+00 0.  1.
         22   -1    0    0    0    0 -0.00000000000E+00 -0.00000000000E+00 -0.56914411078E+02  0.56914411078E+02  0.00000000000E+00 0. -1.
         24    2    1    2    0    0  0.33212282761E+02  0.35328526402E+02  0.34733753404E+02  0.97349146134E+02  0.76936741051E+02 0.  0.
         25    2    1    2    0    0 -0.29892413504E+02 -0.61958376935E+02  0.20388967764E+03  0.24889908304E+03  0.12508939218E+03 0.  0.
        -24    2    1    2    0    0 -0.33198692569E+01  0.26629850533E+02  0.66857653010E+03  0.67478055413E+03  0.87258519051E+02 0.  0.
        -13    1    3    3    0    0  0.52103810300E+02  0.78502735027E+01  0.36269386656E+02  0.63967978319E+02  0.00000000000E+00 0.  1.
         14    1    3    3    0    0 -0.18891527539E+02  0.27478252900E+02 -0.15356332517E+01  0.33381167815E+02  0.00000000000E+00 0. -1.
         11    1    5    5    0    0  0.19153036321E+02 -0.26703873658E+02  0.27896527417E+03  0.28089421472E+03  0.00000000000E+00 0. -1.
        -12    1    5    5    0    0 -0.22472905578E+02  0.53333724191E+02  0.38961125594E+03  0.39388633941E+03  0.00000000000E+00 0.  1.
          5    1    4    4  501    0  0.27553019439E+02 -0.21979719158E+02  0.24166850600E+01  0.35575127563E+02  0.41800000000E+01 0.  1.
         -5    1    4    4    0  501 -0.57445432943E+02 -0.39978657777E+02  0.20147299258E+03  0.21332395548E+03  0.41800000000E+01 0.  1.
</event>
<event>
11    1  0.8551154E-009  0.1710543E+03  0.7561462E-02  0.1077118E+00
         22   -1    0    0    0    0  0.00000000000E+00  0.00000000000E+00  0.95671259534E+03  0.95671259534E+03  0.00000000000E+00 0. -1.
         22   -1    0    0    0    0 -0.00000000000E+00 -0.00000000000E+00 -0.19890449989E+03  0.19890449989E+03  0.00000000000E+00 0. -1.
        -24    2    1    2    0    0 -0.96661433950E+02  0.74058055684E+02 -0.15246734752E+03  0.20464782623E+03  0.61696128699E+02 0.  0.
         25    2    1    2    0    0  0.65656575583E+02  0.84161252992E+01  0.33869401347E+03  0.36707443632E+03  0.12509352486E+03 0.  0.
         24    2    1    2    0    0  0.31004858367E+02 -0.82474180983E+02  0.57158142950E+03  0.58389483267E+03  0.80402445845E+02 0.  0.
        -11    1    5    5    0    0  0.76468240314E+01 -0.48076755936E+02  0.10814244825E+03  0.11859442437E+03  0.00000000000E+00 0.  1.
         12    1    5    5    0    0  0.23358034336E+02 -0.34397425047E+02  0.46343898125E+03  0.46530040830E+03  0.00000000000E+00 0. -1.
         13    1    3    3    0    0 -0.72452062040E+02  0.82646000806E+02 -0.13225045801E+03  0.17195885086E+03  0.00000000000E+00 0. -1.
        -14    1    3    3    0    0 -0.24209371911E+02 -0.85879451221E+01 -0.20216889504E+02  0.32688975373E+02  0.00000000000E+00 0.  1.
          5    1    4    4  501    0 -0.26929282421E+02  0.31118617602E+02  0.15037631441E+03  0.15596173553E+03  0.41800000000E+01 0. -1.
         -5    1    4    4    0  501  0.92585858004E+02 -0.22702492303E+02  0.18831769906E+03  0.21111270080E+03  0.41800000000E+01 0. -1.
</event>
<event>
11    1  0.8551154E-009  0.2553027E+03  0.7561462E-02  0.1021112E+00
         22   -1    0    0    0    0  0.00000000000E+00  0.00000000000E+00  0.13664416800E+04  0.13664416800E+04  0.00000000000E+00 0. -1.
         22   -1    0    0    0    0 -0.00000000000E+00 -0.00000000000E+00 -0.30373124271E+03  0.30373124271E+03  0.00000000000E+00 0.  1.
        -24    2    1    2    0    0 -0.50998723215E+02  0.73189599121E+02 -0.23195112170E+03  0.26122513607E+03  0.80496345679E+02 0.  0.
         25    2    1    2    0    0  0.55464258496E+02 -0.27572716658E+03  0.52089432164E+03  0.60504537442E+03  0.12508899402E+03 0.  0.
         24    2    1    2    0    0 -0.44655352810E+01  0.20253756746E+03  0.77376723732E+03  0.80390241220E+03  0.80634629956E+02 0.  0.
        -13    1    5    5    0    0 -0.34117240409E+02  0.41478442591E+02  0.16700923602E+03  0.17543241493E+03  0.00000000000E+00 0.  1.
         14    1    5    5    0    0  0.29651705128E+02  0.16105912487E+03  0.60675800130E+03  0.62846999727E+03  0.00000000000E+00 0. -1.
         13    1    3    3    0    0 -0.51053939463E+02  0.22966056130E+02 -0.59874161194E+02  0.81968650395E+02  0.00000000000E+00 0. -1.
        -14    1    3    3    0    0  0.55216247887E-01  0.50223542990E+02 -0.17207696051E+03  0.17925648568E+03  0.00000000000E+00 0.  1.
          5    1    4    4  501    0  0.24369014111E+02 -0.15636832724E+02  0.13825852378E+03  0.14131967728E+03  0.41800000000E+01 0. -1.
         -5    1    4    4    0  501  0.31095244385E+02 -0.26009033385E+03  0.38263579786E+03  0.46372569714E+03  0.41800000000E+01 0. -1.
</event>
<event>
11    1  0.8551154E-009  0.2907473E+03  0.7561462E-02  0.1004185E+00
         22   -1    0    0    0    0  0.00000000000E+00  0.00000000000E+00  0.13592352406E+04  0.13592352406E+04  0.00000000000E+00 0.  1.
         22   -1    0    0    0    0 -0.00000000000E+00 -0.00000000000E+00 -0.48995024137E+03  0.48995024137E+03  0.00000000000E+00 0. -1.
         24    2    1    2    0    0 -0.22563056995E+02 -0.15147783835E+02 -0.34601383987E+03  0.35785435027E+03  0.87152806774E+02 0.  0.
         25    2    1    2    0    0  0.18323743972E+03 -0.19209668984E+03  0.54302838847E+02  0.29844798967E+03  0.12508120031E+03 0.  0.
        -24    2    1    2    0    0 -0.16067438272E+03  0.20724447367E+03  0.11609960002E+04  0.11928831420E+04  0.79321805207E+02 0.  0.
        -11    1    3    3    0    0 -0.10718578553E+02 -0.25894063444E+02 -0.28614051804E+02  0.40051896440E+02  0.00000000000E+00 0.  1.
         12    1    3    3    0    0 -0.11844478442E+02  0.10746279609E+02 -0.31739978807E+03  0.31780245383E+03  0.00000000000E+00 0. -1.
         11    1    5    5    0    0 -0.25910338100E+02  0.91935616501E+02  0.35708077888E+03  0.36963520645E+03  0.00000000000E+00 0. -1.
        -12    1    5    5    0    0 -0.13476404462E+03  0.11530885717E+03  0.80391522134E+03  0.82324793554E+03  0.00000000000E+00 0.  1.
          5    1    4    4  501    0 -0.25143247308E+01  0.90743408278E+00 -0.19859464292E+02  0.20469880006E+02  0.41800000000E+01 0.  1.
         -5    1    4    4    0  501  0.18575176445E+03 -0.19300412392E+03  0.74162303139E+02  0.27797810966E+03  0.41800000000E+01 0.  1.
</event>
<event>
11    1  0.8551154E-009  0.1617411E+03  0.7561462E-02  0.1085451E+00
         22   -1    0    0    0    0  0.00000000000E+00  0.00000000000E+00  0.16555917783E+04  0.16555917783E+04  0.00000000000E+00 0. -1.
         22   -1    0    0    0    0 -0.00000000000E+00 -0.00000000000E+00 -0.11385289056E+04  0.11385289056E+04  0.00000000000E+00 0. -1.
         24    2    1    2    0    0 -0.21515028239E+02 -0.95723187376E+02 -0.93095997580E+03  0.93934272240E+03  0.77797484159E+02 0.  0.
         25    2    1    2    0    0  0.86626567235E+02  0.14308985564E+03 -0.14726805262E+03  0.25556775895E+03  0.12509249039E+03 0.  0.
        -24    2    1    2    0    0 -0.65111538996E+02 -0.47366668268E+02  0.15952909011E+04  0.15992102026E+04  0.77698772645E+02 0.  0.
        -13    1    3    3    0    0 -0.14010381892E+02 -0.87396194308E+02 -0.47090711171E+03  0.47915330891E+03  0.00000000000E+00 0.  1.
         14    1    3    3    0    0 -0.75046463466E+01 -0.83269930680E+01 -0.46005286409E+03  0.46018941349E+03  0.00000000000E+00 0. -1.
         11    1    5    5    0    0 -0.67971880115E+02 -0.64326957421E+02  0.12547037521E+04  0.12581890317E+04  0.00000000000E+00 0. -1.
        -12    1    5    5    0    0  0.28603411187E+01  0.16960289153E+02  0.34058714903E+03  0.34102117096E+03  0.00000000000E+00 0.  1.
          5    1    4    4  501    0  0.16166128259E+02  0.13201215272E+03 -0.70089780041E+02  0.15039481984E+03  0.41800000000E+01 0.  1.
         -5    1    4    4    0  501  0.70460438975E+02  0.11077702929E+02 -0.77178272577E+02  0.10517293911E+03  0.41800000000E+01 0.  1.
</event>
<event>
11    1  0.8551154E-009  0.1456332E+03  0.7561462E-02  0.1101426E+00
         22   -1    0    0    0    0  0.00000000000E+00  0.00000000000E+00  0.45823996376E+03  0.45823996376E+03  0.00000000000E+00 0.  1.
         22   -1    0    0    0    0 -0.00000000000E+00 -0.00000000000E+00 -0.14643263703E+03  0.14643263703E+03  0.00000000000E+00 0. -1.
         24    2    1    2    0    0 -0.60980074011E+01  0.34283665160E+02 -0.88974656305E+02  0.12432332910E+03  0.79543983454E+02 0.  0.
         25    2    1    2    0    0 -0.67047802086E+02 -0.13812423550E+01  0.15752234212E+03  0.21203275801E+03  0.12508911466E+03 0.  0.
        -24    2    1    2    0    0  0.73145809487E+02 -0.32902422805E+02  0.24325964091E+03  0.26831651368E+03  0.79910072879E+02 0.  0.
        -13    1    3    3    0    0 -0.42887352436E+02  0.20615780825E+02 -0.48501193596E+02  0.67946311145E+02  0.00000000000E+00 0.  1.
         14    1    3    3    0    0  0.36789345035E+02  0.13667884335E+02 -0.40473462708E+02  0.56377017958E+02  0.00000000000E+00 0. -1.
         13    1    5    5    0    0  0.41533160195E+01  0.80763129636E+01 -0.27993773279E+01  0.95033351234E+01  0.00000000000E+00 0. -1.
        -14    1    5    5    0    0  0.68992493468E+02 -0.40978735768E+02  0.24605901824E+03  0.25881317856E+03  0.00000000000E+00 0.  1.
          5    1    4    4  501    0 -0.64791928752E+01  0.56474034004E+02  0.51211149520E+02  0.76624739426E+02  0.41800000000E+01 0.  1.
         -5    1    4    4    0  501 -0.60568609211E+02 -0.57855276359E+02  0.10631119260E+03  0.13540801858E+03  0.41800000000E+01 0.  1.
</event>
<event>
11    1  0.8551154E-009  0.1554167E+03  0.7561462E-02  0.1091469E+00
         22   -1    0    0    0    0  0.00000000000E+00  0.00000000000E+00  0.32131478209E+03  0.32131478209E+03  0.00000000000E+00 0.  1.
         22   -1    0    0    0    0 -0.00000000000E+00 -0.00000000000E+00 -0.54667802757E+03  0.54667802757E+03  0.00000000000E+00 0. -1.
        -24    2    1    2    0    0  0.78348411308E+02 -0.58461404364E+02 -0.41664227589E+03  0.43530336834E+03  0.79636844951E+02 0.  0.
         25    2    1    2    0    0  0.87988590021E+01  0.10183042737E+03 -0.42486105078E+02  0.16702761152E+03  0.12508516309E+03 0.  0.
         24    2    1    2    0    0 -0.87147270310E+02 -0.43369023008E+02  0.23376513548E+03  0.26566182981E+03  0.80340216395E+02 0.  0.
        -11    1    5    5    0    0 -0.42039650694E+02 -0.56213732569E+02  0.18561641405E+03  0.19844588463E+03  0.00000000000E+00 0.  1.
         12    1    5    5    0    0 -0.45107619616E+02  0.12844709561E+02  0.48148721431E+02  0.67215945181E+02  0.00000000000E+00 0. -1.
         11    1    3    3    0    0  0.96069300317E+01  0.84710419691E+01 -0.17265608159E+03  0.17313051195E+03  0.00000000000E+00 0. -1.
        -12    1    3    3    0    0  0.68741481276E+02 -0.66932446333E+02 -0.24398619430E+03  0.26217285639E+03  0.00000000000E+00 0.  1.
          5    1    4    4  501    0 -0.46027215559E+02  0.66768195361E+02  0.11953320208E+02  0.82078320815E+02  0.41800000000E+01 0. -1.
         -5    1    4    4    0  501  0.54826074561E+02  0.35062232011E+02 -0.54439425286E+02  0.84949290702E+02  0.41800000000E+01 0. -1.
</event>
<event>
11    1  0.8551154E-009  0.1880511E+03  0.7561462E-02  0.1063310E+00
         22   -1    0    0    0    0  0.00000000000E+00  0.00000000000E+00  0.19449125654E+04  0.19449125654E+04  0.00000000000E+00 0. -1.
         22   -1    0    0    0    0 -0.00000000000E+00 -0.00000000000E+00 -0.17815435613E+03  0.17815435613E+03  0.00000000000E+00 0. -1.
        -24    2    1    2    0    0 -0.10906882967E+03  0.99706493679E+02 -0.11695316137E+03  0.20737161283E+03  0.86530626747E+02 0.  0.
         25    2    1    2    0    0  0.49582651749E+02 -0.60156842454E+02  0.37406257092E+03  0.40205385073E+03  0.12508879598E+03 0.  0.
         24    2    1    2    0    0  0.59486177922E+02 -0.39549651224E+02  0.15096487997E+04  0.15136414580E+04  0.83475652087E+02 0.  0.
        -13    1    5    5    0    0  0.40623220668E+02 -0.36340739926E+02  0.38595414674E+03  0.38978391298E+03  0.00000000000E+00 0.  1.
         14    1    5    5    0    0  0.18862957253E+02 -0.32089112988E+01  0.11236946530E+04  0.11238575450E+04  0.00000000000E+00 0. -1.
         11    1    3    3    0    0 -0.57546002406E+02  0.63255161358E+02 -0.11617351082E+03  0.14425339666E+03  0.00000000000E+00 0. -1.
        -12    1    3    3    0    0 -0.51522827265E+02  0.36451332320E+02 -0.77965054776E+00  0.63118216168E+02  0.00000000000E+00 0.  1.
          5    1    4    4  501    0  0.50291002498E+02  0.28921852491E+02  0.14266839057E+03  0.15406946664E+03  0.41800000000E+01 0. -1.
         -5    1    4    4    0  501 -0.70835074875E+00 -0.89078694946E+02  0.23139418035E+03  0.24798438409E+03  0.41800000000E+01 0. -1.
</event>
<event>
11    1  0.8551154E-009  0.1491639E+03  0.7561462E-02  0.1097736E+00
         22   -1    0    0    0    0  0.00000000000E+00  0.00000000000E+00  0.28160119007E+03  0.28160119007E+03  0.00000000000E+00 0.  1.
         22   -1    0    0    0    0 -0.00000000000E+00 -0.00000000000E+00 -0.53068491634E+03  0.53068491634E+03  0.00000000000E+00 0. -1.
         24    2    1    2    0    0 -0.52161320648E+02  0.60849724631E+01 -0.38880016246E+03  0.39920713617E+03  0.73776290078E+02 0.  0.
         25    2    1    2    0    0  0.11672510135E+03  0.35113599304E+02 -0.58442625029E+02  0.18417749294E+03  0.12509234326E+03 0.  0.
        -24    2    1    2    0    0 -0.64563780706E+02 -0.41198571767E+02  0.19815906122E+03  0.22890147731E+03  0.85223639188E+02 0.  0.
        -13    1    3    3    0    0  0.10799134536E+02 -0.70074401945E+01 -0.14362767806E+02  0.19287680625E+02  0.00000000000E+00 0.  1.
         14    1    3    3    0    0 -0.62960455185E+02  0.13092412658E+02 -0.37443739465E+03  0.37991945554E+03  0.00000000000E+00 0. -1.
         13    1    5    5    0    0  0.14146689078E+02  0.92212085926E+01  0.58182615494E+02  0.60583630177E+02  0.00000000000E+00 0. -1.
        -14    1    5    5    0    0 -0.78710469784E+02 -0.50419780359E+02  0.13997644573E+03  0.16831784713E+03  0.00000000000E+00 0.  1.
          5    1    4    4  501    0  0.63222895198E+02 -0.32924994036E+02  0.12120311389E+02  0.72426266352E+02  0.41800000000E+01 0.  1.
         -5    1    4    4    0  501  0.53502206157E+02  0.68038593340E+02 -0.70562936418E+02  0.11175122658E+03  0.41800000000E+01 0.  1.
</event>
<event>
11    1  0.8551154E-009  0.2037357E+03  0.7561462E-02  0.1051913E+00
         22   -1    0    0    0    0  0.00000000000E+00  0.00000000000E+00  0.85384237605E+03  0.85384237605E+03  0.00000000000E+00 0.  1.
         22   -1    0    0    0    0 -0.00000000000E+00 -0.00000000000E+00 -0.58693731510E+03  0.58693731510E+03  0.00000000000E+00 0.  1.
        -24    2    1    2    0    0  0.15172327516E+03 -0.80600526197E+01 -0.40733315036E+03  0.44234043778E+03  0.81607909180E+02 0.  0.
         25    2    1    2    0    0 -0.20624568868E+03  0.64161173334E+02 -0.59925770751E+02  0.25669684809E+03  0.12509289971E+03 0.  0.
         24    2    1    2    0    0  0.54522413522E+02 -0.56101120714E+02  0.73416398206E+03  0.74174240527E+03  0.71168911141E+02 0.  0.
        -13    1    5    5    0    0  0.55879449137E+02 -0.32324890675E+02  0.67325997275E+03  0.67634784121E+03  0.00000000000E+00 0.  1.
         14    1    5    5    0    0 -0.13570356147E+01 -0.23776230039E+02  0.60904009303E+02  0.65394564068E+02  0.00000000000E+00 0. -1.
         13    1    3    3    0    0  0.61000339028E+02  0.20853764192E+02 -0.87825234684E+02  0.10894582456E+03  0.00000000000E+00 0. -1.
        -14    1    3    3    0    0  0.90722936134E+02 -0.28913816812E+02 -0.31950791567E+03  0.33339461322E+03  0.00000000000E+00 0.  1.
          5    1    4    4  501    0 -0.18764394763E+01 -0.25675104639E+02 -0.97728726769E+01  0.27851633053E+02  0.41800000000E+01 0.  1.
         -5    1    4    4    0  501 -0.20436924921E+03  0.89836277973E+02 -0.50152898074E+02  0.22884521504E+03  0.41800000000E+01 0.  1.
</event>
<event>
11    1  0.8551154E-009  0.1455911E+03  0.7561462E-02  0.1101471E+00
         22   -1    0    0    0    0  0.00000000000E+00  0.00000000000E+00  0.11901655589E+03  0.11901655589E+03  0.00000000000E+00 0.  1.
         22   -1    0    0    0    0 -0.00000000000E+00 -0.00000000000E+00 -0.14703877354E+04  0.14703877354E+04  0.00000000000E+00 0. -1.
        -24    2    1    2    0    0 -0.29717466302E+01  0.32927708954E+02 -0.11094265878E+04  0.11126140541E+04  0.77392598786E+02 0.  0.
         25    2    1    2    0    0 -0.59984812659E+02 -0.70453801532E+02 -0.31186177503E+03  0.34852151704E+03  0.12509022831E+03 0.  0.
         24    2    1    2    0    0  0.62956559290E+02  0.37526092578E+02  0.69917183322E+02  0.12826872015E+03  0.78693812110E+02 0.  0.
        -13    1    5    5    0    0  0.48669582629E+02  0.11427909608E+02  0.82095693201E+02  0.96119863886E+02  0.00000000000E+00 0.  1.
         14    1    5    5    0    0  0.14286976661E+02  0.26098182970E+02 -0.12178509879E+02  0.32148856267E+02  0.00000000000E+00 0. -1.
         13    1    3    3    0    0 -0.65161878829E+01  0.56656255769E+02 -0.90275190552E+03  0.90455148828E+03  0.00000000000E+00 0. -1.
        -14    1    3    3    0    0  0.35444412527E+01 -0.23728546815E+02 -0.20667468230E+03  0.20806256583E+03  0.00000000000E+00 0.  1.
          5    1    4    4  501    0 -0.58420397150E+02  0.17633297791E+02 -0.81858799255E+02  0.10218713916E+03  0.41800000000E+01 0.  1.
         -5    1    4    4    0  501 -0.15644155091E+01 -0.88087099323E+02 -0.23000297577E+03  0.24633437788E+03  0.41800000000E+01 0.  1.
</event>
<event>
11    1  0.8551154E-009  0.1609438E+03  0.7561462E-02  0.1086193E+00
         22   -1    0    0    0    0  0.00000000000E+00  0.00000000000E+00  0.17593496488E+03  0.17593496488E+03  0.00000000000E+00 0. -1.
         22   -1    0    0    0    0 -0.00000000000E+00 -0.00000000000E+00 -0.28295586493E+04  0.28295586493E+04  0.00000000000E+00 0. -1.
        -24    2    1    2    0    0  0.14884371487E+02 -0.24179491644E+02 -0.22043021062E+04  0.22059527451E+04  0.80458348747E+02 0.  0.
         25    2    1    2    0    0 -0.59251744975E+02 -0.67532490909E+02 -0.58920558196E+03  0.60900163399E+03  0.12509342820E+03 0.  0.
         24    2    1    2    0    0  0.44367373487E+02  0.91711982553E+02  0.13988400369E+03  0.19053923514E+03  0.79737783175E+02 0.  0.
        -13    1    5    5    0    0  0.64969782287E+02  0.81926203344E+02  0.10050514850E+03  0.14503192848E+03  0.00000000000E+00 0.  1.
         14    1    5    5    0    0 -0.20602408800E+02  0.97857792094E+01  0.39378855191E+02  0.45507306658E+02  0.00000000000E+00 0. -1.
         13    1    3    3    0    0  0.10261312505E+02 -0.45060747552E+02 -0.71243346931E+03  0.71393081856E+03  0.00000000000E+00 0. -1.
        -14    1    3    3    0    0  0.46230589821E+01  0.20881255907E+02 -0.14918686369E+04  0.14920219265E+04  0.00000000000E+00 0.  1.
          5    1    4    4  501    0 -0.64300604982E+02 -0.43118599519E+02 -0.14805416373E+03  0.16712656648E+03  0.41800000000E+01 0. -1.
         -5    1    4    4    0  501  0.50488600078E+01 -0.24413891390E+02 -0.44115141823E+03  0.44187506751E+03  0.41800000000E+01 0. -1.
</event>
<event>
11    1  0.8551154E-009  0.1387772E+03  0.7561462E-02  0.1108932E+00
         22   -1    0    0    0    0  0.00000000000E+00  0.00000000000E+00  0.80308679835E+03  0.80308679835E+03  0.00000000000E+00 0.  1.
         22   -1    0    0    0    0 -0.00000000000E+00 -0.00000000000E+00 -0.47810254069E+03  0.47810254069E+03  0.00000000000E+00 0.  1.
         24    2    1    2    0    0 -0.34879902520E+02  0.30316405575E+02 -0.40870449965E+03  0.41913377137E+03  0.80610534152E+02 0.  0.
         25    2    1    2    0    0  0.87526416178E+02 -0.34500449563E+01  0.35429457066E+02  0.15676519664E+03  0.12508918463E+03 0.  0.
        -24    2    1    2    0    0 -0.52646513658E+02 -0.26866360619E+02  0.69825930025E+03  0.70529037102E+03  0.79843599277E+02 0.  0.
        -13    1    3    3    0    0 -0.15583611225E+02  0.56174481598E+01 -0.36487303751E+03  0.36524887155E+03  0.00000000000E+00 0.  1.
         14    1    3    3    0    0 -0.19296291295E+02  0.24698957415E+02 -0.43831462139E+02  0.53884899818E+02  0.00000000000E+00 0. -1.
         11    1    5    5    0    0 -0.10157894499E+02 -0.27597312082E+02  0.74629831686E+02  0.80214750715E+02  0.00000000000E+00 0. -1.
        -12    1    5    5    0    0 -0.42488619159E+02  0.73095146267E+00  0.62362946856E+03  0.62507562031E+03  0.00000000000E+00 0.  1.
          5    1    4    4  501    0  0.90074034508E+02 -0.59220334579E+01 -0.26830447615E+02  0.94264242914E+02  0.41800000000E+01 0.  1.
         -5    1    4    4    0  501 -0.25476183305E+01  0.24719885016E+01  0.62259904680E+02  0.62500953730E+02  0.41800000000E+01 0.  1.
</event>
<event>
11    1  0.8551154E-009  0.1310235E+03  0.7561462E-02  0.1118018E+00
         22   -1    0    0    0    0  0.00000000000E+00  0.00000000000E+00  0.16120881083E+04  0.16120881083E+04  0.00000000000E+00 0. -1.
         22   -1    0    0    0    0 -0.00000000000E+00 -0.00000000000E+00 -0.30682922892E+03  0.30682922892E+03  0.00000000000E+00 0. -1.
         24    2    1    2    0    0  0.16307782171E+01 -0.31421615000E+02 -0.24294472202E+03  0.25789961976E+03  0.80623188884E+02 0.  0.
         25    2    1    2    0    0 -0.28413529744E+02  0.59055632000E+02  0.35812010165E+02  0.14565320106E+03  0.12504982432E+03 0.  0.
        -24    2    1    2    0    0  0.26782751527E+02 -0.27634016999E+02  0.15123915912E+04  0.15153645164E+04  0.86719880369E+02 0.  0.
        -13    1    3    3    0    0  0.27457122900E+02 -0.26541195878E+02 -0.48711755662E+02  0.61896395826E+02  0.00000000000E+00 0.  1.
         14    1    3    3    0    0 -0.25826344683E+02 -0.48804191226E+01 -0.19423296636E+03  0.19600322393E+03  0.00000000000E+00 0. -1.
         11    1    5    5    0    0  0.24668459966E+02 -0.37739686487E+02  0.14902738465E+04  0.14909557185E+04  0.00000000000E+00 0. -1.
        -12    1    5    5    0    0  0.21142915617E+01  0.10105669488E+02  0.22117744733E+02  0.24408797936E+02  0.00000000000E+00 0.  1.
          5    1    4    4  501    0 -0.33269862326E+02  0.41021421853E+02  0.80880687126E+02  0.96689186262E+02  0.41800000000E+01 0.  1.
         -5    1    4    4    0  501  0.48563325817E+01  0.18034210147E+02 -0.45068676961E+02  0.48964014795E+02  0.41800000000E+01 0.  1.
</event>
<event>
11    1  0.8551154E-009  0.1653631E+03  0.7561462E-02  0.1082139E+00
         22   -1    0    0    0    0  0.00000000000E+00  0.00000000000E+00  0.19592269670E+03  0.19592269670E+03  0.00000000000E+00 0.  1.
         22   -1    0    0    0    0 -0.00000000000E+00 -0.00000000000E+00 -0.62681929863E+03  0.62681929863E+03  0.00000000000E+00 0. -1.
         24    2    1    2    0    0 -0.10711045590E+01  0.39114656626E+02 -0.44748826627E+03  0.45614732035E+03  0.79331745138E+02 0.  0.
         25    2    1    2    0    0  0.30778529903E+02  0.72026603448E+02 -0.10463276372E+03  0.18091623668E+03  0.12509004734E+03 0.  0.
        -24    2    1    2    0    0 -0.29707425345E+02 -0.11114126007E+03  0.12122442806E+03  0.18567843831E+03  0.80908650241E+02 0.  0.
        -11    1    3    3    0    0  0.29683088654E+02 -0.31366249848E+01 -0.25321166157E+03  0.25496484017E+03  0.00000000000E+00 0.  1.
         12    1    3    3    0    0 -0.30754193213E+02  0.42251281610E+02 -0.19427660470E+03  0.20118248018E+03  0.00000000000E+00 0. -1.
         13    1    5    5    0    0  0.17197353319E+02  0.17868763418E+01  0.23329085922E+02  0.29037702013E+02  0.00000000000E+00 0. -1.
        -14    1    5    5    0    0 -0.46904778663E+02 -0.11292813642E+03  0.97895342136E+02  0.15664073630E+03  0.00000000000E+00 0.  1.
          5    1    4    4  501    0  0.37949150201E+02 -0.20244653300E+02 -0.69489903190E+02  0.81830941786E+02  0.41800000000E+01 0. -1.
         -5    1    4    4    0  501 -0.71706202978E+01  0.92271256749E+02 -0.35142860529E+02  0.99085294891E+02  0.41800000000E+01 0. -1.
</event>
<event>
11    1  0.8551154E-009  0.1631925E+03  0.7561462E-02  0.1084112E+00
         22   -1    0    0    0    0  0.00000000000E+00  0.00000000000E+00  0.52903787772E+03  0.52903787772E+03  0.00000000000E+00 0. -1.
         22   -1    0    0    0    0 -0.00000000000E+00 -0.00000000000E+00 -0.10064743441E+04  0.10064743441E+04  0.00000000000E+00 0.  1.
        -24    2    1    2    0    0  0.81500885921E+00 -0.15011441815E+02 -0.93123937999E+03  0.93461340665E+03  0.77906542871E+02 0.  0.
         25    2    1    2    0    0  0.41120377205E+02  0.10899804540E+03  0.52379593042E+02  0.17878198014E+03  0.12509162775E+03 0.  0.
         24    2    1    2    0    0 -0.41935386064E+02 -0.93986603580E+02  0.40142332055E+03  0.42211683505E+03  0.80311156752E+02 0.  0.
        -13    1    5    5    0    0  0.13213957481E+02 -0.17334411867E+02  0.21432754296E+02  0.30568831574E+02  0.00000000000E+00 0.  1.
         14    1    5    5    0    0 -0.55149343546E+02 -0.76652191713E+02  0.37999056625E+03  0.39154800348E+03  0.00000000000E+00 0. -1.
         13    1    3    3    0    0  0.28014608219E+02  0.17031110696E+02 -0.56901298431E+03  0.56995671179E+03  0.00000000000E+00 0. -1.
        -14    1    3    3    0    0 -0.27199599360E+02 -0.32042552511E+02 -0.36222639568E+03  0.36465669486E+03  0.00000000000E+00 0.  1.
          5    1    4    4  501    0 -0.21190894295E+02  0.10618746083E+03  0.30924218385E+02  0.11268811172E+03  0.41800000000E+01 0. -1.
         -5    1    4    4    0  501  0.62311271500E+02  0.28105845616E+01  0.21455374658E+02  0.66093868424E+02  0.41800000000E+01 0. -1.
</event>
<event>
11    1  0.8551154E-009  0.2355575E+03  0.7561462E-02  0.1031887E+00
         22   -1    0    0    0    0  0.00000000000E+00  0.00000000000E+00  0.87903719863E+03  0.87903719863E+03  0.00000000000E+00 0. -1.
         22   -1    0    0    0    0 -0.00000000000E+00 -0.00000000000E+00 -0.11394879515E+04  0.11394879515E+04  0.00000000000E+00 0.  1.
        -24    2    1    2    0    0  0.55338489068E+02 -0.44002991148E+02 -0.87692525504E+03  0.88348970885E+03  0.80978707751E+02 0.  0.
         25    2    1    2    0    0 -0.25196069488E+03  0.42503757834E+02 -0.16288128445E+03  0.32782561630E+03  0.12509420724E+03 0.  0.
         24    2    1    2    0    0  0.19662220581E+03  0.14992333143E+01  0.77935578662E+03  0.80720982497E+03  0.74362086277E+02 0.  0.
        -13    1    5    5    0    0  0.14253981217E+03  0.29253115709E+01  0.41378802501E+03  0.43766046787E+03  0.00000000000E+00 0.  1.
         14    1    5    5    0    0  0.54082393647E+02 -0.14260782566E+01  0.36556776161E+03  0.36954935710E+03  0.00000000000E+00 0. -1.
         11    1    3    3    0    0 -0.43588736078E+01 -0.25343979137E+02 -0.78210862630E+02  0.82330165134E+02  0.00000000000E+00 0. -1.
        -12    1    3    3    0    0  0.59697362675E+02 -0.18659012011E+02 -0.79871439241E+03  0.80115954371E+03  0.00000000000E+00 0.  1.
          5    1    4    4  501    0  0.26633611506E+01 -0.21199552307E+02 -0.91323920112E+01  0.23609055349E+02  0.41800000000E+01 0.  1.
         -5    1    4    4    0  501 -0.25462405603E+03  0.63703310140E+02 -0.15374889244E+03  0.30421656095E+03  0.41800000000E+01 0.  1.
</event>
<event>
11    1  0.8551154E-009  0.1692125E+03  0.7561462E-02  0.1078719E+00
         22   -1    0    0    0    0  0.00000000000E+00  0.00000000000E+00  0.89855593295E+02  0.89855593295E+02  0.00000000000E+00 0. -1.
         22   -1    0    0    0    0 -0.00000000000E+00 -0.00000000000E+00 -0.88479834042E+03  0.88479834042E+03  0.00000000000E+00 0. -1.
         24    2    1    2    0    0 -0.10937220788E+03  0.71129416605E+02 -0.58007696370E+03  0.59902482836E+03  0.72936872792E+02 0.  0.
         25    2    1    2    0    0  0.37805014022E+02 -0.73955867953E+02 -0.22429074295E+03  0.26990852779E+03  0.12508231894E+03 0.  0.
        -24    2    1    2    0    0  0.71567193858E+02  0.28264513480E+01  0.94249595185E+01  0.10572057757E+03  0.77189109307E+02 0.  0.
        -11    1    3    3    0    0  0.99426570499E+01  0.14001049773E+02 -0.69103256285E+02  0.71204956661E+02  0.00000000000E+00 0.  1.
         12    1    3    3    0    0 -0.11931486493E+03  0.57128366832E+02 -0.51097370741E+03  0.52781987170E+03  0.00000000000E+00 0. -1.
         13    1    5    5    0    0  0.35110681330E+02 -0.21964586646E+02 -0.26227809962E+02  0.49021434347E+02  0.00000000000E+00 0. -1.
        -14    1    5    5    0    0  0.36456512527E+02  0.24791037994E+02  0.35652769480E+02  0.56699143221E+02  0.00000000000E+00 0.  1.
          5    1    4    4  501    0  0.64489732031E+02  0.67881707720E+01 -0.99529865250E+02  0.11886408741E+03  0.41800000000E+01 0.  1.
         -5    1    4    4    0  501 -0.26684718009E+02 -0.80744038725E+02 -0.12476087769E+03  0.15104444037E+03  0.41800000000E+01 0.  1.
</event>
<event>
11    1  0.8551154E-009  0.2091867E+03  0.7561462E-02  0.1048211E+00
         22   -1    0    0    0    0  0.00000000000E+00  0.00000000000E+00  0.23577485114E+04  0.23577485114E+04  0.00000000000E+00 0.  1.
         22   -1    0    0    0    0 -0.00000000000E+00 -0.00000000000E+00 -0.10384747640E+03  0.10384747640E+03  0.00000000000E+00 0. -1.
        -24    2    1    2    0    0  0.16501990785E+03 -0.32802698119E+02 -0.15627671087E+01  0.18685353351E+03  0.81266313779E+02 0.  0.
         25    2    1    2    0    0 -0.14920720665E+03  0.63323648506E+02  0.13819478787E+04  0.13970327578E+04  0.12509161450E+03 0.  0.
         24    2    1    2    0    0 -0.15812701196E+02 -0.30520950387E+02  0.87351592338E+03  0.87770969644E+03  0.78502693475E+02 0.  0.
        -11    1    5    5    0    0 -0.28807823853E+02  0.33192319204E+01  0.69212060256E+03  0.69272782281E+03  0.00000000000E+00 0.  1.
         12    1    5    5    0    0  0.12995122658E+02 -0.33840182308E+02  0.18139532083E+03  0.18498187362E+03  0.00000000000E+00 0. -1.
         13    1    3    3    0    0  0.91819029060E+02 -0.36975401940E+02  0.34913858154E+02  0.10496138308E+03  0.00000000000E+00 0. -1.
        -14    1    3    3    0    0  0.73200878789E+02  0.41727038211E+01 -0.36476625263E+02  0.81892150437E+02  0.00000000000E+00 0.  1.
          5    1    4    4  501    0 -0.16076032589E+03  0.25549589724E+02  0.10205501809E+04  0.10334586630E+04  0.41800000000E+01 0.  1.
         -5    1    4    4    0  501  0.11553119238E+02  0.37774058782E+02  0.36139769780E+03  0.36357409487E+03  0.41800000000E+01 0.  1.
</event>
<event>
11    1  0.8551154E-009  0.2449943E+03  0.7561462E-02  0.1026600E+00
         22   -1    0    0    0    0  0.00000000000E+00  0.00000000000E+00  0.78332937220E+03  0.78332937220E+03  0.00000000000E+00 0. -1.
         22   -1    0    0    0    0 -0.00000000000E+00 -0.00000000000E+00 -0.29006193297E+03  0.29006193297E+03  0.00000000000E+00 0.  1.
        -24    2    1    2    0    0  0.17743864901E+03 -0.14448528840E+03 -0.17775214795E+03  0.30052431025E+03  0.79740593338E+02 0.  0.
         25    2    1    2    0    0 -0.42035074297E+02  0.15116121530E+03  0.22900887997E+03  0.30448108930E+03  0.12508799364E+03 0.  0.
         24    2    1    2    0    0 -0.13540357471E+03 -0.66759268993E+01  0.44201070720E+03  0.46838590562E+03  0.75054615163E+02 0.  0.
        -13    1    5    5    0    0 -0.56741345939E+02  0.20373364960E+02  0.27828784027E+03  0.28474335177E+03  0.00000000000E+00 0.  1.
         14    1    5    5    0    0 -0.78662228774E+02 -0.27049291860E+02  0.16372286693E+03  0.18364255384E+03  0.00000000000E+00 0. -1.
         11    1    3    3    0    0 -0.20801617517E+01 -0.10362018997E+01 -0.23832148893E+02  0.23945189666E+02  0.00000000000E+00 0. -1.
        -12    1    3    3    0    0  0.17951881076E+03 -0.14344908650E+03 -0.15391999905E+03  0.27657912058E+03  0.00000000000E+00 0.  1.
          5    1    4    4  501    0  0.16870303351E+02  0.12422716170E+03  0.19320980292E+03  0.23035732066E+03  0.41800000000E+01 0. -1.
         -5    1    4    4    0  501 -0.58905377648E+02  0.26934053594E+02  0.35799077057E+02  0.74123768638E+02  0.41800000000E+01 0. -1.
</event>
<event>
11    1  0.8551154E-009  0.1341232E+03  0.7561462E-02  0.1114304E+00
         22   -1    0    0    0    0  0.00000000000E+00  0.00000000000E+00  0.11293543736E+03  0.11293543736E+03  0.00000000000E+00 0. -1.
         22   -1    0    0    0    0 -0.00000000000E+00 -0.00000000000E+00 -0.33644728364E+04  0.33644728364E+04  0.00000000000E+00 0. -1.
         24    2    1    2    0    0  0.43617238563E+02 -0.23044792137E+02 -0.29872878809E+04  0.29893217025E+04  0.98599351096E+02 0.  0.
         25    2    1    2    0    0 -0.23712299293E+02  0.34154903965E+02 -0.34633153045E+03  0.37056919318E+03  0.12508863796E+03 0.  0.
        -24    2    1    2    0    0 -0.19904939270E+02 -0.11110111828E+02  0.82082012272E+02  0.11751737807E+03  0.80952061236E+02 0.  0.
        -13    1    3    3    0    0  0.59650016509E+01  0.14844610808E+02 -0.82177444489E+02  0.83720225140E+02  0.00000000000E+00 0.  1.
         14    1    3    3    0    0  0.37652236912E+02 -0.37889402945E+02 -0.29051104364E+04  0.29056014774E+04  0.00000000000E+00 0. -1.
         13    1    5    5    0    0 -0.96568160187E+01 -0.30098216432E+02  0.89328281350E+02  0.94755994939E+02  0.00000000000E+00 0. -1.
        -14    1    5    5    0    0 -0.10248123251E+02  0.18988104604E+02 -0.72462690775E+01  0.22761383134E+02  0.00000000000E+00 0.  1.
          5    1    4    4  501    0  0.39700594836E+02 -0.23004032911E+02 -0.13282825994E+03  0.14059211144E+03  0.41800000000E+01 0. -1.
         -5    1    4    4    0  501 -0.63412894129E+02  0.57158936876E+02 -0.21350327052E+03  0.22997708174E+03  0.41800000000E+01 0. -1.
</event>
<event>
11    1  0.8551154E-009  0.2354389E+03  0.7561462E-02  0.1031955E+00
         22   -1    0    0    0    0  0.00000000000E+00  0.00000000000E+00  0.22833429659E+03  0.22833429659E+03  0.00000000000E+00 0.  1.
         22   -1    0    0    0    0 -0.00000000000E+00 -0.00000000000E+00 -0.10058824246E+04  0.10058824246E+04  0.00000000000E+00 0. -1.
         24    2    1    2    0    0  0.34435350824E+02 -0.51022345221E+02 -0.66761461386E+03  0.67530349037E+03  0.80848366555E+02 0.  0.
         25    2    1    2    0    0 -0.16711639750E+03 -0.10177114566E+03 -0.21490144020E+03  0.31641135325E+03  0.12509300164E+03 0.  0.
        -24    2    1    2    0    0  0.13268104668E+03  0.15279349088E+03  0.10496792609E+03  0.24250187752E+03  0.82696941244E+02 0.  0.
        -13    1    3    3    0    0 -0.10467979052E+02 -0.15272530613E+02 -0.31013537749E+02  0.36120192421E+02  0.00000000000E+00 0.  1.
         14    1    3    3    0    0  0.44903329876E+02 -0.35749814608E+02 -0.63660107611E+03  0.63918329795E+03  0.00000000000E+00 0. -1.
         13    1    5    5    0    0  0.92586365198E+00  0.76684505311E+01 -0.11979142828E+02  0.14253498516E+02  0.00000000000E+00 0. -1.
        -14    1    5    5    0    0  0.13175518303E+03  0.14512504035E+03  0.11694706892E+03  0.22824837901E+03  0.00000000000E+00 0.  1.
          5    1    4    4  501    0  0.19859268947E+02 -0.23521853485E+01 -0.19049587089E+02  0.27933537321E+02  0.41800000000E+01 0.  1.
         -5    1    4    4    0  501 -0.18697566645E+03 -0.99418960310E+02 -0.19585185311E+03  0.28847781592E+03  0.41800000000E+01 0.  1.
</event>
<event>
11    1  0.8551154E-009  0.1829735E+03  0.7561462E-02  0.1067263E+00
         22   -1    0    0    0    0  0.00000000000E+00  0.00000000000E+00  0.74893950823E+03  0.74893950823E+03  0.00000000000E+00 0. -1.
         22   -1    0    0    0    0 -0.00000000000E+00 -0.00000000000E+00 -0.20512033516E+04  0.20512033516E+04  0.00000000000E+00 0.  1.
        -24    2    1    2    0    0 -0.16167761745E+02  0.59338290456E+02 -0.17341081655E+04  0.17371088602E+04  0.81447118791E+02 0.  0.
         25    2    1    2    0    0  0.14758600534E+03 -0.36600787905E+02 -0.27557315216E+03  0.33868722917E+03  0.12508888987E+03 0.  0.
         24    2    1    2    0    0 -0.13141824359E+03 -0.22737502551E+02  0.70741747430E+03  0.72434677049E+03  0.80318193503E+02 0.  0.
        -11    1    5    5    0    0 -0.19980342633E+02 -0.96147964891E+01  0.27953036056E+02  0.35679554762E+02  0.00000000000E+00 0.  1.
         12    1    5    5    0    0 -0.11143790096E+03 -0.13122706062E+02  0.67946443824E+03  0.68866721573E+03  0.00000000000E+00 0. -1.
         13    1    3    3    0    0 -0.46730868206E+01 -0.19571685338E+02 -0.51682761445E+03  0.51721917179E+03  0.00000000000E+00 0. -1.
        -14    1    3    3    0    0 -0.11494674925E+02  0.78909975794E+02 -0.12172805511E+04  0.12198896884E+04  0.00000000000E+00 0.  1.
          5    1    4    4  501    0  0.16669462648E+03 -0.33969939425E+02 -0.21047315531E+03  0.27066118449E+03  0.41800000000E+01 0.  1.
         -5    1    4    4    0  501 -0.19108621146E+02 -0.26308484803E+01 -0.65099996849E+02  0.68026044685E+02  0.41800000000E+01 0.  1.
</event>
<event>
11    1  0.8551154E-009  0.2096871E+03  0.7561462E-02  0.1047877E+00
         22   -1    0    0    0    0  0.00000000000E+00  0.00000000000E+00  0.45445426264E+03  0.45445426264E+03  0.00000000000E+00 0. -1.
         22   -1    0    0    0    0 -0.00000000000E+00 -0.00000000000E+00 -0.33471839421E+03  0.33471839421E+03  0.00000000000E+00 0. -1.
         24    2    1    2    0    0  0.24124662243E+02  0.37397863153E+01 -0.11032920038E+03  0.13909887389E+03  0.81117069288E+02 0.  0.
         25    2    1    2    0    0 -0.18975278429E+03  0.14601353905E+01 -0.11853909236E+03  0.25633426791E+03  0.12508992504E+03 0.  0.
        -24    2    1    2    0    0  0.16562812205E+03 -0.51999217058E+01  0.34860416117E+03  0.39373951505E+03  0.77757511073E+02 0.  0.
        -13    1    3    3    0    0 -0.91360507015E+01  0.29641062237E+02 -0.83635888532E+02  0.89202140352E+02  0.00000000000E+00 0.  1.
         14    1    3    3    0    0  0.33260712945E+02 -0.25901275922E+02 -0.26693311852E+02  0.49896733536E+02  0.00000000000E+00 0. -1.
         11    1    5    5    0    0  0.17336570608E+03 -0.10007902383E+02  0.33553256387E+03  0.37780673309E+03  0.00000000000E+00 0. -1.
        -12    1    5    5    0    0 -0.77375840327E+01  0.48079806774E+01  0.13071597300E+02  0.15932781955E+02  0.00000000000E+00 0.  1.
          5    1    4    4  501    0 -0.11874611138E+03  0.44245870176E+02 -0.21438470551E+02  0.12859011010E+03  0.41800000000E+01 0.  1.
         -5    1    4    4    0  501 -0.71006672907E+02 -0.42785734785E+02 -0.97100621806E+02  0.12774415781E+03  0.41800000000E+01 0.  1.
</event>
<event>
11    1  0.8551154E-009  0.2022638E+03  0.7561462E-02  0.1052934E+00
         22   -1    0    0    0    0  0.00000000000E+00  0.00000000000E+00  0.20675123828E+03  0.20675123828E+03  0.00000000000E+00 0.  1.
         22   -1    0    0    0    0 -0.00000000000E+00 -0.00000000000E+00 -0.89259451790E+03  0.89259451790E+03  0.00000000000E+00 0. -1.
        -24    2    1    2    0    0  0.32622030316E+02  0.59931743472E+02 -0.64059728009E+03  0.64919438239E+03  0.80202619238E+02 0.  0.
         25    2    1    2    0    0 -0.41415889952E+02  0.11140088224E+03 -0.15462701410E+03  0.23169590431E+03  0.12509215035E+03 0.  0.
         24    2    1    2    0    0  0.87938596364E+01 -0.17133262571E+03  0.10938101458E+03  0.21845546948E+03  0.79538576755E+02 0.  0.
        -13    1    5    5    0    0  0.26843057645E+02 -0.14669774630E+03  0.11380647693E+03  0.18759715537E+03  0.00000000000E+00 0.  1.
         14    1    5    5    0    0 -0.18049198008E+02 -0.24634879412E+02 -0.44254623439E+01  0.30858314104E+02  0.00000000000E+00 0. -1.
         11    1    3    3    0    0  0.15660966305E+01  0.83463206789E+00 -0.38555885928E+03  0.38556294329E+03  0.00000000000E+00 0. -1.
        -12    1    3    3    0    0  0.31055933685E+02  0.59097111404E+02 -0.25503842081E+03  0.26363143910E+03  0.00000000000E+00 0.  1.
          5    1    4    4  501    0 -0.81813090596E+01 -0.25327862195E+02 -0.48206308055E+02  0.55224586532E+02  0.41800000000E+01 0. -1.
         -5    1    4    4    0  501 -0.33234580893E+02  0.13672874444E+03 -0.10642070605E+03  0.17647131778E+03  0.41800000000E+01 0. -1.
</event>
<event>
11    1  0.8551154E-009  0.1460594E+03  0.7561462E-02  0.1100975E+00
         22   -1    0    0    0    0  0.00000000000E+00  0.00000000000E+00  0.33673160762E+03  0.33673160762E+03  0.00000000000E+00 0.  1.
         22   -1    0    0    0    0 -0.00000000000E+00 -0.00000000000E+00 -0.53374421658E+03  0.53374421658E+03  0.00000000000E+00 0.  1.
        -24    2    1    2    0    0  0.54879485898E+02 -0.57319951543E+02 -0.34811011520E+03  0.36591563309E+03  0.80101581877E+02 0.  0.
         25    2    1    2    0    0 -0.48642680232E+02  0.40086976184E+02 -0.14241596117E+03  0.19975698996E+03  0.12508985986E+03 0.  0.
         24    2    1    2    0    0 -0.62368056660E+01  0.17232975359E+02  0.29351346741E+03  0.30480320115E+03  0.80118429189E+02 0.  0.
        -13    1    5    5    0    0  0.31613766511E+02  0.21769809914E+02  0.20287500019E+03  0.20647426125E+03  0.00000000000E+00 0.  1.
         14    1    5    5    0    0 -0.37850572177E+02 -0.45368345549E+01  0.90638467222E+02  0.98328939902E+02  0.00000000000E+00 0. -1.
         13    1    3    3    0    0  0.28548346968E+02 -0.45142048144E+02 -0.79699510747E+02  0.95941777337E+02  0.00000000000E+00 0. -1.
        -14    1    3    3    0    0  0.26331138929E+02 -0.12177903400E+02 -0.26841060445E+03  0.26997385576E+03  0.00000000000E+00 0.  1.
          5    1    4    4  501    0 -0.24296522060E+01  0.58144469285E+02 -0.11198333785E+02  0.59410079935E+02  0.41800000000E+01 0.  1.
         -5    1    4    4    0  501 -0.46213028026E+02 -0.18057493101E+02 -0.13121762738E+03  0.14034691002E+03  0.41800000000E+01 0.  1.
</event>
<event>
11    1  0.8551154E-009  0.1423237E+03  0.7561462E-02  0.1104991E+00
         22   -1    0    0    0    0  0.00000000000E+00  0.00000000000E+00  0.18562646120E+04  0.18562646120E+04  0.00000000000E+00 0.  1.
         22   -1    0    0    0    0 -0.00000000000E+00 -0.00000000000E+00 -0.18122128667E+03  0.18122128667E+03  0.00000000000E+00 0. -1.
         24    2    1    2    0    0  0.49125100429E+02 -0.24167526617E+02 -0.15528670654E+03  0.18278329455E+03  0.79362627863E+02 0.  0.
         25    2    1    2    0    0 -0.89970580894E+02 -0.24983441414E+02  0.63664615246E+03  0.65550370293E+03  0.12509157985E+03 0.  0.
        -24    2    1    2    0    0  0.40845480465E+02  0.49150968031E+02  0.11936838794E+04  0.11991989012E+04  0.95460094865E+02 0.  0.
        -11    1    3    3    0    0 -0.80684844438E+01  0.17143290418E+02 -0.67773820509E+02  0.70372463321E+02  0.00000000000E+00 0.  1.
         12    1    3    3    0    0  0.57193584873E+02 -0.41310817035E+02 -0.87512886036E+02  0.11241083123E+03  0.00000000000E+00 0. -1.
         13    1    5    5    0    0 -0.28603362150E+02  0.16199592199E+01  0.41289768344E+03  0.41389041253E+03  0.00000000000E+00 0. -1.
        -14    1    5    5    0    0  0.69448842615E+02  0.47531008812E+02  0.78078619596E+03  0.78530848865E+03  0.00000000000E+00 0.  1.
          5    1    4    4  501    0  0.80282724574E+01  0.65282781343E+01  0.36196640243E+03  0.36213839959E+03  0.41800000000E+01 0.  1.
         -5    1    4    4    0  501 -0.97998853351E+02 -0.31511719548E+02  0.27467975003E+03  0.29336530334E+03  0.41800000000E+01 0.  1.
</event>
<event>
11    1  0.8551154E-009  0.1818334E+03  0.7561462E-02  0.1068169E+00
         22   -1    0    0    0    0  0.00000000000E+00  0.00000000000E+00  0.72519290495E+03  0.72519290495E+03  0.00000000000E+00 0.  1.
         22   -1    0    0    0    0 -0.00000000000E+00 -0.00000000000E+00 -0.22169232929E+04  0.22169232929E+04  0.00000000000E+00 0. -1.
         24    2    1    2    0    0 -0.84492495119E+02 -0.10199985380E+03 -0.21433853756E+04  0.21488960401E+04  0.78168861978E+02 0.  0.
         25    2    1    2    0    0  0.99000741502E+02  0.63561469970E+02  0.47958998720E+02  0.17829444435E+03  0.12509051141E+03 0.  0.
        -24    2    1    2    0    0 -0.14508246382E+02  0.38438383828E+02  0.60369598889E+03  0.61492571343E+03  0.10952984741E+03 0.  0.
        -13    1    3    3    0    0 -0.18619540175E+02 -0.31594959124E+02 -0.21526810346E+03  0.21836960659E+03  0.00000000000E+00 0.  1.
         14    1    3    3    0    0 -0.65872954944E+02 -0.70404894674E+02 -0.19281172721E+04  0.19305264335E+04  0.00000000000E+00 0. -1.
         13    1    5    5    0    0 -0.37742940053E+02  0.22082154790E+00  0.71473583586E+02  0.80827293884E+02  0.00000000000E+00 0. -1.
        -14    1    5    5    0    0  0.23234693671E+02  0.38217562280E+02  0.53222240530E+03  0.53409841955E+03  0.00000000000E+00 0.  1.
          5    1    4    4  501    0  0.76140955316E+02 -0.82835392959E+01  0.65395650313E+02  0.10079744828E+03  0.41800000000E+01 0.  1.
         -5    1    4    4    0  501  0.22859786186E+02  0.71845009266E+02 -0.17436651593E+02  0.77496996069E+02  0.41800000000E+01 0.  1.
</event>
<event>
11    1  0.8551154E-009  0.1288098E+03  0.7561462E-02  0.1120740E+00
         22   -1    0    0    0    0  0.00000000000E+00  0.00000000000E+00  0.36391974782E+03  0.36391974782E+03  0.00000000000E+00 0. -1.
         22   -1    0    0    0    0 -0.00000000000E+00 -0.00000000000E+00 -0.97165724305E+03  0.97165724305E+03  0.00000000000E+00 0.  1.
        -24    2    1    2    0    0  0.24554622044E+02 -0.18427679799E+02 -0.92408664641E+03  0.92810417268E+03  0.80614616692E+02 0.  0.
         25    2    1    2    0    0 -0.17361633048E+02  0.30698232871E+02  0.69106318309E+02  0.14719739369E+03  0.12509029409E+03 0.  0.
         24    2    1    2    0    0 -0.71929889961E+01 -0.12270553072E+02  0.24724283287E+03  0.26027542450E+03  0.80074793997E+02 0.  0.
        -11    1    5    5    0    0 -0.77254789365E+00 -0.18632618337E+02  0.70874666553E+01  0.19950024560E+02  0.00000000000E+00 0.  1.
         12    1    5    5    0    0 -0.64204411025E+01  0.63620652651E+01  0.24015536621E+03  0.24032539994E+03  0.00000000000E+00 0. -1.
         11    1    3    3    0    0  0.43156653098E+02  0.15705369573E+02 -0.58402791363E+03  0.58583082818E+03  0.00000000000E+00 0. -1.
        -12    1    3    3    0    0 -0.18602031053E+02 -0.34133049372E+02 -0.34005873277E+03  0.34227334450E+03  0.00000000000E+00 0.  1.
          5    1    4    4  501    0 -0.47962819122E+02  0.22552506594E+02  0.93125396378E+02  0.10723273484E+03  0.41800000000E+01 0. -1.
         -5    1    4    4    0  501  0.30601186073E+02  0.81457262772E+01 -0.24019078069E+02  0.39964658850E+02  0.41800000000E+01 0. -1.
</event>
<event>
11    1  0.8551154E-009  0.2330636E+03  0.7561462E-02  0.1033329E+00
         22   -1    0    0    0    0  0.00000000000E+00  0.00000000000E+00  0.10040078026E+04  0.10040078026E+04  0.00000000000E+00 0.  1.
         22   -1    0    0    0    0 -0.00000000000E+00 -0.00000000000E+00 -0.52926719331E+03  0.52926719331E+03  0.00000000000E+00 0. -1.
         24    2    1    2    0    0 -0.17131201967E+03  0.97410786238E+02 -0.45838071280E+03  0.50534888638E+03  0.80174495539E+02 0.  0.
         25    2    1    2    0    0  0.17813290200E+03 -0.73758761973E+02  0.24993860128E+03  0.33953976058E+03  0.12508500654E+03 0.  0.
        -24    2    1    2    0    0 -0.68208823355E+01 -0.23652024265E+02  0.68318272084E+03  0.68838634897E+03  0.80815794895E+02 0.  0.
        -11    1    3    3    0    0 -0.73525131927E+01 -0.29180137497E+01  0.40689227695E+00  0.79208469129E+01  0.00000000000E+00 0.  1.
         12    1    3    3    0    0 -0.16395950647E+03  0.10032879999E+03 -0.45878760508E+03  0.49742803947E+03  0.00000000000E+00 0. -1.
         13    1    5    5    0    0  0.11383174629E+02 -0.24421767039E+02  0.71127398186E+02  0.76059885239E+02  0.00000000000E+00 0. -1.
        -14    1    5    5    0    0 -0.18204056965E+02  0.76974277406E+00  0.61205532266E+03  0.61232646373E+03  0.00000000000E+00 0.  1.
          5    1    4    4  501    0  0.34523871328E+02  0.34806446455E+02  0.44383795772E+02  0.66262962004E+02  0.41800000000E+01 0. -1.
         -5    1    4    4    0  501  0.14360903067E+03 -0.10856520843E+03  0.20555480550E+03  0.27327679857E+03  0.41800000000E+01 0. -1.
</event>
<event>
11    1  0.8551154E-009  0.1833799E+03  0.7561462E-02  0.1066941E+00
         22   -1    0    0    0    0  0.00000000000E+00  0.00000000000E+00  0.31496587312E+03  0.31496587312E+03  0.00000000000E+00 0.  1.
         22   -1    0    0    0    0 -0.00000000000E+00 -0.00000000000E+00 -0.73391137167E+03  0.73391137167E+03  0.00000000000E+00 0.  1.
        -24    2    1    2    0    0 -0.90992416737E+01  0.43589151247E+02 -0.57607401280E+03  0.58339385545E+03  0.80649315229E+02 0.  0.
         25    2    1    2    0    0 -0.22945067187E+02 -0.16703269468E+03 -0.43558101284E+02  0.21440736669E+03  0.12508722359E+03 0.  0.
         24    2    1    2    0    0  0.32044308861E+02  0.12344354343E+03  0.20068661554E+03  0.25107602264E+03  0.80615788417E+02 0.  0.
        -13    1    5    5    0    0 -0.20346767280E+02  0.77623693730E+02  0.92762646652E+02  0.12265536018E+03  0.00000000000E+00 0.  1.
         14    1    5    5    0    0  0.52391076141E+02  0.45819849701E+02  0.10792396888E+03  0.12842066246E+03  0.00000000000E+00 0. -1.
         13    1    3    3    0    0 -0.21096846932E+02 -0.18920682487E+02 -0.16314273182E+03  0.16558568816E+03  0.00000000000E+00 0. -1.
        -14    1    3    3    0    0  0.11997605259E+02  0.62509833734E+02 -0.41293128098E+03  0.41780816730E+03  0.00000000000E+00 0.  1.
          5    1    4    4  501    0 -0.18845162685E+02 -0.85476649133E+02 -0.85570765362E+02  0.12247949211E+03  0.41800000000E+01 0. -1.
         -5    1    4    4    0  501 -0.40999045015E+01 -0.81556045546E+02  0.42012664079E+02  0.91927874581E+02  0.41800000000E+01 0. -1.
</event>
<event>
11    1  0.8551154E-009  0.1283534E+03  0.7561462E-02  0.1121309E+00
         22   -1    0    0    0    0  0.00000000000E+00  0.00000000000E+00  0.36047469975E+03  0.36047469975E+03  0.00000000000E+00 0. -1.
         22   -1    0    0    0    0 -0.00000000000E+00 -0.00000000000E+00 -0.41947702754E+03  0.41947702754E+03  0.00000000000E+00 0. -1.
         24    2    1    2    0    0 -0.18694407173E+02  0.23410266612E+02 -0.32961867096E+03  0.34072773657E+03  0.80928368209E+02 0.  0.
         25    2    1    2    0    0 -0.71192750246E+01 -0.27169876618E+02 -0.28735349834E+02  0.13138588364E+03  0.12509054248E+03 0.  0.
        -24    2    1    2    0    0  0.25813682198E+02  0.37596100052E+01  0.29935169301E+03  0.30783810707E+03  0.66875879075E+02 0.  0.
        -11    1    3    3    0    0 -0.31702164592E+02  0.20394079972E+02 -0.60530019213E+02  0.71307986675E+02  0.00000000000E+00 0.  1.
         12    1    3    3    0    0  0.13007757419E+02  0.30161866409E+01 -0.26908865175E+03  0.26941974990E+03  0.00000000000E+00 0. -1.
         13    1    5    5    0    0  0.31331761667E+02 -0.26939428993E+01  0.29748726540E+03  0.29914479720E+03  0.00000000000E+00 0. -1.
        -14    1    5    5    0    0 -0.55180794690E+01  0.64535529045E+01  0.18644276035E+01  0.86933098648E+01  0.00000000000E+00 0.  1.
          5    1    4    4  501    0  0.12227085371E+02 -0.63066881544E+02 -0.53316481515E+02  0.83588592317E+02  0.41800000000E+01 0.  1.
         -5    1    4    4    0  501 -0.19346360396E+02  0.35897004926E+02  0.24581131681E+02  0.47797291324E+02  0.41800000000E+01 0.  1.
</event>
<event>
11    1  0.8551154E-009  0.1283591E+03  0.7561462E-02  0.1121302E+00
         22   -1    0    0    0    0  0.00000000000E+00  0.00000000000E+00  0.51675181570E+03  0.51675181570E+03  0.00000000000E+00 0.  1.
         22   -1    0    0    0    0 -0.00000000000E+00 -0.00000000000E+00 -0.20818694400E+03  0.20818694400E+03  0.00000000000E+00 0. -1.
         24    2    1    2    0    0 -0.30747809664E+02 -0.18893272554E+00 -0.16899756670E+03  0.19339623119E+03  0.88862034600E+02 0.  0.
         25    2    1    2    0    0 -0.32460085512E+01 -0.12253213775E+02  0.17777293910E+03  0.21774251638E+03  0.12509159743E+03 0.  0.
        -24    2    1    2    0    0  0.33993818215E+02  0.12442146501E+02  0.29978949930E+03  0.31380001212E+03  0.85359926382E+02 0.  0.
        -13    1    3    3    0    0  0.21601745259E+02  0.25172086369E+02 -0.40531877187E+02  0.52374635070E+02  0.00000000000E+00 0.  1.
         14    1    3    3    0    0 -0.52349554924E+02 -0.25361019095E+02 -0.12846568951E+03  0.14102159612E+03  0.00000000000E+00 0. -1.
         11    1    5    5    0    0  0.24294935169E+02  0.53087135993E+01  0.15601284936E+02  0.29356880056E+02  0.00000000000E+00 0. -1.
        -12    1    5    5    0    0  0.96988830463E+01  0.71334329013E+01  0.28418821436E+03  0.28444313207E+03  0.00000000000E+00 0.  1.
          5    1    4    4  501    0 -0.74597380163E+01  0.48872357653E+02  0.13238663737E+03  0.14137839010E+03  0.41800000000E+01 0.  1.
         -5    1    4    4    0  501  0.42137294651E+01 -0.61125571428E+02  0.45386301724E+02  0.76364126280E+02  0.41800000000E+01 0.  1.
</event>
<event>
11    1  0.8551154E-009  0.1721218E+03  0.7561462E-02  0.1076200E+00
         22   -1    0    0    0    0  0.00000000000E+00  0.00000000000E+00  0.65153913425E+03  0.65153913425E+03  0.00000000000E+00 0. -1.
         22   -1    0    0    0    0 -0.00000000000E+00 -0.00000000000E+00 -0.25628001879E+03  0.25628001879E+03  0.00000000000E+00 0. -1.
        -24    2    1    2    0    0 -0.76315425144E+02  0.91819160601E+02 -0.14629624449E+03  0.20595439366E+03  0.82218116918E+02 0.  0.
         25    2    1    2    0    0  0.27237616161E+02 -0.12185814992E+03  0.28190538823E+02  0.17897782707E+03  0.12508820755E+03 0.  0.
         24    2    1    2    0    0  0.49077808983E+02  0.30038989322E+02  0.51336482113E+03  0.52288693230E+03  0.80971181217E+02 0.  0.
        -13    1    5    5    0    0  0.39984672977E+01  0.26124886873E+02  0.43865008772E+02  0.51211682743E+02  0.00000000000E+00 0.  1.
         14    1    5    5    0    0  0.45079341685E+02  0.39141024487E+01  0.46949981235E+03  0.47167524956E+03  0.00000000000E+00 0. -1.
         13    1    3    3    0    0 -0.61759965754E+02  0.15725157385E+02 -0.43196295045E+02  0.76990219186E+02  0.00000000000E+00 0. -1.
        -14    1    3    3    0    0 -0.14555459390E+02  0.76094003216E+02 -0.10309994944E+03  0.12896417448E+03  0.00000000000E+00 0.  1.
          5    1    4    4  501    0 -0.24710633116E+02 -0.33879078978E+02 -0.38348888270E+02  0.56978215249E+02  0.41800000000E+01 0.  1.
         -5    1    4    4    0  501  0.51948249277E+02 -0.87979070946E+02  0.66539427093E+02  0.12199961182E+03  0.41800000000E+01 0.  1.
</event>
<event>
11    1  0.8551154E-009  0.1422164E+03  0.7561462E-02  0.1105108E+00
         22   -1    0    0    0    0  0.00000000000E+00  0.00000000000E+00  0.73298016034E+03  0.73298016034E+03  0.00000000000E+00 0.  1.
         22   -1    0    0    0    0 -0.00000000000E+00 -0.00000000000E+00 -0.29910622277E+03  0.29910622277E+03  0.00000000000E+00 0. -1.
        -24    2    1    2    0    0 -0.24274905518E+02  0.13852365531E+02 -0.11848523134E+03  0.14527131312E+03  0.79270708969E+02 0.  0.
         25    2    1    2    0    0  0.16544834358E+02 -0.80795499203E+02 -0.12869050203E+03  0.19751018819E+03  0.12508950751E+03 0.  0.
         24    2    1    2    0    0  0.77300711597E+01  0.66943133672E+02  0.68104967095E+03  0.68930488181E+03  0.82288690837E+02 0.  0.
        -13    1    5    5    0    0  0.47861402993E+01  0.48536414882E+02  0.65733092972E+03  0.65913780189E+03  0.00000000000E+00 0.  1.
         14    1    5    5    0    0  0.29439308603E+01  0.18406718790E+02  0.23718741224E+02  0.30167079918E+02  0.00000000000E+00 0. -1.
         13    1    3    3    0    0 -0.47295797404E+02 -0.10392892574E+02 -0.85762524494E+02  0.98489163240E+02  0.00000000000E+00 0. -1.
        -14    1    3    3    0    0  0.23020891886E+02  0.24245258106E+02 -0.32722706846E+02  0.46782149877E+02  0.00000000000E+00 0.  1.
          5    1    4    4  501    0  0.54960469911E+02 -0.44870143972E+02 -0.12601956112E+03  0.14468028634E+03  0.41800000000E+01 0.  1.
         -5    1    4    4    0  501 -0.38415635553E+02 -0.35925355231E+02 -0.26709409189E+01  0.52829901844E+02  0.41800000000E+01 0.  1.
</event>
<event>
11    1  0.8551154E-009  0.2001016E+03  0.7561462E-02  0.1054452E+00
         22   -1    0    0    0    0  0.00000000000E+00  0.00000000000E+00  0.17917296960E+04  0.17917296960E+04  0.00000000000E+00 0. -1.
         22   -1    0    0    0    0 -0.00000000000E+00 -0.00000000000E+00 -0.24601525101E+03  0.24601525101E+03  0.00000000000E+00 0. -1.
        -24    2    1    2    0    0  0.14765671449E+02  0.14935974679E+03 -0.17162282492E+03  0.24251191483E+03  0.82651532278E+02 0.  0.
         25    2    1    2    0    0 -0.55846072818E+02 -0.25745566203E+03  0.57978078943E+03  0.64899542002E+03  0.12508832739E+03 0.  0.
         24    2    1    2    0    0  0.41080401369E+02  0.10809591523E+03  0.11375564804E+04  0.11462376121E+04  0.80334245543E+02 0.  0.
        -11    1    5    5    0    0 -0.25979293648E+01 -0.92129045587E+01  0.21680314560E+03  0.21701435618E+03  0.00000000000E+00 0.  1.
         12    1    5    5    0    0  0.43678330734E+02  0.11730881979E+03  0.92075333485E+03  0.92922325596E+03  0.00000000000E+00 0. -1.
         13    1    3    3    0    0  0.40556004096E+02  0.85717595892E+02 -0.62469796765E+02  0.11355514617E+03  0.00000000000E+00 0. -1.
        -14    1    3    3    0    0 -0.25790332648E+02  0.63642150903E+02 -0.10915302815E+03  0.12895676866E+03  0.00000000000E+00 0.  1.
          5    1    4    4  501    0  0.31022810942E+02 -0.11686153804E+03  0.18557584891E+03  0.22152855791E+03  0.41800000000E+01 0.  1.
         -5    1    4    4    0  501 -0.86868883760E+02 -0.14059412399E+03  0.39420494052E+03  0.42746686211E+03  0.41800000000E+01 0.  1.
</event>
<event>
11    1  0.8551154E-009  0.1306529E+03  0.7561462E-02  0.1118469E+00
         22   -1    0    0    0    0  0.00000000000E+00  0.00000000000E+00  0.15838584001E+03  0.15838584001E+03  0.00000000000E+00 0. -1.
         22   -1    0    0    0    0 -0.00000000000E+00 -0.00000000000E+00 -0.10840467692E+04  0.10840467692E+04  0.00000000000E+00 0.  1.
         24    2    1    2    0    0 -0.20098393335E+02 -0.31616331649E+02 -0.93741577047E+03  0.94176561299E+03  0.82283687499E+02 0.  0.
         25    2    1    2    0    0 -0.37386749245E+01  0.51749577232E+02 -0.93990904213E+02  0.16483763269E+03  0.12508060858E+03 0.  0.
        -24    2    1    2    0    0  0.23837068260E+02 -0.20133245583E+02  0.10574574553E+03  0.13582936349E+03  0.79334102933E+02 0.  0.
        -13    1    3    3    0    0 -0.33298404025E+02 -0.70506401917E+00 -0.78417443298E+03  0.78488140643E+03  0.00000000000E+00 0.  1.
         14    1    3    3    0    0  0.13200010689E+02 -0.30911267630E+02 -0.15324133749E+03  0.15688420655E+03  0.00000000000E+00 0. -1.
         13    1    5    5    0    0  0.36283720678E+02  0.54296305794E+01  0.10040793843E+03  0.10690062383E+03  0.00000000000E+00 0. -1.
        -14    1    5    5    0    0 -0.12446652418E+02 -0.25562876162E+02  0.53378071004E+01  0.28928739667E+02  0.00000000000E+00 0.  1.
          5    1    4    4  501    0 -0.58704491681E+02  0.53836205116E+02 -0.48623924137E+02  0.93414735044E+02  0.41800000000E+01 0. -1.
         -5    1    4    4    0  501  0.54965816756E+02 -0.20866278848E+01 -0.45366980076E+02  0.71422897651E+02  0.41800000000E+01 0. -1.
</event>
<event>
11    1  0.8551154E-009  0.1343589E+03  0.7561462E-02  0.1114026E+00
         22   -1    0    0    0    0  0.00000000000E+00  0.00000000000E+00  0.53118473180E+03  0.53118473180E+03  0.00000000000E+00 0. -1.
         22   -1    0    0    0    0 -0.00000000000E+00 -0.00000000000E+00 -0.13938791973E+03  0.13938791973E+03  0.00000000000E+00 0.  1.
        -24    2    1    2    0    0 -0.60244483036E+01 -0.43467057287E+02 -0.59261022169E+02  0.10924190046E+03  0.80599286735E+02 0.  0.
         25    2    1    2    0    0 -0.43255197154E+02  0.33798668815E+02  0.43318326694E+02  0.14330804182E+03  0.12508938935E+03 0.  0.
         24    2    1    2    0    0  0.49279645457E+02  0.96683884718E+01  0.40773950755E+03  0.41802270924E+03  0.77262657459E+02 0.  0.
        -13    1    5    5    0    0 -0.75088549302E+01  0.27266418326E+02  0.78058388798E+02  0.83023807022E+02  0.00000000000E+00 0.  1.
         14    1    5    5    0    0  0.56788500387E+02 -0.17598029854E+02  0.32968111875E+03  0.33499890222E+03  0.00000000000E+00 0. -1.
         13    1    3    3    0    0 -0.13632378826E+02 -0.21756069691E+02  0.16195984243E+02  0.30355859837E+02  0.00000000000E+00 0. -1.
        -14    1    3    3    0    0  0.76079305227E+01 -0.21710987596E+02 -0.75457006412E+02  0.78886040627E+02  0.00000000000E+00 0.  1.
          5    1    4    4  501    0 -0.30420320262E+02  0.72403179119E+02 -0.64298770067E+01  0.78907743281E+02  0.41800000000E+01 0.  1.
         -5    1    4    4    0  501 -0.12834876891E+02 -0.38604510305E+02  0.49748203701E+02  0.64400298541E+02  0.41800000000E+01 0.  1.
</event>
<event>
11    1  0.8551154E-009  0.1465006E+03  0.7561462E-02  0.1100509E+00
         22   -1    0    0    0    0  0.00000000000E+00  0.00000000000E+00  0.14872582181E+03  0.14872582181E+03  0.00000000000E+00 0.  1.
         22   -1    0    0    0    0 -0.00000000000E+00 -0.00000000000E+00 -0.23115371679E+04  0.23115371679E+04  0.00000000000E+00 0. -1.
        -24    2    1    2    0    0  0.38469291819E+02  0.17294271369E+02 -0.21746099234E+04  0.21765187135E+04  0.80786217952E+02 0.  0.
         25    2    1    2    0    0 -0.10473092546E+03 -0.24383011079E+02 -0.37856974181E+02  0.16924100859E+03  0.12508505312E+03 0.  0.
         24    2    1    2    0    0  0.66261633644E+02  0.70887397097E+01  0.49655551547E+02  0.11450326757E+03  0.78768459182E+02 0.  0.
        -13    1    5    5    0    0  0.82432895259E+02  0.15191199398E+02  0.33555003021E+02  0.90287834106E+02  0.00000000000E+00 0.  1.
         14    1    5    5    0    0 -0.16171261615E+02 -0.81024596880E+01  0.16100548526E+02  0.24215433468E+02  0.00000000000E+00 0. -1.
         13    1    3    3    0    0  0.53961192372E+02 -0.10513363919E+02 -0.16707834714E+04  0.16716876950E+04  0.00000000000E+00 0. -1.
        -14    1    3    3    0    0 -0.15491900553E+02  0.27807635288E+02 -0.50382645202E+03  0.50483101858E+03  0.00000000000E+00 0.  1.
          5    1    4    4  501    0 -0.10900782659E+03 -0.53254051222E+02 -0.17204840588E+00  0.12139276021E+03  0.41800000000E+01 0. -1.
         -5    1    4    4    0  501  0.42769011286E+01  0.28871040144E+02 -0.37684925775E+02  0.47848248379E+02  0.41800000000E+01 0. -1.
</event>
<event>
11    1  0.8551154E-009  0.1305067E+03  0.7561462E-02  0.1118648E+00
         22   -1    0    0    0    0  0.00000000000E+00  0.00000000000E+00  0.12262235842E+04  0.12262235842E+04  0.00000000000E+00 0.  1.
         22   -1    0    0    0    0 -0.00000000000E+00 -0.00000000000E+00 -0.21523968553E+03  0.21523968553E+03  0.00000000000E+00 0.  1.
         24    2    1    2    0    0 -0.31307876899E+02 -0.22334958377E+02 -0.14163363880E+03  0.16675620074E+03  0.79173918214E+02 0.  0.
         25    2    1    2    0    0  0.65627399566E+01  0.39426257032E+02  0.13119546021E+02  0.13198060399E+03  0.12509699454E+03 0.  0.
        -24    2    1    2    0    0  0.24745136942E+02 -0.17091298655E+02  0.11394979914E+04  0.11427264650E+04  0.80396934122E+02 0.  0.
        -13    1    3    3    0    0  0.20529583990E+01 -0.16480858894E+02 -0.12982974444E+03  0.13088772246E+03  0.00000000000E+00 0.  1.
         14    1    3    3    0    0 -0.33360835298E+02 -0.58540994826E+01 -0.11803894354E+02  0.35868478284E+02  0.00000000000E+00 0. -1.
         11    1    5    5    0    0 -0.11145958492E+02 -0.29172294378E+02  0.19630310977E+03  0.19877164298E+03  0.00000000000E+00 0. -1.
        -12    1    5    5    0    0  0.35891095434E+02  0.12080995723E+02  0.94319488163E+03  0.94395482197E+03  0.00000000000E+00 0.  1.
          5    1    4    4  501    0  0.51298514758E+01  0.55044475205E+02  0.60402857758E+02  0.81988945914E+02  0.41800000000E+01 0.  1.
         -5    1    4    4    0  501  0.14328884808E+01 -0.15618218174E+02 -0.47283311737E+02  0.49991658076E+02  0.41800000000E+01 0.  1.
</event>
<event>
11    1  0.8551154E-009  0.1303675E+03  0.7561462E-02  0.1118818E+00
         22   -1    0    0    0    0  0.00000000000E+00  0.00000000000E+00  0.48571633300E+03  0.48571633300E+03  0.00000000000E+00 0. -1.
         22   -1    0    0    0    0 -0.00000000000E+00 -0.00000000000E+00 -0.40041448846E+03  0.40041448846E+03  0.00000000000E+00 0.  1.
        -24    2    1    2    0    0  0.40458388526E+02 -0.19991944889E+02 -0.26136786898E+03  0.27734545737E+03  0.81060352344E+02 0.  0.
         25    2    1    2    0    0  0.12616398136E+02  0.26066968940E+02 -0.94702175092E+02  0.15954852737E+03  0.12509424546E+03 0.  0.
         24    2    1    2    0    0 -0.53074786662E+02 -0.60750240505E+01  0.44137188861E+03  0.44923683672E+03  0.64426334061E+02 0.  0.
        -13    1    5    5    0    0 -0.30811905027E+02 -0.28883243947E+02  0.14128457540E+03  0.14746167813E+03  0.00000000000E+00 0.  1.
         14    1    5    5    0    0 -0.22262881636E+02  0.22808219897E+02  0.30008731321E+03  0.30177515859E+03  0.00000000000E+00 0. -1.
         13    1    3    3    0    0  0.51129652246E+02 -0.83629223158E+01 -0.80120197396E+02  0.95411874728E+02  0.00000000000E+00 0. -1.
        -14    1    3    3    0    0 -0.10671263720E+02 -0.11629022573E+02 -0.18124767159E+03  0.18193358264E+03  0.00000000000E+00 0.  1.
          5    1    4    4  501    0  0.19961662470E+02  0.75210137466E+02 -0.50060259051E+02  0.92620379412E+02  0.41800000000E+01 0. -1.
         -5    1    4    4    0  501 -0.73452643333E+01 -0.49143168527E+02 -0.44641916041E+02  0.66928147956E+02  0.41800000000E+01 0. -1.
</event>
<event>
11    1  0.8551154E-009  0.1384752E+03  0.7561462E-02  0.1109273E+00
         22   -1    0    0    0    0  0.00000000000E+00  0.00000000000E+00  0.14866591195E+04  0.14866591195E+04  0.00000000000E+00 0.  1.
         22   -1    0    0    0    0 -0.00000000000E+00 -0.00000000000E+00 -0.39662681708E+02  0.39662681708E+02  0.00000000000E+00 0.  1.
        -24    2    1    2    0    0  0.57854345796E+02 -0.72348080598E+01  0.76047741896E+02  0.12234857407E+03  0.76068697601E+02 0.  0.
         25    2    1    2    0    0 -0.64822521910E+02 -0.24680082565E+02  0.33343249950E+03  0.36281585665E+03  0.12508816208E+03 0.  0.
         24    2    1    2    0    0  0.69681761138E+01  0.31914890625E+02  0.10375161964E+04  0.10411573705E+04  0.80633098703E+02 0.  0.
        -13    1    5    5    0    0  0.40691746551E+02  0.91926373202E+00  0.54374256995E+03  0.54526383124E+03  0.00000000000E+00 0.  1.
         14    1    5    5    0    0 -0.33723570437E+02  0.30995626893E+02  0.49377362645E+03  0.49589353924E+03  0.00000000000E+00 0. -1.
         13    1    3    3    0    0 -0.46174847416E+01  0.18916036906E+02  0.42548018998E+02  0.46791789218E+02  0.00000000000E+00 0. -1.
        -14    1    3    3    0    0  0.62471830537E+02 -0.26150844966E+02  0.33499722898E+02  0.75556784853E+02  0.00000000000E+00 0.  1.
          5    1    4    4  501    0 -0.80566153294E+02  0.67414995886E-01  0.10471679116E+03  0.13218921421E+03  0.41800000000E+01 0.  1.
         -5    1    4    4    0  501  0.15743631385E+02 -0.24747497561E+02  0.22871570834E+03  0.23062664244E+03  0.41800000000E+01 0.  1.
</event>
<event>
11    1  0.8551154E-009  0.3116811E+03  0.7561462E-02  0.9953652E-01
         22   -1    0    0    0    0  0.00000000000E+00  0.00000000000E+00  0.10014298782E+04  0.10014298782E+04  0.00000000000E+00 0. -1.
         22   -1    0    0    0    0 -0.00000000000E+00 -0.00000000000E+00 -0.21263702116E+03  0.21263702116E+03  0.00000000000E+00 0. -1.
         24    2    1    2    0    0  0.18422942023E+03 -0.66683909345E+02  0.63575426954E+02  0.22091244063E+03  0.79832627841E+02 0.  0.
         25    2    1    2    0    0 -0.37165140760E+03 -0.10038034828E+03  0.35366931006E+03  0.53752295601E+03  0.12509182336E+03 0.  0.
        -24    2    1    2    0    0  0.18742198737E+03  0.16706425762E+03  0.37154812006E+03  0.45563150275E+03  0.80713030269E+02 0.  0.
        -13    1    3    3    0    0  0.28843865801E+02  0.53122119714E+01 -0.14479656002E+02  0.32708540602E+02  0.00000000000E+00 0.  1.
         14    1    3    3    0    0  0.15538555443E+03 -0.71996121316E+02  0.78055082956E+02  0.18820390002E+03  0.00000000000E+00 0. -1.
         11    1    5    5    0    0  0.11616909794E+03  0.14544150975E+03  0.23183577686E+03  0.29731518546E+03  0.00000000000E+00 0. -1.
        -12    1    5    5    0    0  0.71252889435E+02  0.21622747874E+02  0.13971234320E+03  0.15831631729E+03  0.00000000000E+00 0.  1.
          5    1    4    4  501    0 -0.25361920287E+03 -0.64582871764E+01  0.22877291007E+03  0.34164151727E+03  0.41800000000E+01 0. -1.
         -5    1    4    4    0  501 -0.11803220473E+03 -0.93922061102E+02  0.12489639999E+03  0.19588143874E+03  0.41800000000E+01 0. -1.
</event>
<event>
11    1  0.8551154E-009  0.1728197E+03  0.7561462E-02  0.1075604E+00
         22   -1    0    0    0    0  0.00000000000E+00  0.00000000000E+00  0.43973393123E+03  0.43973393123E+03  0.00000000000E+00 0.  1.
         22   -1    0    0    0    0 -0.00000000000E+00 -0.00000000000E+00 -0.17739947286E+03  0.17739947286E+03  0.00000000000E+00 0. -1.
         24    2    1    2    0    0  0.54198309049E+02  0.23678078291E+02 -0.86952913262E+02  0.13237930773E+03  0.80407486568E+02 0.  0.
         25    2    1    2    0    0  0.16345645811E+01 -0.12899454720E+03  0.12717364065E+03  0.22014296077E+03  0.12509006074E+03 0.  0.
        -24    2    1    2    0    0 -0.55832873630E+02  0.10531646890E+03  0.22211373098E+03  0.26461113559E+03  0.80471579989E+02 0.  0.
        -13    1    3    3    0    0  0.21804877566E+01 -0.23678328577E+02 -0.43840108279E+02  0.49873568801E+02  0.00000000000E+00 0.  1.
         14    1    3    3    0    0  0.52017821292E+02  0.47356406868E+02 -0.43112804983E+02  0.82505738933E+02  0.00000000000E+00 0. -1.
         11    1    5    5    0    0 -0.65181817339E+02  0.43198799452E+02  0.96839660676E+02  0.12446977732E+03  0.00000000000E+00 0. -1.
        -12    1    5    5    0    0  0.93489437088E+01  0.62117669453E+02  0.12527407030E+03  0.14014135827E+03  0.00000000000E+00 0.  1.
          5    1    4    4  501    0 -0.56050544209E+02 -0.58267948808E+02  0.28904963384E+02  0.85963868413E+02  0.41800000000E+01 0. -1.
         -5    1    4    4    0  501  0.57685108790E+02 -0.70726598388E+02  0.98268677264E+02  0.13417909236E+03  0.41800000000E+01 0. -1.
</event>
<event>
11    1  0.8551154E-009  0.2715568E+03  0.7561462E-02  0.1013004E+00
         22   -1    0    0    0    0  0.00000000000E+00  0.00000000000E+00  0.20272469267E+03  0.20272469267E+03  0.00000000000E+00 0.  1.
         22   -1    0    0    0    0 -0.00000000000E+00 -0.00000000000E+00 -0.13133129539E+04  0.13133129539E+04  0.00000000000E+00 0.  1.
         24    2    1    2    0    0  0.18743400226E+03  0.14333937223E+03 -0.10410000251E+04  0.10704024041E+04  0.80016082628E+02 0.  0.
         25    2    1    2    0    0 -0.27133285233E+03 -0.11430179002E+03 -0.64967585447E+02  0.32642655163E+03  0.12508833076E+03 0.  0.
        -24    2    1    2    0    0  0.83898850074E+02 -0.29037582210E+02 -0.46206506627E+01  0.11920869089E+03  0.79417651352E+02 0.  0.
        -13    1    3    3    0    0  0.16253652418E+03  0.85710538465E+02 -0.70273395700E+03  0.72636040119E+03  0.00000000000E+00 0.  1.
         14    1    3    3    0    0  0.24897478081E+02  0.57628833768E+02 -0.33826606814E+03  0.34404200289E+03  0.00000000000E+00 0. -1.
         13    1    5    5    0    0  0.93398038934E+02 -0.12769015046E+02 -0.18171762300E+02  0.96002366466E+02  0.00000000000E+00 0. -1.
        -14    1    5    5    0    0 -0.94991888598E+01 -0.16268567164E+02  0.13551111637E+02  0.23206324422E+02  0.00000000000E+00 0.  1.
          5    1    4    4  501    0 -0.13025913542E+03 -0.99689745880E+02 -0.82153115098E+02  0.18349957633E+03  0.41800000000E+01 0.  1.
         -5    1    4    4    0  501 -0.14107371691E+03 -0.14612044142E+02  0.17185529651E+02  0.14292697529E+03  0.41800000000E+01 0.  1.
</event>
<event>
11    1  0.8551154E-009  0.1524565E+03  0.7561462E-02  0.1094395E+00
         22   -1    0    0    0    0  0.00000000000E+00  0.00000000000E+00  0.19729257532E+04  0.19729257532E+04  0.00000000000E+00 0.  1.
         22   -1    0    0    0    0 -0.00000000000E+00 -0.00000000000E+00 -0.11231933016E+04  0.11231933016E+04  0.00000000000E+00 0.  1.
        -24    2    1    2    0    0 -0.81548237561E+01  0.19909094142E+02 -0.10848826050E+04  0.10878248129E+04  0.77004439035E+02 0.  0.
         25    2    1    2    0    0 -0.65939590484E+02 -0.65432515626E+02  0.13923959998E+03  0.20895916958E+03  0.12508726815E+03 0.  0.
         24    2    1    2    0    0  0.74094414240E+02  0.45523421484E+02  0.17953754567E+04  0.17993350723E+04  0.81678074273E+02 0.  0.
        -11    1    5    5    0    0 -0.20271090099E+01  0.31021046464E+02  0.92340738065E+03  0.92393051965E+03  0.00000000000E+00 0.  1.
         12    1    5    5    0    0  0.76121523250E+02  0.14502375020E+02  0.87196807606E+03  0.87540455268E+03  0.00000000000E+00 0. -1.
         11    1    3    3    0    0 -0.14206734461E+02 -0.28040676093E+02 -0.39154430008E+03  0.39280408571E+03  0.00000000000E+00 0. -1.
        -12    1    3    3    0    0  0.60519107048E+01  0.47949770234E+02 -0.69333830494E+03  0.69502072716E+03  0.00000000000E+00 0.  1.
          5    1    4    4  501    0  0.24139429995E+02  0.10379713952E+02  0.52086792621E-01  0.26606872331E+02  0.41800000000E+01 0. -1.
         -5    1    4    4    0  501 -0.90079020479E+02 -0.75812229578E+02  0.13918751319E+03  0.18235229725E+03  0.41800000000E+01 0. -1.
</event>
<event>
11    1  0.8551154E-009  0.1558593E+03  0.7561462E-02  0.1091038E+00
         22   -1    0    0    0    0  0.00000000000E+00  0.00000000000E+00  0.37106295034E+03  0.37106295034E+03  0.00000000000E+00 0. -1.
         22   -1    0    0    0    0 -0.00000000000E+00 -0.00000000000E+00 -0.15089545219E+03  0.15089545219E+03  0.00000000000E+00 0. -1.
        -24    2    1    2    0    0  0.87572524782E+02 -0.25874365086E+02 -0.52052425152E+02  0.13308146951E+03  0.81625931529E+02 0.  0.
         25    2    1    2    0    0 -0.10694408689E+03 -0.22987810209E+02  0.10557427202E+03  0.19687334713E+03  0.12509081005E+03 0.  0.
         24    2    1    2    0    0  0.19371562104E+02  0.48862175295E+02  0.16664565128E+03  0.19200358588E+03  0.79572823926E+02 0.  0.
        -13    1    5    5    0    0 -0.13560100910E+02  0.56171397286E+02  0.77368141196E+02  0.96565684805E+02  0.00000000000E+00 0.  1.
         14    1    5    5    0    0  0.32931663013E+02 -0.73092219907E+01  0.89277510087E+02  0.95437901078E+02  0.00000000000E+00 0. -1.
         13    1    3    3    0    0  0.24460093126E+02  0.34420669714E+01 -0.58196592190E+02  0.63221731416E+02  0.00000000000E+00 0. -1.
        -14    1    3    3    0    0  0.63112431656E+02 -0.29316432058E+02  0.61441670385E+01  0.69859738095E+02  0.00000000000E+00 0.  1.
          5    1    4    4  501    0 -0.45550588967E+02  0.35240352036E+01  0.11988056152E+03  0.12835924746E+03  0.41800000000E+01 0. -1.
         -5    1    4    4    0  501 -0.61393497918E+02 -0.26511845413E+02 -0.14306289498E+02  0.68514099666E+02  0.41800000000E+01 0. -1.
</event>
<event>
11    1  0.8551154E-009  0.2393087E+03  0.7561462E-02  0.1029754E+00
         22   -1    0    0    0    0  0.00000000000E+00  0.00000000000E+00  0.25083039273E+03  0.25083039273E+03  0.00000000000E+00 0. -1.
         22   -1    0    0    0    0 -0.00000000000E+00 -0.00000000000E+00 -0.17052654879E+04  0.17052654879E+04  0.00000000000E+00 0.  1.
        -24    2    1    2    0    0  0.17419718388E+03 -0.10600490361E+03 -0.14264214047E+04  0.14431702050E+04  0.80501667540E+02 0.  0.
         25    2    1    2    0    0 -0.16702005773E+03  0.11906682423E+03 -0.20677334020E+03  0.31697865901E+03  0.12509055814E+03 0.  0.
         24    2    1    2    0    0 -0.71771261484E+01 -0.13061920619E+02  0.17875964974E+03  0.19594701656E+03  0.78854904827E+02 0.  0.
        -13    1    5    5    0    0 -0.34718571429E+02  0.14478044743E+02  0.58616283098E+02  0.69648127225E+02  0.00000000000E+00 0.  1.
         14    1    5    5    0    0  0.27541445281E+02 -0.27539965362E+02  0.12014336664E+03  0.12629888934E+03  0.00000000000E+00 0. -1.
         11    1    3    3    0    0  0.19854019612E+02 -0.47639828303E+02 -0.44369067088E+03  0.44668237794E+03  0.00000000000E+00 0. -1.
        -12    1    3    3    0    0  0.15434316427E+03 -0.58365075305E+02 -0.98273073382E+03  0.99648782710E+03  0.00000000000E+00 0.  1.
          5    1    4    4  501    0 -0.88010839081E+02  0.13219710640E+03 -0.12225402448E+03  0.20046321767E+03  0.41800000000E+01 0. -1.
         -5    1    4    4    0  501 -0.79009218648E+02 -0.13130282176E+02 -0.84519315716E+02  0.11651544134E+03  0.41800000000E+01 0. -1.
</event>
<event>
11    1  0.8551154E-009  0.1712924E+03  0.7561462E-02  0.1076912E+00
         22   -1    0    0    0    0  0.00000000000E+00  0.00000000000E+00  0.38116689523E+04  0.38116689523E+04  0.00000000000E+00 0.  1.
         22   -1    0    0    0    0 -0.00000000000E+00 -0.00000000000E+00 -0.63756512673E+02  0.63756512673E+02  0.00000000000E+00 0.  1.
        -24    2    1    2    0    0  0.25365785539E+02  0.14777727808E+03  0.79679512530E+02  0.18805934087E+03  0.80845185264E+02 0.  0.
         25    2    1    2    0    0  0.82639267021E+02 -0.67370501996E+01  0.91870404498E+03  0.93088118996E+03  0.12509209109E+03 0.  0.
         24    2    1    2    0    0 -0.10800505256E+03 -0.14104022788E+03  0.27495288821E+04  0.27564849341E+04  0.82113831435E+02 0.  0.
        -13    1    5    5    0    0 -0.11396923338E+03 -0.14756711770E+03  0.26572235968E+04  0.26637571744E+04  0.00000000000E+00 0.  1.
         14    1    5    5    0    0  0.59641808156E+01  0.65268898211E+01  0.92305285274E+02  0.92727759776E+02  0.00000000000E+00 0. -1.
         13    1    3    3    0    0  0.36932976121E+02  0.19940220686E+02  0.20668957981E+02  0.46785285616E+02  0.00000000000E+00 0. -1.
        -14    1    3    3    0    0 -0.11567190582E+02  0.12783705739E+03  0.59010554549E+02  0.14127405526E+03  0.00000000000E+00 0.  1.
          5    1    4    4  501    0 -0.75498932224E+01 -0.43710137736E+02  0.44562131392E+03  0.44784305828E+03  0.41800000000E+01 0. -1.
         -5    1    4    4    0  501  0.90189160243E+02  0.36973087536E+02  0.47308273107E+03  0.48303813168E+03  0.41800000000E+01 0. -1.
</event>
<event>
11    1  0.8551154E-009  0.1713149E+03  0.7561462E-02  0.1076893E+00
         22   -1    0    0    0    0  0.00000000000E+00  0.00000000000E+00  0.12929556788E+04  0.12929556788E+04  0.00000000000E+00 0. -1.
         22   -1    0    0    0    0 -0.00000000000E+00 -0.00000000000E+00 -0.20420724987E+03  0.20420724987E+03  0.00000000000E+00 0. -1.
        -24    2    1    2    0    0  0.26360908153E+02 -0.27036679419E+02 -0.11171547837E+03  0.14068078334E+03  0.76712809767E+02 0.  0.
         25    2    1    2    0    0  0.69957207341E+02 -0.43026208028E+02  0.22469572795E+01  0.14965917298E+03  0.12509018268E+03 0.  0.
         24    2    1    2    0    0 -0.96318115494E+02  0.70062887447E+02  0.11982169501E+04  0.12068229724E+04  0.80695970938E+02 0.  0.
        -11    1    5    5    0    0  0.13411345514E+01  0.30887624500E+01  0.66741109611E+00  0.34328607500E+01  0.00000000000E+00 0.  1.
         12    1    5    5    0    0 -0.97659250045E+02  0.66974124997E+02  0.11975495390E+04  0.12033901116E+04  0.00000000000E+00 0. -1.
         11    1    3    3    0    0 -0.12968757837E+02 -0.10236856622E+01 -0.85984753919E+02  0.86963294089E+02  0.00000000000E+00 0. -1.
        -12    1    3    3    0    0  0.39329665990E+02 -0.26012993757E+02 -0.25730724446E+02  0.53717489252E+02  0.00000000000E+00 0.  1.
          5    1    4    4  501    0  0.16136414154E+02  0.39869774223E+02 -0.20991452229E+02  0.48042650062E+02  0.41800000000E+01 0.  1.
         -5    1    4    4    0  501  0.53820793187E+02 -0.82895982250E+02  0.23238409509E+02  0.10161652291E+03  0.41800000000E+01 0.  1.
</event>
<event>
11    1  0.8551154E-009  0.1562904E+03  0.7561462E-02  0.1090619E+00
         22   -1    0    0    0    0  0.00000000000E+00  0.00000000000E+00  0.20428772325E+04  0.20428772325E+04  0.00000000000E+00 0. -1.
         22   -1    0    0    0    0 -0.00000000000E+00 -0.00000000000E+00 -0.21922591783E+02  0.21922591783E+02  0.00000000000E+00 0.  1.
        -24    2    1    2    0    0  0.10555306806E+03  0.25656405282E+02  0.32546230683E+03  0.35250509417E+03  0.80835802322E+02 0.  0.
         25    2    1    2    0    0 -0.59490045141E+02  0.79009618598E+01  0.83509756195E+03  0.84654414967E+03  0.12509024226E+03 0.  0.
         24    2    1    2    0    0 -0.46063022922E+02 -0.33557367142E+02  0.86039477190E+03  0.86575058041E+03  0.77440331766E+02 0.  0.
        -11    1    5    5    0    0 -0.17857416623E+02 -0.34455745476E+02  0.15475827193E+03  0.15955001866E+03  0.00000000000E+00 0.  1.
         12    1    5    5    0    0 -0.28205606299E+02  0.89837833423E+00  0.70563649997E+03  0.70620056174E+03  0.00000000000E+00 0. -1.
         13    1    3    3    0    0  0.43793419337E+02 -0.28900068903E+02  0.11172440844E+03  0.12343184760E+03  0.00000000000E+00 0. -1.
        -14    1    3    3    0    0  0.61759648726E+02  0.54556474185E+02  0.21373789839E+03  0.22907324657E+03  0.00000000000E+00 0.  1.
          5    1    4    4  501    0  0.25361163201E+02  0.37454155105E+02  0.19901732066E+03  0.20413566238E+03  0.41800000000E+01 0. -1.
         -5    1    4    4    0  501 -0.84851208343E+02 -0.29553193245E+02  0.63608024128E+03  0.64240848729E+03  0.41800000000E+01 0. -1.
</event>
<event>
11    1  0.8551154E-009  0.1339259E+03  0.7561462E-02  0.1114537E+00
         22   -1    0    0    0    0  0.00000000000E+00  0.00000000000E+00  0.53690352108E+03  0.53690352108E+03  0.00000000000E+00 0.  1.
         22   -1    0    0    0    0 -0.00000000000E+00 -0.00000000000E+00 -0.21057897031E+04  0.21057897031E+04  0.00000000000E+00 0. -1.
        -24    2    1    2    0    0  0.30054451152E+02  0.12512706723E+02 -0.19591766466E+04  0.19609822012E+04  0.77577205640E+02 0.  0.
         25    2    1    2    0    0  0.18557570717E+02 -0.84481346757E+01 -0.11286635306E+03  0.16971108529E+03  0.12508910587E+03 0.  0.
         24    2    1    2    0    0 -0.48612021869E+02 -0.40645720478E+01  0.50315681761E+03  0.51199993776E+03  0.81225019194E+02 0.  0.
        -13    1    5    5    0    0 -0.41305483436E+02 -0.61223930332E+01  0.50266159610E+03  0.50439300833E+03  0.00000000000E+00 0.  1.
         14    1    5    5    0    0 -0.73065384334E+01  0.20578209855E+01  0.49522151508E+00  0.76069294355E+01  0.00000000000E+00 0. -1.
         11    1    3    3    0    0 -0.76292193955E+01  0.34177843697E+02 -0.12391210182E+04  0.12396157581E+04  0.00000000000E+00 0. -1.
        -12    1    3    3    0    0  0.37683670547E+02 -0.21665136974E+02 -0.72005562840E+03  0.72136644307E+03  0.00000000000E+00 0.  1.
          5    1    4    4  501    0 -0.26206876905E+02 -0.55027303423E+02 -0.64968706388E+02  0.89180769950E+02  0.41800000000E+01 0.  1.
         -5    1    4    4    0  501  0.44764447622E+02  0.46579168747E+02 -0.47897646672E+02  0.80530315340E+02  0.41800000000E+01 0.  1.
</event>
<event>
11    1  0.8551154E-009  0.1446879E+03  0.7561462E-02  0.1102434E+00
         22   -1    0    0    0    0  0.00000000000E+00  0.00000000000E+00  0.12637770551E+04  0.12637770551E+04  0.00000000000E+00 0.  1.
         22   -1    0    0    0    0 -0.00000000000E+00 -0.00000000000E+00 -0.33971650974E+03  0.33971650974E+03  0.00000000000E+00 0.  1.
         24    2    1    2    0    0 -0.61772387032E+02  0.25536631168E+02 -0.26361486654E+03  0.28866123371E+03  0.96770670446E+02 0.  0.
         25    2    1    2    0    0  0.13023105371E+03 -0.52920818031E+02  0.84400662679E+02  0.20623925134E+03  0.12510162509E+03 0.  0.
        -24    2    1    2    0    0 -0.68458666676E+02  0.27384186862E+02  0.11032747492E+04  0.11085930798E+04  0.79542199938E+02 0.  0.
        -13    1    3    3    0    0 -0.41463782425E+01 -0.10589296707E+02 -0.18228999341E+03  0.18264437400E+03  0.00000000000E+00 0.  1.
         14    1    3    3    0    0 -0.57626008790E+02  0.36125927875E+02 -0.81324873126E+02  0.10601685971E+03  0.00000000000E+00 0. -1.
         11    1    5    5    0    0 -0.18730422337E+02  0.49780378429E+02  0.48048160567E+03  0.48341647487E+03  0.00000000000E+00 0. -1.
        -12    1    5    5    0    0 -0.49728244339E+02 -0.22396191567E+02  0.62279314352E+03  0.62517660489E+03  0.00000000000E+00 0.  1.
          5    1    4    4  501    0  0.60814791202E+02  0.39080776606E+02  0.39469387644E+02  0.82468484223E+02  0.41800000000E+01 0.  1.
         -5    1    4    4    0  501  0.69416262507E+02 -0.92001594636E+02  0.44931275035E+02  0.12377076712E+03  0.41800000000E+01 0.  1.
</event>
<event>
11    1  0.8551154E-009  0.1421079E+03  0.7561462E-02  0.1105227E+00
         22   -1    0    0    0    0  0.00000000000E+00  0.00000000000E+00  0.11256714707E+04  0.11256714707E+04  0.00000000000E+00 0. -1.
         22   -1    0    0    0    0 -0.00000000000E+00 -0.00000000000E+00 -0.40152992373E+03  0.40152992373E+03  0.00000000000E+00 0. -1.
         24    2    1    2    0    0 -0.49552355706E+02 -0.19477334266E+02 -0.36056514905E+03  0.37350806127E+03  0.81647061302E+02 0.  0.
         25    2    1    2    0    0  0.10805154955E+03  0.42232743413E+02  0.19972364447E+03  0.26267112556E+03  0.12509134288E+03 0.  0.
        -24    2    1    2    0    0 -0.58499193846E+02 -0.22755409147E+02  0.88498305150E+03  0.89102220756E+03  0.82374805593E+02 0.  0.
        -11    1    3    3    0    0 -0.38038542625E+01 -0.14349184979E+00  0.40312228137E+01  0.55444255370E+01  0.00000000000E+00 0.  1.
         12    1    3    3    0    0 -0.45748501443E+02 -0.19333842416E+02 -0.36459637186E+03  0.36796363573E+03  0.00000000000E+00 0. -1.
         13    1    5    5    0    0 -0.61876301587E+02 -0.10511889955E+02  0.86545176752E+03  0.86772457522E+03  0.00000000000E+00 0. -1.
        -14    1    5    5    0    0  0.33771077417E+01 -0.12243519192E+02  0.19531283971E+02  0.23297632336E+02  0.00000000000E+00 0.  1.
          5    1    4    4  501    0  0.94168160112E+02  0.18188975173E+01  0.49603053169E+02  0.10653115061E+03  0.41800000000E+01 0.  1.
         -5    1    4    4    0  501  0.13883389439E+02  0.40413845896E+02  0.15012059130E+03  0.15613997495E+03  0.41800000000E+01 0.  1.
</event>
<event>
11    1  0.8551154E-009  0.1554775E+03  0.7561462E-02  0.1091410E+00
         22   -1    0    0    0    0  0.00000000000E+00  0.00000000000E+00  0.18412447895E+04  0.18412447895E+04  0.00000000000E+00 0. -1.
         22   -1    0    0    0    0 -0.00000000000E+00 -0.00000000000E+00 -0.59139148092E+02  0.59139148092E+02  0.00000000000E+00 0.  1.
        -24    2    1    2    0    0 -0.56937552653E+02 -0.74002492791E+01  0.17135369077E+02  0.10202974684E+03  0.82582079019E+02 0.  0.
         25    2    1    2    0    0  0.13900000631E+03  0.16122354442E+02  0.62255501417E+03  0.65023308618E+03  0.12508952245E+03 0.  0.
         24    2    1    2    0    0 -0.82062453660E+02 -0.87221051628E+01  0.11424152581E+04  0.11481211046E+04  0.79114646378E+02 0.  0.
        -13    1    5    5    0    0 -0.34469563253E+02 -0.17275972857E+02  0.16242536029E+03  0.16693893403E+03  0.00000000000E+00 0.  1.
         14    1    5    5    0    0 -0.47592890407E+02  0.85538676944E+01  0.97998989786E+03  0.98118217053E+03  0.00000000000E+00 0. -1.
         13    1    3    3    0    0  0.17542197235E+01  0.39426547172E+01  0.38355332074E+02  0.38597322596E+02  0.00000000000E+00 0. -1.
        -14    1    3    3    0    0 -0.58691772376E+02 -0.11342903996E+02 -0.21219962997E+02  0.63432424243E+02  0.00000000000E+00 0.  1.
          5    1    4    4  501    0  0.94866038137E+02  0.68417217085E+02  0.43760249073E+03  0.45298332539E+03  0.41800000000E+01 0.  1.
         -5    1    4    4    0  501  0.44133968176E+02 -0.52294862643E+02  0.18495252344E+03  0.19724976080E+03  0.41800000000E+01 0.  1.
</event>
<event>
11    1  0.8551154E-009  0.1775263E+03  0.7561462E-02  0.1071662E+00
         22   -1    0    0    0    0  0.00000000000E+00  0.00000000000E+00  0.17720405526E+03  0.17720405526E+03  0.00000000000E+00 0. -1.
         22   -1    0    0    0    0 -0.00000000000E+00 -0.00000000000E+00 -0.14108784422E+04  0.14108784422E+04  0.00000000000E+00 0. -1.
         24    2    1    2    0    0 -0.86537601110E+02 -0.85290580607E+02 -0.11019422513E+04  0.11116387993E+04  0.81858753111E+02 0.  0.
         25    2    1    2    0    0  0.18379176841E+03  0.52020314343E+02 -0.22156741560E+03  0.31815748912E+03  0.12508613426E+03 0.  0.
        -24    2    1    2    0    0 -0.97254167304E+02  0.33270266264E+02  0.89835279906E+02  0.15828620905E+03  0.80117805661E+02 0.  0.
        -11    1    3    3    0    0  0.89830486129E+01  0.85002697543E+01 -0.11372314241E+03  0.11439363123E+03  0.00000000000E+00 0.  1.
         12    1    3    3    0    0 -0.95520649723E+02 -0.93790850361E+02 -0.98821910885E+03  0.99724516807E+03  0.00000000000E+00 0. -1.
         13    1    5    5    0    0 -0.10351787023E+03  0.13209199673E+02  0.89160836202E+02  0.13725919687E+03  0.00000000000E+00 0. -1.
        -14    1    5    5    0    0  0.62637029212E+01  0.20061066590E+02  0.67444370391E+00  0.21027012183E+02  0.00000000000E+00 0.  1.
          5    1    4    4  501    0  0.15087450317E+03  0.16761397400E+02 -0.22290884558E+03  0.26972186783E+03  0.41800000000E+01 0. -1.
         -5    1    4    4    0  501  0.32917265245E+02  0.35258916943E+02  0.13414299749E+01  0.48435621289E+02  0.41800000000E+01 0. -1.
</event>
<event>
11    1  0.8551154E-009  0.1863581E+03  0.7561462E-02  0.1064613E+00
         22   -1    0    0    0    0  0.00000000000E+00  0.00000000000E+00  0.74176199531E+03  0.74176199531E+03  0.00000000000E+00 0. -1.
         22   -1    0    0    0    0 -0.00000000000E+00 -0.00000000000E+00 -0.36178795789E+03  0.36178795789E+03  0.00000000000E+00 0. -1.
        -24    2    1    2    0    0 -0.15055897828E+02  0.91121717254E+00 -0.18731714916E+03  0.20491935549E+03  0.81711183505E+02 0.  0.
         25    2    1    2    0    0 -0.12024055988E+03  0.30946234742E+02 -0.10633875140E+03  0.20584183565E+03  0.12508984598E+03 0.  0.
         24    2    1    2    0    0  0.13529645771E+03 -0.31857451914E+02  0.67362993798E+03  0.69278876206E+03  0.82818758628E+02 0.  0.
        -11    1    5    5    0    0  0.70129305536E+02  0.16074084056E+02  0.20575002220E+03  0.21796689498E+03  0.00000000000E+00 0.  1.
         12    1    5    5    0    0  0.65167152175E+02 -0.47931535971E+02  0.46787991578E+03  0.47482186708E+03  0.00000000000E+00 0. -1.
         13    1    3    3    0    0 -0.34725560080E+02 -0.21105963715E+02 -0.15863559478E+03  0.16375768122E+03  0.00000000000E+00 0. -1.
        -14    1    3    3    0    0  0.19669662252E+02  0.22017180887E+02 -0.28681554381E+02  0.41161674274E+02  0.00000000000E+00 0.  1.
          5    1    4    4  501    0 -0.37399900420E+02  0.29453544529E+02 -0.11292580121E+03  0.12262125760E+03  0.41800000000E+01 0. -1.
         -5    1    4    4    0  501 -0.82840659463E+02  0.14926902127E+01  0.65870498168E+01  0.83220578042E+02  0.41800000000E+01 0. -1.
</event>
<event>
11    1  0.8551154E-009  0.1411221E+04  0.7561462E-02  0.8363500E-01
         22   -1    0    0    0    0  0.00000000000E+00  0.00000000000E+00  0.38218497290E+03  0.38218497290E+03  0.00000000000E+00 0.  1.
         22   -1    0    0    0    0 -0.00000000000E+00 -0.00000000000E+00 -0.13027354979E+04  0.13027354979E+04  0.00000000000E+00 0.  1.
        -24    2    1    2    0    0  0.45245320914E+02 -0.17816731966E+03 -0.13689241014E+03  0.24298322090E+03  0.80688170292E+02 0.  0.
         25    2    1    2    0    0 -0.21617037503E+03  0.50852759709E+03 -0.88293184633E+03  0.10490689698E+04  0.12508840872E+03 0.  0.
         24    2    1    2    0    0  0.17092505411E+03 -0.33036027743E+03  0.99273731489E+02  0.39286828013E+03  0.78338526549E+02 0.  0.
        -11    1    5    5    0    0  0.21497254998E+02 -0.95258925704E+02  0.15893027075E+01  0.97667398767E+02  0.00000000000E+00 0.  1.
         12    1    5    5    0    0  0.14942779911E+03 -0.23510135172E+03  0.97684428782E+02  0.29520088136E+03  0.00000000000E+00 0. -1.
         13    1    3    3    0    0 -0.23385895522E+02 -0.43445533567E+02 -0.28898634917E+02  0.57179940507E+02  0.00000000000E+00 0. -1.
        -14    1    3    3    0    0  0.68631216436E+02 -0.13472178610E+03 -0.10799377523E+03  0.18580328040E+03  0.00000000000E+00 0.  1.
          5    1    4    4  501    0 -0.22868301789E+03  0.50213973763E+03 -0.85656929375E+03  0.10189056218E+04  0.41800000000E+01 0.  1.
         -5    1    4    4    0  501  0.12512642868E+02  0.63878594583E+01 -0.26362552579E+02  0.30163347932E+02  0.41800000000E+01 0.  1.
</event>
<event>
11    1  0.8551154E-009  0.1399799E+03  0.7561462E-02  0.1107581E+00
         22   -1    0    0    0    0  0.00000000000E+00  0.00000000000E+00  0.72901861206E+03  0.72901861206E+03  0.00000000000E+00 0. -1.
         22   -1    0    0    0    0 -0.00000000000E+00 -0.00000000000E+00 -0.12234987016E+04  0.12234987016E+04  0.00000000000E+00 0. -1.
        -24    2    1    2    0    0 -0.29053367721E+02 -0.53248733273E+02 -0.10621178884E+04  0.10669126954E+04  0.80800773909E+02 0.  0.
         25    2    1    2    0    0  0.69109831154E+02  0.76834230685E+02 -0.11366903423E+03  0.19811336926E+03  0.12509432429E+03 0.  0.
         24    2    1    2    0    0 -0.40056463434E+02 -0.23585497412E+02  0.68130683302E+03  0.68749124903E+03  0.79400382968E+02 0.  0.
        -11    1    5    5    0    0  0.15974191350E+02  0.31975663715E+01  0.40083885689E+02  0.43267968660E+02  0.00000000000E+00 0.  1.
         12    1    5    5    0    0 -0.56030654784E+02 -0.26783063783E+02  0.64122294733E+03  0.64422328037E+03  0.00000000000E+00 0. -1.
         11    1    3    3    0    0 -0.46388247245E+02 -0.65033399685E+02 -0.81344389406E+03  0.81735682621E+03  0.00000000000E+00 0. -1.
        -12    1    3    3    0    0  0.17334879524E+02  0.11784666411E+02 -0.24867399430E+03  0.24955586920E+03  0.00000000000E+00 0.  1.
          5    1    4    4  501    0 -0.12984817419E+02  0.63028271852E+02 -0.10267733295E+02  0.65299826057E+02  0.41800000000E+01 0. -1.
         -5    1    4    4    0  501  0.82094648573E+02  0.13805958833E+02 -0.10340130093E+03  0.13281354320E+03  0.41800000000E+01 0. -1.
</event>
<event>
11    1  0.8551154E-009  0.1916233E+03  0.7561462E-02  0.1060611E+00
         22   -1    0    0    0    0  0.00000000000E+00  0.00000000000E+00  0.72174849939E+02  0.72174849939E+02  0.00000000000E+00 0.  1.
         22   -1    0    0    0    0 -0.00000000000E+00 -0.00000000000E+00 -0.14903857247E+04  0.14903857247E+04  0.00000000000E+00 0. -1.
        -24    2    1    2    0    0  0.13643177345E+03 -0.49370476554E+02 -0.11959265310E+04  0.12074481742E+04  0.81484679757E+02 0.  0.
         25    2    1    2    0    0 -0.14389198009E+03  0.30306703728E+02 -0.15695331879E+03  0.24880488284E+03  0.12508448034E+03 0.  0.
         24    2    1    2    0    0  0.74602066389E+01  0.19063772826E+02 -0.65331025060E+02  0.10630751770E+03  0.81326892024E+02 0.  0.
        -13    1    5    5    0    0  0.55314226105E+01  0.50819065155E+02 -0.32416282344E+02  0.60530896080E+02  0.00000000000E+00 0.  1.
         14    1    5    5    0    0  0.19287840284E+01 -0.31755292328E+02 -0.32914742716E+02  0.45776621618E+02  0.00000000000E+00 0. -1.
         11    1    3    3    0    0  0.14467093082E+03 -0.44245653932E+02 -0.11704464296E+04  0.11801831217E+04  0.00000000000E+00 0. -1.
        -12    1    3    3    0    0 -0.82391573683E+01 -0.51248226215E+01 -0.25480101322E+02  0.27265052438E+02  0.00000000000E+00 0.  1.
          5    1    4    4  501    0  0.17293239534E+02 -0.16677722332E+02 -0.13152095862E+02  0.27706544016E+02  0.41800000000E+01 0. -1.
         -5    1    4    4    0  501 -0.16118521962E+03  0.46984426059E+02 -0.14380122293E+03  0.22109833882E+03  0.41800000000E+01 0. -1.
</event>
<event>
11    1  0.8551154E-009  0.2045279E+03  0.7561462E-02  0.1051367E+00
         22   -1    0    0    0    0  0.00000000000E+00  0.00000000000E+00  0.11311272366E+04  0.11311272366E+04  0.00000000000E+00 0. -1.
         22   -1    0    0    0    0 -0.00000000000E+00 -0.00000000000E+00 -0.90659696723E+03  0.90659696723E+03  0.00000000000E+00 0.  1.
        -24    2    1    2    0    0  0.38468111679E+02  0.39780344611E+02 -0.80702674992E+03  0.81296567030E+03  0.80986014644E+02 0.  0.
         25    2    1    2    0    0 -0.14561737418E+03 -0.15465452699E+03  0.83603103211E+02  0.26030732472E+03  0.12509189444E+03 0.  0.
         24    2    1    2    0    0  0.10714926251E+03  0.11487418238E+03  0.94795391604E+03  0.96445120877E+03  0.82900331281E+02 0.  0.
        -11    1    5    5    0    0  0.19224973708E+02  0.49083233936E+02  0.15035060274E+03  0.15932378106E+03  0.00000000000E+00 0.  1.
         12    1    5    5    0    0  0.87924288797E+02  0.65790948440E+02  0.79760331330E+03  0.80512742771E+03  0.00000000000E+00 0. -1.
         13    1    3    3    0    0  0.21602050263E+02  0.45427084738E+01 -0.46895370455E+02  0.51831077029E+02  0.00000000000E+00 0. -1.
        -14    1    3    3    0    0  0.16866061416E+02  0.35237636137E+02 -0.76013137947E+03  0.76113459327E+03  0.00000000000E+00 0.  1.
          5    1    4    4  501    0 -0.12029006492E+03 -0.38613513746E+02  0.56240979532E+02  0.13835181004E+03  0.41800000000E+01 0.  1.
         -5    1    4    4    0  501 -0.25327309262E+02 -0.11604101324E+03  0.27362123679E+02  0.12195551468E+03  0.41800000000E+01 0.  1.
</event>
<event>
11    1  0.8551154E-009  0.1604319E+03  0.7561462E-02  0.1086672E+00
         22   -1    0    0    0    0  0.00000000000E+00  0.00000000000E+00  0.87299016855E+02  0.87299016855E+02  0.00000000000E+00 0.  1.
         22   -1    0    0    0    0 -0.00000000000E+00 -0.00000000000E+00 -0.18545538618E+04  0.18545538618E+04  0.00000000000E+00 0.  1.
        -24    2    1    2    0    0  0.10709822986E+03  0.78256875556E+01 -0.15268950156E+04  0.15326437997E+04  0.77829017647E+02 0.  0.
         25    2    1    2    0    0 -0.59008495245E+02 -0.15131364018E+02 -0.26962943954E+03  0.30339728348E+03  0.12505565270E+03 0.  0.
         24    2    1    2    0    0 -0.48089734617E+02  0.73056764627E+01  0.29269610182E+02  0.10581179545E+03  0.89294067502E+02 0.  0.
        -11    1    5    5    0    0 -0.23763163047E+02 -0.15549913839E+01  0.60633613904E+02  0.65142467341E+02  0.00000000000E+00 0.  1.
         12    1    5    5    0    0 -0.24326571570E+02  0.88606678466E+01 -0.31364003722E+02  0.40669328105E+02  0.00000000000E+00 0. -1.
         11    1    3    3    0    0  0.82462956956E+01 -0.83444568613E+01 -0.27386066544E+02  0.29793086342E+02  0.00000000000E+00 0. -1.
        -12    1    3    3    0    0  0.98851934166E+02  0.16170144417E+02 -0.14995089490E+04  0.15028507134E+04  0.00000000000E+00 0.  1.
          5    1    4    4  501    0 -0.14830328569E+02 -0.64658302162E+02 -0.90228356587E+02  0.11206811954E+03  0.41800000000E+01 0.  1.
         -5    1    4    4    0  501 -0.44178166676E+02  0.49526938143E+02 -0.17940108295E+03  0.19132916395E+03  0.41800000000E+01 0.  1.
</event>
<event>
11    1  0.8551154E-009  0.1498486E+03  0.7561462E-02  0.1097034E+00
         22   -1    0    0    0    0  0.00000000000E+00  0.00000000000E+00  0.20179990892E+03  0.20179990892E+03  0.00000000000E+00 0.  1.
         22   -1    0    0    0    0 -0.00000000000E+00 -0.00000000000E+00 -0.78277937684E+03  0.78277937684E+03  0.00000000000E+00 0.  1.
         24    2    1    2    0    0 -0.72818526994E+02  0.43916750043E+02 -0.61042451735E+03  0.62124470229E+03  0.78074771469E+02 0.  0.
         25    2    1    2    0    0 -0.26837240178E+01 -0.88027912566E+02 -0.10350354802E+03  0.18470591206E+03  0.12508866348E+03 0.  0.
        -24    2    1    2    0    0  0.75502251012E+02  0.44111162522E+02  0.13294859744E+03  0.17862867140E+03  0.81157181558E+02 0.  0.
        -13    1    3    3    0    0  0.71051341777E+01 -0.27365969862E+01 -0.21501902091E+03  0.21515378511E+03  0.00000000000E+00 0.  1.
         14    1    3    3    0    0 -0.79923661172E+02  0.46653347030E+02 -0.39540549644E+03  0.40609091718E+03  0.00000000000E+00 0. -1.
         11    1    5    5    0    0 -0.99861007167E+01  0.22227304590E+02  0.79738818160E+01  0.25638995068E+02  0.00000000000E+00 0. -1.
        -12    1    5    5    0    0  0.85488351728E+02  0.21883857932E+02  0.12497471563E+03  0.15298967634E+03  0.00000000000E+00 0.  1.
          5    1    4    4  501    0  0.32569313801E+02 -0.31680272520E+02 -0.10871747525E+03  0.11790403595E+03  0.41800000000E+01 0. -1.
         -5    1    4    4    0  501 -0.35253037819E+02 -0.56347640046E+02  0.52139272319E+01  0.66801876106E+02  0.41800000000E+01 0. -1.
</event>
<event>
11    1  0.8551154E-009  0.3071435E+03  0.7561462E-02  0.9972124E-01
         22   -1    0    0    0    0  0.00000000000E+00  0.00000000000E+00  0.13921522192E+04  0.13921522192E+04  0.00000000000E+00 0. -1.
         22   -1    0    0    0    0 -0.00000000000E+00 -0.00000000000E+00 -0.25397936605E+03  0.25397936605E+03  0.00000000000E+00 0.  1.
         24    2    1    2    0    0  0.37473308113E+02  0.80650900356E+02 -0.85104660381E+02  0.14653638868E+03  0.79506562243E+02 0.  0.
         25    2    1    2    0    0  0.12749453821E+03 -0.30029954253E+03  0.13540534751E+03  0.37472111936E+03  0.12508651665E+03 0.  0.
        -24    2    1    2    0    0 -0.16496784632E+03  0.21964864217E+03  0.10878721660E+04  0.11248740772E+04  0.80099460922E+02 0.  0.
        -11    1    3    3    0    0  0.36254025355E+02  0.24228671402E+02 -0.78391784273E+02  0.89703147737E+02  0.00000000000E+00 0.  1.
         12    1    3    3    0    0  0.12192827583E+01  0.56422228954E+02 -0.67128761083E+01  0.56833240944E+02  0.00000000000E+00 0. -1.
         11    1    5    5    0    0 -0.15409473732E+02  0.53323171205E+02  0.33174805454E+03  0.33635930812E+03  0.00000000000E+00 0. -1.
        -12    1    5    5    0    0 -0.14955837259E+03  0.16632547096E+03  0.75612411144E+03  0.78851476905E+03  0.00000000000E+00 0.  1.
          5    1    4    4  501    0  0.72649472126E+02 -0.18722346759E+03  0.14630989722E+03  0.24850479078E+03  0.41800000000E+01 0.  1.
         -5    1    4    4    0  501  0.54845066079E+02 -0.11307607493E+03 -0.10904549709E+02  0.12621632858E+03  0.41800000000E+01 0.  1.
</event>
<event>
11    1  0.8551154E-009  0.1571273E+03  0.7561462E-02  0.1089811E+00
         22   -1    0    0    0    0  0.00000000000E+00  0.00000000000E+00  0.72972846064E+03  0.72972846064E+03  0.00000000000E+00 0. -1.
         22   -1    0    0    0    0 -0.00000000000E+00 -0.00000000000E+00 -0.67587757753E+03  0.67587757753E+03  0.00000000000E+00 0. -1.
        -24    2    1    2    0    0  0.26167299202E+02 -0.87833502033E+02 -0.57850698960E+03  0.59124337305E+03  0.80615988039E+02 0.  0.
         25    2    1    2    0    0 -0.52575128885E+02  0.15044001384E+03  0.32355711967E+02  0.20516030261E+03  0.12509003049E+03 0.  0.
         24    2    1    2    0    0  0.26407829682E+02 -0.62606511806E+02  0.60000216075E+03  0.60920236251E+03  0.80672032298E+02 0.  0.
        -11    1    5    5    0    0  0.20685674741E+02 -0.25881837092E+02  0.65439461730E+02  0.73349095306E+02  0.00000000000E+00 0.  1.
         12    1    5    5    0    0  0.57221549410E+01 -0.36724674714E+02  0.53456269902E+03  0.53585326720E+03  0.00000000000E+00 0. -1.
         13    1    3    3    0    0  0.50136257216E+02 -0.79623879381E+02 -0.39825846391E+03  0.40922293500E+03  0.00000000000E+00 0. -1.
        -14    1    3    3    0    0 -0.23968958014E+02 -0.82096226524E+01 -0.18024852570E+03  0.18202043805E+03  0.00000000000E+00 0.  1.
          5    1    4    4  501    0 -0.10548768173E+02  0.60360601043E+02 -0.47455003018E+02  0.77615258679E+02  0.41800000000E+01 0. -1.
         -5    1    4    4    0  501 -0.42026360711E+02  0.90079412796E+02  0.79810714985E+02  0.12754504393E+03  0.41800000000E+01 0. -1.
</event>
<event>
11    1  0.8551154E-009  0.1484770E+03  0.7561462E-02  0.1098445E+00
         22   -1    0    0    0    0  0.00000000000E+00  0.00000000000E+00  0.51125391218E+03  0.51125391218E+03  0.00000000000E+00 0.  1.
         22   -1    0    0    0    0 -0.00000000000E+00 -0.00000000000E+00 -0.10130528526E+04  0.10130528526E+04  0.00000000000E+00 0. -1.
        -24    2    1    2    0    0 -0.18440126186E+02  0.56693054737E+01 -0.91847265310E+03  0.92223722376E+03  0.80977176571E+02 0.  0.
         25    2    1    2    0    0  0.38216366328E+02  0.71892747526E+02 -0.19969742795E+02  0.15058526086E+03  0.12509225539E+03 0.  0.
         24    2    1    2    0    0 -0.19776240142E+02 -0.77562053000E+02  0.43664345548E+03  0.45148428015E+03  0.82301739160E+02 0.  0.
        -11    1    5    5    0    0 -0.45868129009E+02 -0.58606697300E+02  0.37045880831E+03  0.37786023724E+03  0.00000000000E+00 0.  1.
         12    1    5    5    0    0  0.26091888867E+02 -0.18955355700E+02  0.66184647171E+02  0.73624042917E+02  0.00000000000E+00 0. -1.
         13    1    3    3    0    0  0.14074121273E+02 -0.54531010816E+01 -0.75690758409E+03  0.75705806122E+03  0.00000000000E+00 0. -1.
        -14    1    3    3    0    0 -0.32514247460E+02  0.11122406555E+02 -0.16156506900E+03  0.16517916254E+03  0.00000000000E+00 0.  1.
          5    1    4    4  501    0  0.54338426965E+02 -0.14955722953E+02 -0.25459782820E+02  0.61983959500E+02  0.41800000000E+01 0. -1.
         -5    1    4    4    0  501 -0.16122060636E+02  0.86848470479E+02  0.54900400254E+01  0.88601301363E+02  0.41800000000E+01 0. -1.
</event>
<event>
11    1  0.8551154E-009  0.1617985E+03  0.7561462E-02  0.1085398E+00
         22   -1    0    0    0    0  0.00000000000E+00  0.00000000000E+00  0.64473633332E+02  0.64473633332E+02  0.00000000000E+00 0.  1.
         22   -1    0    0    0    0 -0.00000000000E+00 -0.00000000000E+00 -0.13939687767E+04  0.13939687767E+04  0.00000000000E+00 0.  1.
         24    2    1    2    0    0  0.29648810287E+02  0.99506720045E+02 -0.95155852656E+03  0.96051956657E+03  0.79709278077E+02 0.  0.
         25    2    1    2    0    0  0.56096163390E+02 -0.11125894902E+03 -0.32129391559E+03  0.36660926512E+03  0.12508892753E+03 0.  0.
        -24    2    1    2    0    0 -0.85744973677E+02  0.11752228979E+02 -0.56642701208E+02  0.13131357833E+03  0.80898361282E+02 0.  0.
        -13    1    3    3    0    0  0.18272870883E+02  0.10072422241E+03 -0.93380247697E+03  0.93939679198E+03  0.00000000000E+00 0.  1.
         14    1    3    3    0    0  0.11375939404E+02 -0.12175023638E+01 -0.17756049592E+02  0.21122774591E+02  0.00000000000E+00 0. -1.
         11    1    5    5    0    0 -0.60165957477E+02 -0.31718342011E+02 -0.33599579494E+02  0.75861237804E+02  0.00000000000E+00 0. -1.
        -12    1    5    5    0    0 -0.25579016200E+02  0.43470570990E+02 -0.23043121714E+02  0.55452340530E+02  0.00000000000E+00 0.  1.
          5    1    4    4  501    0  0.64861793131E+02 -0.32151220559E+01 -0.15445398961E+03  0.16760339055E+03  0.41800000000E+01 0. -1.
         -5    1    4    4    0  501 -0.87656297415E+01 -0.10804382697E+03 -0.16683992598E+03  0.19900587457E+03  0.41800000000E+01 0. -1.
</event>
<event>
11    1  0.8551154E-009  0.1461024E+03  0.7561462E-02  0.1100929E+00
         22   -1    0    0    0    0  0.00000000000E+00  0.00000000000E+00  0.31752370480E+04  0.31752370480E+04  0.00000000000E+00 0.  1.
         22   -1    0    0    0    0 -0.00000000000E+00 -0.00000000000E+00 -0.31350154002E+02  0.31350154002E+02  0.00000000000E+00 0. -1.
         24    2    1    2    0    0  0.14559353643E+02  0.21345338776E+02  0.56973267179E+02  0.10257006238E+03  0.81283862219E+02 0.  0.
         25    2    1    2    0    0  0.17570259500E+02  0.51320745643E+02  0.63682847809E+03  0.65126078730E+03  0.12509024591E+03 0.  0.
        -24    2    1    2    0    0 -0.32129613143E+02 -0.72666084419E+02  0.24500851488E+04  0.24527563523E+04  0.82363923871E+02 0.  0.
        -11    1    3    3    0    0 -0.31957074639E+02 -0.29206830827E+01  0.15212131577E+02  0.35513292670E+02  0.00000000000E+00 0.  1.
         12    1    3    3    0    0  0.46516428281E+02  0.24266021859E+02  0.41761135602E+02  0.67056769708E+02  0.00000000000E+00 0. -1.
         11    1    5    5    0    0 -0.43980074330E+01  0.81837541411E+01  0.36687339912E+02  0.37845438444E+02  0.00000000000E+00 0. -1.
        -12    1    5    5    0    0 -0.27731605710E+02 -0.80849838561E+02  0.24133978088E+04  0.24149109139E+04  0.00000000000E+00 0.  1.
          5    1    4    4  501    0 -0.53644664997E+02  0.13024794984E+02  0.26374971104E+03  0.26949726871E+03  0.41800000000E+01 0. -1.
         -5    1    4    4    0  501  0.71214924497E+02  0.38295950660E+02  0.37307876705E+03  0.38176351859E+03  0.41800000000E+01 0. -1.
</event>
<event>
11    1  0.8551154E-009  0.2027383E+03  0.7561462E-02  0.1052604E+00
         22   -1    0    0    0    0  0.00000000000E+00  0.00000000000E+00  0.13481717018E+03  0.13481717018E+03  0.00000000000E+00 0. -1.
         22   -1    0    0    0    0 -0.00000000000E+00 -0.00000000000E+00 -0.23565219533E+04  0.23565219533E+04  0.00000000000E+00 0. -1.
         24    2    1    2    0    0  0.17237340904E+02 -0.38630347964E+02 -0.20459010701E+04  0.20479024078E+04  0.80022829760E+02 0.  0.
         25    2    1    2    0    0  0.14691003756E+03  0.13287201345E+02 -0.17317379649E+03  0.25960695615E+03  0.12508996376E+03 0.  0.
        -24    2    1    2    0    0 -0.16414737846E+03  0.25343146620E+02 -0.26299164750E+01  0.18382975953E+03  0.78738980772E+02 0.  0.
        -11    1    3    3    0    0  0.22305413481E+02 -0.10662819971E+02 -0.17022358891E+03  0.17200958526E+03  0.00000000000E+00 0.  1.
         12    1    3    3    0    0 -0.50680725773E+01 -0.27967527994E+02 -0.18756774812E+04  0.18758928225E+04  0.00000000000E+00 0. -1.
         11    1    5    5    0    0 -0.13722470537E+03  0.24413770655E+02  0.28915322796E+02  0.14234727905E+03  0.00000000000E+00 0. -1.
        -12    1    5    5    0    0 -0.26922673090E+02  0.92937596493E+00 -0.31545239271E+02  0.41482480479E+02  0.00000000000E+00 0.  1.
          5    1    4    4  501    0 -0.11721401662E+01  0.25531855730E+02  0.62160973336E+01  0.26633847556E+02  0.41800000000E+01 0.  1.
         -5    1    4    4    0  501  0.14808217772E+03 -0.12244654385E+02 -0.17938989382E+03  0.23297310859E+03  0.41800000000E+01 0.  1.
</event>
<event>
11    1  0.8551154E-009  0.1321564E+03  0.7561462E-02  0.1116647E+00
         22   -1    0    0    0    0  0.00000000000E+00  0.00000000000E+00  0.14252488901E+04  0.14252488901E+04  0.00000000000E+00 0.  1.
         22   -1    0    0    0    0 -0.00000000000E+00 -0.00000000000E+00 -0.32523715711E+02  0.32523715711E+02  0.00000000000E+00 0. -1.
        -24    2    1    2    0    0 -0.19253423115E+02 -0.47374800214E+02  0.92968167804E+02  0.13439357908E+03  0.82483258155E+02 0.  0.
         25    2    1    2    0    0  0.18577395586E+01  0.12109458251E+02  0.40157644227E+03  0.42078526476E+03  0.12508600991E+03 0.  0.
         24    2    1    2    0    0  0.17395683556E+02  0.35265341963E+02  0.89818056435E+03  0.90259376201E+03  0.80005742861E+02 0.  0.
        -11    1    5    5    0    0 -0.75002774178E+01  0.32834704406E+02  0.81590017247E+03  0.81659504249E+03  0.00000000000E+00 0.  1.
         12    1    5    5    0    0  0.24895960974E+02  0.24306375571E+01  0.82280391882E+02  0.85998719525E+02  0.00000000000E+00 0. -1.
         11    1    3    3    0    0 -0.40387415327E+02 -0.49660053706E+02  0.93284754921E+02  0.11313403445E+03  0.00000000000E+00 0. -1.
        -12    1    3    3    0    0  0.21133992212E+02  0.22852534917E+01 -0.31658711697E+00  0.21259544626E+02  0.00000000000E+00 0.  1.
          5    1    4    4  501    0  0.23184917664E+02 -0.47570522050E+02  0.26360151674E+03  0.26889352355E+03  0.41800000000E+01 0.  1.
         -5    1    4    4    0  501 -0.21327178106E+02  0.59679980301E+02  0.13797492552E+03  0.15189174121E+03  0.41800000000E+01 0.  1.
</event>
<event>
11    1  0.8551154E-009  0.1336238E+03  0.7561462E-02  0.1114895E+00
         22   -1    0    0    0    0  0.00000000000E+00  0.00000000000E+00  0.24291398313E+03  0.24291398313E+03  0.00000000000E+00 0. -1.
         22   -1    0    0    0    0 -0.00000000000E+00 -0.00000000000E+00 -0.17028844981E+04  0.17028844981E+04  0.00000000000E+00 0.  1.
        -24    2    1    2    0    0 -0.42572131704E+02  0.18996756863E+02 -0.16379394496E+04  0.16406041655E+04  0.81013110559E+02 0.  0.
         25    2    1    2    0    0  0.65314823486E+02 -0.48097511803E+02  0.67578451926E+02  0.16368714588E+03  0.12508891939E+03 0.  0.
         24    2    1    2    0    0 -0.22742691782E+02  0.29100754940E+02  0.11039048273E+03  0.14150716984E+03  0.80462018815E+02 0.  0.
        -13    1    5    5    0    0  0.14406327335E+02 -0.17776233509E+02  0.10720848622E+02  0.25268030003E+02  0.00000000000E+00 0.  1.
         14    1    5    5    0    0 -0.37149019118E+02  0.46876988449E+02  0.99669634106E+02  0.11623913984E+03  0.00000000000E+00 0. -1.
         11    1    3    3    0    0 -0.67041071894E+02  0.14390614534E+02 -0.11971447797E+04  0.11991068421E+04  0.00000000000E+00 0. -1.
        -12    1    3    3    0    0  0.24468940190E+02  0.46061423290E+01 -0.44079466992E+03  0.44149732345E+03  0.00000000000E+00 0.  1.
          5    1    4    4  501    0  0.92262791288E+02 -0.52906393254E+00  0.29593687438E+02  0.96984335338E+02  0.41800000000E+01 0.  1.
         -5    1    4    4    0  501 -0.26947967802E+02 -0.47568447870E+02  0.37984764489E+02  0.66702810546E+02  0.41800000000E+01 0.  1.
</event>
<event>
11    1  0.8551154E-009  0.2357092E+03  0.7561462E-02  0.1031800E+00
         22   -1    0    0    0    0  0.00000000000E+00  0.00000000000E+00  0.73811356219E+03  0.73811356219E+03  0.00000000000E+00 0. -1.
         22   -1    0    0    0    0 -0.00000000000E+00 -0.00000000000E+00 -0.24821400179E+04  0.24821400179E+04  0.00000000000E+00 0. -1.
         24    2    1    2    0    0 -0.12352487000E+03 -0.15893968516E+03 -0.23647663951E+04  0.23746957047E+04  0.80866368765E+02 0.  0.
         25    2    1    2    0    0  0.16479281566E+03  0.79444016318E+02  0.89667817662E+01  0.22179999356E+03  0.12508721017E+03 0.  0.
        -24    2    1    2    0    0 -0.41267945659E+02  0.79495668842E+02  0.61177315756E+03  0.62375788188E+03  0.82370469150E+02 0.  0.
        -11    1    3    3    0    0 -0.43891146436E+02 -0.61366376737E+02 -0.13560482767E+04  0.13581454980E+04  0.00000000000E+00 0.  1.
         12    1    3    3    0    0 -0.79633723563E+02 -0.97573308422E+02 -0.10087181183E+04  0.10165502067E+04  0.00000000000E+00 0. -1.
         11    1    5    5    0    0 -0.48333370282E+02  0.12653410010E+02  0.34739019010E+03  0.35096462449E+03  0.00000000000E+00 0. -1.
        -12    1    5    5    0    0  0.70654246229E+01  0.66842258832E+02  0.26438296746E+03  0.27279325739E+03  0.00000000000E+00 0.  1.
          5    1    4    4  501    0  0.16999101439E+03  0.94474389906E+02  0.28130600954E+02  0.19654810717E+03  0.41800000000E+01 0.  1.
         -5    1    4    4    0  501 -0.51981987364E+01 -0.15030373588E+02 -0.19163819188E+02  0.25251886388E+02  0.41800000000E+01 0.  1.
</event>
<event>
11    1  0.8551154E-009  0.1984218E+03  0.7561462E-02  0.1055645E+00
         22   -1    0    0    0    0  0.00000000000E+00  0.00000000000E+00  0.70588531890E+02  0.70588531890E+02  0.00000000000E+00 0. -1.
         22   -1    0    0    0    0 -0.00000000000E+00 -0.00000000000E+00 -0.15343596496E+04  0.15343596496E+04  0.00000000000E+00 0. -1.
         24    2    1    2    0    0  0.57071607474E+01 -0.27732379293E+02 -0.63263878342E+03  0.63843027504E+03  0.80992155549E+02 0.  0.
         25    2    1    2    0    0 -0.13162574680E+03 -0.63960918996E+02 -0.74869421397E+03  0.77305142094E+03  0.12509651079E+03 0.  0.
        -24    2    1    2    0    0  0.12591858605E+03  0.91693298289E+02 -0.82438120305E+02  0.19346648549E+03  0.79812818906E+02 0.  0.
        -13    1    3    3    0    0 -0.54948972859E+01 -0.45373097574E+02 -0.19467210867E+03  0.19996535143E+03  0.00000000000E+00 0.  1.
         14    1    3    3    0    0  0.11202058033E+02  0.17640718281E+02 -0.43796667475E+03  0.43846492361E+03  0.00000000000E+00 0. -1.
         11    1    5    5    0    0  0.10577748105E+03  0.10341882537E+03 -0.55887899530E+02  0.15813850338E+03  0.00000000000E+00 0. -1.
        -12    1    5    5    0    0  0.20141105006E+02 -0.11725527083E+02 -0.26550220775E+02  0.35327982103E+02  0.00000000000E+00 0.  1.
          5    1    4    4  501    0 -0.39076738075E+02  0.38014847405E+02 -0.20328606017E+03  0.21051084233E+03  0.41800000000E+01 0.  1.
         -5    1    4    4    0  501 -0.92549008726E+02 -0.10197576640E+03 -0.54540815380E+03  0.56254057861E+03  0.41800000000E+01 0.  1.
</event>
<event>
11    1  0.8551154E-009  0.1386604E+03  0.7561462E-02  0.1109064E+00
         22   -1    0    0    0    0  0.00000000000E+00  0.00000000000E+00  0.16486945961E+03  0.16486945961E+03  0.00000000000E+00 0.  1.
         22   -1    0    0    0    0 -0.00000000000E+00 -0.00000000000E+00 -0.22476000462E+04  0.22476000462E+04  0.00000000000E+00 0.  1.
         24    2    1    2    0    0 -0.95415214468E+01 -0.20465655947E+02 -0.20538969734E+04  0.20555859386E+04  0.80192829898E+02 0.  0.
         25    2    1    2    0    0  0.67506553267E+02  0.29698755184E+02 -0.14588147470E+03  0.20583316128E+03  0.12508690910E+03 0.  0.
        -24    2    1    2    0    0 -0.57965031820E+02 -0.92330992365E+01  0.11704786150E+03  0.15105040593E+03  0.75304901662E+02 0.  0.
        -13    1    3    3    0    0 -0.13313082633E+02 -0.49422206021E+02 -0.10279649328E+04  0.10292384056E+04  0.00000000000E+00 0.  1.
         14    1    3    3    0    0  0.37715611860E+01  0.28956550073E+02 -0.10259320406E+04  0.10263475330E+04  0.00000000000E+00 0. -1.
         11    1    5    5    0    0 -0.40297471618E+02 -0.75067890446E+00  0.90752661891E+01  0.41313559445E+02  0.00000000000E+00 0. -1.
        -12    1    5    5    0    0 -0.17667560202E+02 -0.84824203320E+01  0.10797259531E+03  0.10973684648E+03  0.00000000000E+00 0.  1.
          5    1    4    4  501    0  0.32434344596E+02  0.76041025771E+02 -0.60770846611E+02  0.10268784012E+03  0.41800000000E+01 0. -1.
         -5    1    4    4    0  501  0.35072208671E+02 -0.46342270588E+02 -0.85110628090E+02  0.10314532116E+03  0.41800000000E+01 0. -1.
</event>
<event>
11    1  0.9250495E-009  0.1557217E+03  0.7561462E-02  0.1091172E+00
         22   -1    0    0    0    0  0.00000000000E+00  0.00000000000E+00  0.18344387637E+03  0.18344387637E+03  0.00000000000E+00 0.  1.
         22   -1    0    0    0    0 -0.00000000000E+00 -0.00000000000E+00 -0.13954016519E+04  0.13954016519E+04  0.00000000000E+00 0. -1.
         24    2    1    2    0    0  0.41740153691E+02 -0.53786343244E+01 -0.10761229664E+04  0.10798621106E+04  0.79311846667E+02 0.  0.
         25    2    1    2    0    0 -0.88609255092E+02 -0.73167481474E+02 -0.26950963080E+03  0.31857200571E+03  0.12509037253E+03 0.  0.
        -24    2    1    2    0    0  0.46869101401E+02  0.78546115798E+02  0.13367482169E+03  0.18041141190E+03  0.79455110702E+02 0.  0.
        -13    1    3    3    0    0 -0.12322161000E+02 -0.18713334485E+02 -0.11711940998E+03  0.11924336767E+03  0.00000000000E+00 0.  1.
         14    1    3    3    0    0  0.54062314691E+02  0.13334700160E+02 -0.95900355643E+03  0.96061874297E+03  0.00000000000E+00 0. -1.
         11    1    5    5    0    0  0.16799277029E+02 -0.12048306558E+02  0.70578309235E+01  0.21844687614E+02  0.00000000000E+00 0. -1.
        -12    1    5    5    0    0  0.30069824372E+02  0.90594422356E+02  0.12661699077E+03  0.15856672429E+03  0.00000000000E+00 0.  1.
          5    1    4    4  501    0 -0.49534724620E+02 -0.14473248097E+02 -0.23372259650E+03  0.23938857192E+03  0.41800000000E+01 0.  1.
         -5    1    4    4    0  501 -0.39074530472E+02 -0.58694233376E+02 -0.35787034301E+02  0.79183433794E+02  0.41800000000E+01 0.  1.
</event>
<event>
11    1  0.8551154E-009  0.1606444E+03  0.7561462E-02  0.1086473E+00
         22   -1    0    0    0    0  0.00000000000E+00  0.00000000000E+00  0.26316821537E+03  0.26316821537E+03  0.00000000000E+00 0. -1.
         22   -1    0    0    0    0 -0.00000000000E+00 -0.00000000000E+00 -0.55157843386E+03  0.55157843386E+03  0.00000000000E+00 0.  1.
        -24    2    1    2    0    0  0.75090138673E+02 -0.69644871084E+02 -0.44950700830E+03  0.46812344198E+03  0.81203875671E+02 0.  0.
         25    2    1    2    0    0 -0.57343959722E+02  0.68265601226E+02 -0.12839574993E+02  0.15414085776E+03  0.12508408099E+03 0.  0.
         24    2    1    2    0    0 -0.17746178951E+02  0.13792698588E+01  0.17393636480E+03  0.19248234949E+03  0.80490785885E+02 0.  0.
        -11    1    5    5    0    0 -0.34682807680E+02  0.91337724854E+01  0.28371154916E+02  0.45730136449E+02  0.00000000000E+00 0.  1.
         12    1    5    5    0    0  0.16936628728E+02 -0.77545026266E+01  0.14556520989E+03  0.14675221304E+03  0.00000000000E+00 0. -1.
         13    1    3    3    0    0  0.12808525580E+02 -0.61545661974E+02 -0.16053130706E+03  0.17240135551E+03  0.00000000000E+00 0. -1.
        -14    1    3    3    0    0  0.62281613093E+02 -0.80992091107E+01 -0.28897570124E+03  0.29572208647E+03  0.00000000000E+00 0.  1.
          5    1    4    4  501    0 -0.77975794729E+02  0.22614942611E+02  0.31425808212E+02  0.87159130415E+02  0.41800000000E+01 0. -1.
         -5    1    4    4    0  501  0.20631835006E+02  0.45650658615E+02 -0.44265383205E+02  0.66981727344E+02  0.41800000000E+01 0. -1.
</event>
<event>
11    1  0.8551154E-009  0.2906491E+03  0.7561462E-02  0.1004228E+00
         22   -1    0    0    0    0  0.00000000000E+00  0.00000000000E+00  0.11079823187E+03  0.11079823187E+03  0.00000000000E+00 0. -1.
         22   -1    0    0    0    0 -0.00000000000E+00 -0.00000000000E+00 -0.11191275369E+04  0.11191275369E+04  0.00000000000E+00 0. -1.
         24    2    1    2    0    0  0.14119589639E+02 -0.41932056275E+02 -0.16232348982E+03  0.18618745381E+03  0.79744544982E+02 0.  0.
         25    2    1    2    0    0 -0.25155470972E+03  0.13142241842E+03 -0.62463633558E+03  0.69740200741E+03  0.12508950465E+03 0.  0.
        -24    2    1    2    0    0  0.23743512008E+03 -0.89490362140E+02 -0.22136947966E+03  0.34633630757E+03  0.80996482950E+02 0.  0.
        -11    1    3    3    0    0 -0.74803869564E+01  0.56579640760E+01  0.51838812619E+01  0.10716406648E+02  0.00000000000E+00 0.  1.
         12    1    3    3    0    0  0.21599976595E+02 -0.47590020351E+02 -0.16750737108E+03  0.17547104716E+03  0.00000000000E+00 0. -1.
         11    1    5    5    0    0  0.10334620863E+03  0.62160642699E+00 -0.10424187634E+03  0.14678962503E+03  0.00000000000E+00 0. -1.
        -12    1    5    5    0    0  0.13408891145E+03 -0.90111968567E+02 -0.11712760332E+03  0.19954668254E+03  0.00000000000E+00 0.  1.
          5    1    4    4  501    0  0.21015777187E+01  0.27306901799E+02 -0.11909509650E+03  0.12227509118E+03  0.41800000000E+01 0. -1.
         -5    1    4    4    0  501 -0.25365628744E+03  0.10411551662E+03 -0.50554123908E+03  0.57512691623E+03  0.41800000000E+01 0. -1.
</event>
<event>
11    1  0.8551154E-009  0.1339279E+03  0.7561462E-02  0.1114535E+00
         22   -1    0    0    0    0  0.00000000000E+00  0.00000000000E+00  0.10005889231E+04  0.10005889231E+04  0.00000000000E+00 0. -1.
         22   -1    0    0    0    0 -0.00000000000E+00 -0.00000000000E+00 -0.28685615146E+03  0.28685615146E+03  0.00000000000E+00 0.  1.
         24    2    1    2    0    0 -0.54930340097E+01  0.36238912080E+02 -0.97508391761E+02  0.13180223323E+03  0.80749675234E+02 0.  0.
         25    2    1    2    0    0 -0.91616839190E+01 -0.68096257614E+02 -0.14029418594E+03  0.20012734747E+03  0.12508980710E+03 0.  0.
        -24    2    1    2    0    0  0.14654717929E+02  0.31857345534E+02  0.95153534935E+03  0.95551549386E+03  0.79753913524E+02 0.  0.
        -13    1    3    3    0    0  0.21442535082E+02  0.38201493271E+02 -0.95079294976E+02  0.10468623946E+03  0.00000000000E+00 0.  1.
         14    1    3    3    0    0 -0.26935569092E+02 -0.19625811909E+01 -0.24290967853E+01  0.27115993776E+02  0.00000000000E+00 0. -1.
         11    1    5    5    0    0  0.22912692123E+02  0.54260296702E+02  0.79393055005E+03  0.79611235989E+03  0.00000000000E+00 0. -1.
        -12    1    5    5    0    0 -0.82579741947E+01 -0.22402951168E+02  0.15760479929E+03  0.15940313397E+03  0.00000000000E+00 0.  1.
          5    1    4    4  501    0  0.17726364031E+01 -0.86710857935E+02 -0.15212218556E+03  0.17515863343E+03  0.41800000000E+01 0.  1.
         -5    1    4    4    0  501 -0.10934320322E+02  0.18614600321E+02  0.11827999616E+02  0.24968714042E+02  0.41800000000E+01 0.  1.
</event>
<event>
11    1  0.8551154E-009  0.1585275E+03  0.7561462E-02  0.1088470E+00
         22   -1    0    0    0    0  0.00000000000E+00  0.00000000000E+00  0.32878212883E+04  0.32878212883E+04  0.00000000000E+00 0.  1.
         22   -1    0    0    0    0 -0.00000000000E+00 -0.00000000000E+00 -0.38817532175E+03  0.38817532175E+03  0.00000000000E+00 0. -1.
        -24    2    1    2    0    0 -0.61528506257E+02 -0.74728207677E+02 -0.35947130777E+03  0.38079296367E+03  0.80084942177E+02 0.  0.
         25    2    1    2    0    0  0.11238163322E+03  0.67553516556E+02  0.45948823351E+03  0.49393194409E+03  0.12508484950E+03 0.  0.
         24    2    1    2    0    0 -0.50853126966E+02  0.71746911215E+01  0.27996290408E+04  0.28012717023E+04  0.81011524838E+02 0.  0.
        -11    1    5    5    0    0 -0.21720319653E+02 -0.14953135912E+02  0.23527302245E+04  0.23528779989E+04  0.00000000000E+00 0.  1.
         12    1    5    5    0    0 -0.29132807313E+02  0.22127827033E+02  0.44689881636E+03  0.44839370340E+03  0.00000000000E+00 0. -1.
         13    1    3    3    0    0 -0.66637583920E+02 -0.35297114067E+02 -0.29943340567E+03  0.30878280114E+03  0.00000000000E+00 0. -1.
        -14    1    3    3    0    0  0.51090776631E+01 -0.39431093610E+02 -0.60037902104E+02  0.72010162525E+02  0.00000000000E+00 0.  1.
          5    1    4    4  501    0  0.21581001473E+02  0.58476836251E+02  0.32756499894E+03  0.33346901045E+03  0.41800000000E+01 0. -1.
         -5    1    4    4    0  501  0.90800631750E+02  0.90766803048E+01  0.13192323457E+03  0.16046293363E+03  0.41800000000E+01 0. -1.
</event>
<event>
11    1  0.8551154E-009  0.1293090E+03  0.7561462E-02  0.1120121E+00
         22   -1    0    0    0    0  0.00000000000E+00  0.00000000000E+00  0.12349608505E+04  0.12349608505E+04  0.00000000000E+00 0. -1.
         22   -1    0    0    0    0 -0.00000000000E+00 -0.00000000000E+00 -0.46036868545E+03  0.46036868545E+03  0.00000000000E+00 0. -1.
         24    2    1    2    0    0  0.10470990835E+02  0.32894215807E+02 -0.33082520471E+03  0.34210826702E+03  0.80006744776E+02 0.  0.
         25    2    1    2    0    0 -0.26623084506E+02 -0.13925835635E+02 -0.88656933752E+02  0.15623493547E+03  0.12508631272E+03 0.  0.
        -24    2    1    2    0    0  0.16152093671E+02 -0.18968380172E+02  0.11940743036E+04  0.11969863335E+04  0.79637620757E+02 0.  0.
        -11    1    3    3    0    0  0.24107756851E+02 -0.45985858269E+01 -0.30516284838E+02  0.39160880637E+02  0.00000000000E+00 0.  1.
         12    1    3    3    0    0 -0.13636766016E+02  0.37492801634E+02 -0.30030891987E+03  0.30294738638E+03  0.00000000000E+00 0. -1.
         13    1    5    5    0    0  0.20818095577E+01 -0.49429248572E+02  0.76903779412E+03  0.77062748026E+03  0.00000000000E+00 0. -1.
        -14    1    5    5    0    0  0.14070284113E+02  0.30460868400E+02  0.42503650943E+03  0.42635885326E+03  0.00000000000E+00 0.  1.
          5    1    4    4  501    0 -0.37317154249E+02 -0.46823230919E+02 -0.10246925407E+03  0.11875354893E+03  0.41800000000E+01 0.  1.
         -5    1    4    4    0  501  0.10694069743E+02  0.32897395284E+02  0.13812320313E+02  0.37481386535E+02  0.41800000000E+01 0.  1.
</event>
<event>
11    1  0.8551154E-009  0.1833648E+03  0.7561462E-02  0.1066953E+00
         22   -1    0    0    0    0  0.00000000000E+00  0.00000000000E+00  0.84861952472E+03  0.84861952472E+03  0.00000000000E+00 0.  1.
         22   -1    0    0    0    0 -0.00000000000E+00 -0.00000000000E+00 -0.61231959565E+03  0.61231959565E+03  0.00000000000E+00 0.  1.
         24    2    1    2    0    0 -0.91943359870E+02 -0.97642949296E+02 -0.57118126504E+03  0.59274177005E+03  0.84303270774E+02 0.  0.
         25    2    1    2    0    0  0.85001586697E+02  0.10225035719E+03  0.28159962669E+03  0.33559843165E+03  0.12509017663E+03 0.  0.
        -24    2    1    2    0    0  0.69417731728E+01 -0.46074078895E+01  0.52588156742E+03  0.53259891867E+03  0.83909289059E+02 0.  0.
        -11    1    3    3    0    0 -0.78150648053E+02 -0.52962188212E+02 -0.49038422942E+03  0.49938883611E+03  0.00000000000E+00 0.  1.
         12    1    3    3    0    0 -0.13792711817E+02 -0.44680761084E+02 -0.80797035619E+02  0.93352933939E+02  0.00000000000E+00 0. -1.
         13    1    5    5    0    0  0.88611229396E+01 -0.38562662660E+02  0.14826468550E+03  0.15345362628E+03  0.00000000000E+00 0. -1.
        -14    1    5    5    0    0 -0.19193497668E+01  0.33955254771E+02  0.37761688192E+03  0.37914529239E+03  0.00000000000E+00 0.  1.
          5    1    4    4  501    0  0.54808532651E+02  0.23256374137E+02  0.23808607234E+02  0.64258512026E+02  0.41800000000E+01 0.  1.
         -5    1    4    4    0  501  0.30193054046E+02  0.78993983048E+02  0.25779101945E+03  0.27133991962E+03  0.41800000000E+01 0.  1.
</event>
<event>
11    1  0.8551154E-009  0.1653264E+03  0.7561462E-02  0.1082172E+00
         22   -1    0    0    0    0  0.00000000000E+00  0.00000000000E+00  0.95876157953E+03  0.95876157953E+03  0.00000000000E+00 0. -1.
         22   -1    0    0    0    0 -0.00000000000E+00 -0.00000000000E+00 -0.48553678046E+03  0.48553678046E+03  0.00000000000E+00 0. -1.
         24    2    1    2    0    0  0.36836127384E+02  0.10755268856E+02 -0.45636550485E+03  0.46527344678E+03  0.82081241282E+02 0.  0.
         25    2    1    2    0    0 -0.12355792537E+03 -0.47422102369E+02  0.51309982050E+03  0.54445637320E+03  0.12508357125E+03 0.  0.
        -24    2    1    2    0    0  0.86721797984E+02  0.36666833514E+02  0.41649048341E+03  0.43456854001E+03  0.80748784938E+02 0.  0.
        -11    1    3    3    0    0  0.29371017127E+02 -0.19254270524E+02 -0.76784482424E+02  0.84434828842E+02  0.00000000000E+00 0.  1.
         12    1    3    3    0    0  0.74651102573E+01  0.30009539380E+02 -0.37958102243E+03  0.38083861794E+03  0.00000000000E+00 0. -1.
         11    1    5    5    0    0  0.59299399102E+02  0.59179565087E+01  0.35857446935E+03  0.36349290367E+03  0.00000000000E+00 0. -1.
        -12    1    5    5    0    0  0.27422398881E+02  0.30748877005E+02  0.57916014060E+02  0.71075636346E+02  0.00000000000E+00 0.  1.
          5    1    4    4  501    0 -0.21026827900E+02  0.22731785913E+02  0.26623074591E+03  0.26805809827E+03  0.41800000000E+01 0.  1.
         -5    1    4    4    0  501 -0.10253109747E+03 -0.70153888282E+02  0.24686907459E+03  0.27639827492E+03  0.41800000000E+01 0.  1.
</event>
<event>
11    1  0.8551154E-009  0.1501358E+03  0.7561462E-02  0.1096740E+00
         22   -1    0    0    0    0  0.00000000000E+00  0.00000000000E+00  0.39494374980E+03  0.39494374980E+03  0.00000000000E+00 0. -1.
         22   -1    0    0    0    0 -0.00000000000E+00 -0.00000000000E+00 -0.63725047195E+03  0.63725047195E+03  0.00000000000E+00 0. -1.
         24    2    1    2    0    0  0.33546351346E+02  0.76788232919E+02 -0.58409774807E+03  0.59560363994E+03  0.80942734155E+02 0.  0.
         25    2    1    2    0    0 -0.46085394750E+02 -0.51923479153E+02  0.85357209963E+02  0.16659320163E+03  0.12509008849E+03 0.  0.
        -24    2    1    2    0    0  0.12539043404E+02 -0.24864753766E+02  0.25643381595E+03  0.26999738019E+03  0.79779695124E+02 0.  0.
        -13    1    3    3    0    0 -0.24185344254E+02  0.68616761997E+01 -0.10203651280E+03  0.10508788428E+03  0.00000000000E+00 0.  1.
         14    1    3    3    0    0  0.57731695600E+02  0.69926556720E+02 -0.48206123526E+03  0.49051575566E+03  0.00000000000E+00 0. -1.
         11    1    5    5    0    0  0.40125460322E+02 -0.20709035049E+02  0.21727431060E+03  0.22191674733E+03  0.00000000000E+00 0. -1.
        -12    1    5    5    0    0 -0.27586416918E+02 -0.41557187164E+01  0.39159505353E+02  0.48080632857E+02  0.00000000000E+00 0.  1.
          5    1    4    4  501    0 -0.30411292852E+02 -0.15677166218E+02 -0.29309261058E+02  0.45245170542E+02  0.41800000000E+01 0. -1.
         -5    1    4    4    0  501 -0.15674101898E+02 -0.36246312935E+02  0.11466647102E+03  0.12134803108E+03  0.41800000000E+01 0. -1.
</event>
<event>
11    1  0.8551154E-009  0.1506320E+03  0.7561462E-02  0.1096235E+00
         22   -1    0    0    0    0  0.00000000000E+00  0.00000000000E+00  0.93267291567E+03  0.93267291567E+03  0.00000000000E+00 0.  1.
         22   -1    0    0    0    0 -0.00000000000E+00 -0.00000000000E+00 -0.26056580312E+03  0.26056580312E+03  0.00000000000E+00 0.  1.
        -24    2    1    2    0    0 -0.36430127988E+02  0.75196434972E+02 -0.22662041693E+03  0.25539363723E+03  0.82990592914E+02 0.  0.
         25    2    1    2    0    0  0.11119145149E+02 -0.98869098715E+02  0.37980298657E+03  0.41206279294E+03  0.12508678049E+03 0.  0.
         24    2    1    2    0    0  0.25310982840E+02  0.23672663743E+02  0.51892454290E+03  0.52578228861E+03  0.77222360302E+02 0.  0.
        -13    1    5    5    0    0  0.15517513757E+01  0.35561914619E+02  0.45718977408E+03  0.45857338259E+03  0.00000000000E+00 0.  1.
         14    1    5    5    0    0  0.23759231464E+02 -0.11889250876E+02  0.61734768828E+02  0.67208906020E+02  0.00000000000E+00 0. -1.
         13    1    3    3    0    0 -0.27658437919E+02 -0.62990655400E+01 -0.25235752752E+02  0.37967231026E+02  0.00000000000E+00 0. -1.
        -14    1    3    3    0    0 -0.87716900690E+01  0.81495500512E+02 -0.20138466418E+03  0.21742640621E+03  0.00000000000E+00 0.  1.
          5    1    4    4  501    0  0.28566300431E+02 -0.24680549178E+02  0.29711252876E+03  0.29953044949E+03  0.41800000000E+01 0.  1.
         -5    1    4    4    0  501 -0.17447155282E+02 -0.74188549537E+02  0.82690457812E+02  0.11253234345E+03  0.41800000000E+01 0.  1.
</event>
<event>
11    1  0.8551154E-009  0.1285330E+03  0.7561462E-02  0.1121085E+00
         22   -1    0    0    0    0  0.00000000000E+00  0.00000000000E+00  0.21155748532E+04  0.21155748532E+04  0.00000000000E+00 0.  1.
         22   -1    0    0    0    0 -0.00000000000E+00 -0.00000000000E+00 -0.17034216434E+03  0.17034216434E+03  0.00000000000E+00 0.  1.
         24    2    1    2    0    0  0.23963767632E+02 -0.16477955198E+02 -0.14538750165E+03  0.16918549453E+03  0.81488776880E+02 0.  0.
         25    2    1    2    0    0 -0.38683724321E+02  0.18986613347E+02  0.34990824715E+03  0.37408868454E+03  0.12509852303E+03 0.  0.
        -24    2    1    2    0    0  0.14719956689E+02 -0.25086581488E+01  0.17407119434E+04  0.17426428385E+04  0.80641318263E+02 0.  0.
        -13    1    3    3    0    0  0.14753796942E+01  0.28769527854E+02 -0.88636976965E+02  0.93200730489E+02  0.00000000000E+00 0.  1.
         14    1    3    3    0    0  0.22488387938E+02 -0.45247483052E+02 -0.56750524681E+02  0.75984764040E+02  0.00000000000E+00 0. -1.
         11    1    5    5    0    0 -0.98117734916E+01 -0.12079464207E+01  0.26968624631E+02  0.28723452928E+02  0.00000000000E+00 0. -1.
        -12    1    5    5    0    0  0.24531730180E+02 -0.13007117281E+01  0.17137433187E+04  0.17139193855E+04  0.00000000000E+00 0.  1.
          5    1    4    4  501    0 -0.50643004948E+02 -0.44510265828E+02  0.18111988319E+03  0.19330742924E+03  0.41800000000E+01 0. -1.
         -5    1    4    4    0  501  0.11959280627E+02  0.63496879175E+02  0.16878836396E+03  0.18078125530E+03  0.41800000000E+01 0. -1.
</event>
<event>
11    1  0.8551154E-009  0.1457166E+03  0.7561462E-02  0.1101338E+00
         22   -1    0    0    0    0  0.00000000000E+00  0.00000000000E+00  0.81076242516E+03  0.81076242516E+03  0.00000000000E+00 0. -1.
         22   -1    0    0    0    0 -0.00000000000E+00 -0.00000000000E+00 -0.15222156742E+04  0.15222156742E+04  0.00000000000E+00 0.  1.
         24    2    1    2    0    0 -0.37642547166E+02  0.64290017745E+02 -0.14500837062E+04  0.14543255871E+04  0.82279951674E+02 0.  0.
         25    2    1    2    0    0  0.77487068818E+02 -0.52638355918E+02  0.23603845497E+02  0.15805121666E+03  0.12509197903E+03 0.  0.
        -24    2    1    2    0    0 -0.39844521652E+02 -0.11651661827E+02  0.71502661171E+03  0.72060129560E+03  0.79245344556E+02 0.  0.
        -11    1    3    3    0    0 -0.25604309377E+02  0.34638932870E+02 -0.13068827523E+04  0.13075924307E+04  0.00000000000E+00 0.  1.
         12    1    3    3    0    0 -0.12038237789E+02  0.29651084875E+02 -0.14320095387E+03  0.14673315642E+03  0.00000000000E+00 0. -1.
         11    1    5    5    0    0 -0.31485227743E+02  0.87539061436E+01  0.66648496269E+03  0.66728566291E+03  0.00000000000E+00 0. -1.
        -12    1    5    5    0    0 -0.83592939091E+01 -0.20405567970E+02  0.48541649023E+02  0.53315632686E+02  0.00000000000E+00 0.  1.
          5    1    4    4  501    0  0.34688207480E+02  0.40622251754E+02  0.79114258527E+01  0.54161814360E+02  0.41800000000E+01 0. -1.
         -5    1    4    4    0  501  0.42798861338E+02 -0.93260607672E+02  0.15692419644E+02  0.10388940230E+03  0.41800000000E+01 0. -1.
</event>
<event>
11    1  0.8551154E-009  0.1928612E+03  0.7561462E-02  0.1059690E+00
         22   -1    0    0    0    0  0.00000000000E+00  0.00000000000E+00  0.44182901016E+03  0.44182901016E+03  0.00000000000E+00 0. -1.
         22   -1    0    0    0    0 -0.00000000000E+00 -0.00000000000E+00 -0.32188107863E+04  0.32188107863E+04  0.00000000000E+00 0.  1.
         24    2    1    2    0    0 -0.70244938805E+02 -0.13064647207E+03 -0.31170785449E+04  0.31214779752E+04  0.73778334966E+02 0.  0.
         25    2    1    2    0    0  0.62523459437E+02  0.78324436070E+02 -0.24510139326E+02  0.16214693148E+03  0.12508788987E+03 0.  0.
        -24    2    1    2    0    0  0.77214793687E+01  0.52322036000E+02  0.36460690811E+03  0.37701488973E+03  0.80030075229E+02 0.  0.
        -11    1    3    3    0    0 -0.51027056405E+02 -0.13426002710E+03 -0.28867096809E+04  0.28902806606E+04  0.00000000000E+00 0.  1.
         12    1    3    3    0    0 -0.19217882400E+02  0.36135550293E+01 -0.23036886405E+03  0.23119731466E+03  0.00000000000E+00 0. -1.
         11    1    5    5    0    0 -0.29210129268E+02  0.48217340973E+02  0.25890708701E+03  0.26497362760E+03  0.00000000000E+00 0. -1.
        -12    1    5    5    0    0  0.36931608636E+02  0.41046950268E+01  0.10569982110E+03  0.11204126213E+03  0.00000000000E+00 0.  1.
          5    1    4    4  501    0  0.46781216971E+02  0.11176941485E+03 -0.81567616719E+01  0.12151086173E+03  0.41800000000E+01 0.  1.
         -5    1    4    4    0  501  0.15742242466E+02 -0.33444978784E+02 -0.16353377654E+02  0.40636069746E+02  0.41800000000E+01 0.  1.
</event>
<event>
11    1  0.8551154E-009  0.1605328E+03  0.7561462E-02  0.1086577E+00
         22   -1    0    0    0    0  0.00000000000E+00  0.00000000000E+00  0.71036815774E+02  0.71036815774E+02  0.00000000000E+00 0.  1.
         22   -1    0    0    0    0 -0.00000000000E+00 -0.00000000000E+00 -0.30221465118E+04  0.30221465118E+04  0.00000000000E+00 0.  1.
        -24    2    1    2    0    0 -0.99116018469E+01 -0.99846325142E+02 -0.18539322328E+04  0.18583626785E+04  0.79872353526E+02 0.  0.
         25    2    1    2    0    0 -0.78888066316E+02  0.45414517695E+02 -0.10905314767E+04  0.11014487326E+04  0.12507838939E+03 0.  0.
         24    2    1    2    0    0  0.88799668163E+02  0.54431807447E+02 -0.66459865441E+01  0.13337191639E+03  0.83040328849E+02 0.  0.
        -13    1    5    5    0    0  0.68405325405E+02  0.43205007958E+02  0.33014392120E+02  0.87383701818E+02  0.00000000000E+00 0.  1.
         14    1    5    5    0    0  0.20394342759E+02  0.11226799490E+02 -0.39660378664E+02  0.45988214568E+02  0.00000000000E+00 0. -1.
         11    1    3    3    0    0 -0.29311726541E+02 -0.81881237020E+02 -0.16963228078E+04  0.16985507889E+04  0.00000000000E+00 0. -1.
        -12    1    3    3    0    0  0.19400124694E+02 -0.17965088122E+02 -0.15760942499E+03  0.15981188965E+03  0.00000000000E+00 0.  1.
          5    1    4    4  501    0 -0.28739590063E+02  0.80531544882E+02 -0.79616091349E+03  0.80075025216E+03  0.41800000000E+01 0. -1.
         -5    1    4    4    0  501 -0.50148476254E+02 -0.35117027187E+02 -0.29437056322E+03  0.30069848048E+03  0.41800000000E+01 0. -1.
</event>
<event>
11    1  0.8551154E-009  0.1708214E+03  0.7561462E-02  0.1077319E+00
         22   -1    0    0    0    0  0.00000000000E+00  0.00000000000E+00  0.13604260245E+04  0.13604260245E+04  0.00000000000E+00 0. -1.
         22   -1    0    0    0    0 -0.00000000000E+00 -0.00000000000E+00 -0.22567938492E+03  0.22567938492E+03  0.00000000000E+00 0. -1.
        -24    2    1    2    0    0 -0.10866594103E+03  0.25998315029E+02 -0.16421097844E+03  0.21446610457E+03  0.80908994832E+02 0.  0.
         25    2    1    2    0    0  0.19400240435E+03 -0.10720760888E+02  0.37825740845E+03  0.44325834880E+03  0.12508968433E+03 0.  0.
         24    2    1    2    0    0 -0.85336463316E+02 -0.15277554141E+02  0.92070020954E+03  0.92838095602E+03  0.81771682226E+02 0.  0.
        -13    1    5    5    0    0 -0.64037311957E+02 -0.42878650826E+02  0.46443975110E+03  0.47079044003E+03  0.00000000000E+00 0.  1.
         14    1    5    5    0    0 -0.21299151359E+02  0.27601096685E+02  0.45626045844E+03  0.45759051599E+03  0.00000000000E+00 0. -1.
         11    1    3    3    0    0 -0.92545690147E+02  0.15520484665E+02 -0.17017807336E+03  0.19433519203E+03  0.00000000000E+00 0. -1.
        -12    1    3    3    0    0 -0.16120250885E+02  0.10477830364E+02  0.59670949242E+01  0.20130912537E+02  0.00000000000E+00 0.  1.
          5    1    4    4  501    0  0.15267509424E+03  0.16409129350E+02  0.16977541717E+03  0.22895438105E+03  0.41800000000E+01 0. -1.
         -5    1    4    4    0  501  0.41327310110E+02 -0.27129890238E+02  0.20848199128E+03  0.21430396775E+03  0.41800000000E+01 0. -1.
</event>
<event>
11    1  0.8551154E-009  0.2317509E+03  0.7561462E-02  0.1034096E+00
         22   -1    0    0    0    0  0.00000000000E+00  0.00000000000E+00  0.59550854926E+03  0.59550854926E+03  0.00000000000E+00 0. -1.
         22   -1    0    0    0    0 -0.00000000000E+00 -0.00000000000E+00 -0.33187359761E+03  0.33187359761E+03  0.00000000000E+00 0. -1.
        -24    2    1    2    0    0 -0.15566192976E+02  0.86003012411E+01 -0.10452409206E+03  0.13325182958E+03  0.80712407467E+02 0.  0.
         25    2    1    2    0    0  0.20785841635E+03  0.13966631023E+02 -0.11396837270E+03  0.26839420389E+03  0.12508585321E+03 0.  0.
         24    2    1    2    0    0 -0.19229222337E+03 -0.22566932264E+02  0.48212741641E+03  0.52573611341E+03  0.80411750956E+02 0.  0.
        -11    1    5    5    0    0 -0.16940295075E+02 -0.21177612918E+02  0.28244628039E+02  0.39156403042E+02  0.00000000000E+00 0.  1.
         12    1    5    5    0    0 -0.17535192830E+03 -0.13893193460E+01  0.45388278837E+03  0.48657971037E+03  0.00000000000E+00 0. -1.
         13    1    3    3    0    0 -0.22567297629E+02  0.40216929201E+02 -0.81067285988E+02  0.93266227404E+02  0.00000000000E+00 0. -1.
        -14    1    3    3    0    0  0.70011046538E+01 -0.31616627960E+02 -0.23456806072E+02  0.39985602172E+02  0.00000000000E+00 0.  1.
          5    1    4    4  501    0  0.12176600789E+02 -0.28353216658E+02  0.10206336118E+02  0.32769134847E+02  0.41800000000E+01 0.  1.
         -5    1    4    4    0  501  0.19568181556E+03  0.42319847681E+02 -0.12417470882E+03  0.23562506904E+03  0.41800000000E+01 0.  1.
</event>
<event>
11    1  0.8551154E-009  0.6873190E+03  0.7561462E-02  0.9051203E-01
         22   -1    0    0    0    0  0.00000000000E+00  0.00000000000E+00  0.10680007462E+04  0.10680007462E+04  0.00000000000E+00 0.  1.
         22   -1    0    0    0    0 -0.00000000000E+00 -0.00000000000E+00 -0.19341345889E+04  0.19341345889E+04  0.00000000000E+00 0. -1.
         24    2    1    2    0    0  0.29897355119E+03  0.54494689313E+03 -0.10271449486E+04  0.12031710694E+04  0.79003647029E+02 0.  0.
         25    2    1    2    0    0 -0.47091664125E+03 -0.65642277342E+03 -0.59530723580E+03  0.10112814229E+04  0.12508425480E+03 0.  0.
        -24    2    1    2    0    0  0.17194309006E+03  0.11147588029E+03  0.75631834163E+03  0.78768284288E+03  0.80221748737E+02 0.  0.
        -13    1    3    3    0    0  0.23804301824E+02  0.91249391324E+02 -0.12558880021E+03  0.15705299405E+03  0.00000000000E+00 0.  1.
         14    1    3    3    0    0  0.27516924936E+03  0.45369750181E+03 -0.90155614835E+03  0.10461180753E+04  0.00000000000E+00 0. -1.
         11    1    5    5    0    0  0.14569786040E+03  0.62353250632E+02  0.63007461666E+03  0.64969978986E+03  0.00000000000E+00 0. -1.
        -12    1    5    5    0    0  0.26245229662E+02  0.49122629662E+02  0.12624372498E+03  0.13798305302E+03  0.00000000000E+00 0.  1.
          5    1    4    4  501    0 -0.40421752830E+03 -0.52564094322E+03 -0.43081864899E+03  0.79076696447E+03  0.41800000000E+01 0. -1.
         -5    1    4    4    0  501 -0.66699112950E+02 -0.13078183020E+03 -0.16448858682E+03  0.22051445842E+03  0.41800000000E+01 0. -1.
</event>
<event>
11    1  0.1173136E-008  0.1867491E+03  0.7561462E-02  0.1064311E+00
         22   -1    0    0    0    0  0.00000000000E+00  0.00000000000E+00  0.14313948533E+04  0.14313948533E+04  0.00000000000E+00 0.  1.
         22   -1    0    0    0    0 -0.00000000000E+00 -0.00000000000E+00 -0.13416672220E+04  0.13416672220E+04  0.00000000000E+00 0. -1.
         24    2    1    2    0    0 -0.79780196187E+02 -0.36600188775E+02 -0.53874396535E+03  0.55142325796E+03  0.78218256794E+02 0.  0.
         25    2    1    2    0    0  0.20544744023E+02  0.16198078561E+03 -0.77872781360E+03  0.80543421800E+03  0.12508960957E+03 0.  0.
        -24    2    1    2    0    0  0.59235452164E+02 -0.12538059683E+03  0.14071994102E+04  0.14162045994E+04  0.78715655328E+02 0.  0.
        -11    1    3    3    0    0 -0.40046179712E+00  0.80362001795E+01 -0.21400983058E+03  0.21416103397E+03  0.00000000000E+00 0.  1.
         12    1    3    3    0    0 -0.79379734390E+02 -0.44636388955E+02 -0.32473413477E+03  0.33726222400E+03  0.00000000000E+00 0. -1.
         11    1    5    5    0    0 -0.85008791341E+01 -0.25330693676E+02  0.53616133785E+03  0.53682668450E+03  0.00000000000E+00 0. -1.
        -12    1    5    5    0    0  0.67736331298E+02 -0.10004990316E+03  0.87103807240E+03  0.87937791493E+03  0.00000000000E+00 0.  1.
          5    1    4    4  501    0 -0.46229957355E+02  0.59216714258E+02 -0.41011685634E+03  0.41696179256E+03  0.41800000000E+01 0. -1.
         -5    1    4    4    0  501  0.66774701378E+02  0.10276407135E+03 -0.36861095727E+03  0.38847242543E+03  0.41800000000E+01 0. -1.
</event>
<event>
11    1  0.8551154E-009  0.1777722E+03  0.7561462E-02  0.1071459E+00
         22   -1    0    0    0    0  0.00000000000E+00  0.00000000000E+00  0.30576735401E+03  0.30576735401E+03  0.00000000000E+00 0.  1.
         22   -1    0    0    0    0 -0.00000000000E+00 -0.00000000000E+00 -0.11723007013E+04  0.11723007013E+04  0.00000000000E+00 0. -1.
        -24    2    1    2    0    0 -0.12387238777E+02  0.10354922057E+02 -0.98137706267E+03  0.98452342647E+03  0.76972527893E+02 0.  0.
         25    2    1    2    0    0  0.13337994190E+03 -0.40271921897E+02 -0.11515137336E+03  0.21981672337E+03  0.12509003355E+03 0.  0.
         24    2    1    2    0    0 -0.12099270312E+03  0.29916999840E+02  0.22999508875E+03  0.27372790544E+03  0.80591341228E+02 0.  0.
        -11    1    5    5    0    0 -0.96556688733E+02 -0.80016554974E+01  0.19070680122E+03  0.21390723377E+03  0.00000000000E+00 0.  1.
         12    1    5    5    0    0 -0.24436014389E+02  0.37918655338E+02  0.39288287533E+02  0.59820671671E+02  0.00000000000E+00 0. -1.
         11    1    3    3    0    0  0.13255521683E+02 -0.25712997150E+02 -0.57854659700E+03  0.57926939500E+03  0.00000000000E+00 0. -1.
        -12    1    3    3    0    0 -0.25642760459E+02  0.36067919206E+02 -0.40283046566E+03  0.40525403147E+03  0.00000000000E+00 0.  1.
          5    1    4    4  501    0  0.33446515715E+02  0.25870064118E+02 -0.86735156353E+02  0.96583587522E+02  0.41800000000E+01 0. -1.
         -5    1    4    4    0  501  0.99933426184E+02 -0.66141986015E+02 -0.28416217004E+02  0.12323313585E+03  0.41800000000E+01 0. -1.
</event>
<event>
11    1  0.8551154E-009  0.1325385E+03  0.7561462E-02  0.1116189E+00
         22   -1    0    0    0    0  0.00000000000E+00  0.00000000000E+00  0.17539910305E+04  0.17539910305E+04  0.00000000000E+00 0. -1.
         22   -1    0    0    0    0 -0.00000000000E+00 -0.00000000000E+00 -0.27854948294E+03  0.27854948294E+03  0.00000000000E+00 0. -1.
        -24    2    1    2    0    0 -0.27532779295E+02  0.40052161965E+02 -0.18858633017E+03  0.21177238218E+03  0.83189592588E+02 0.  0.
         25    2    1    2    0    0  0.90421867400E+01 -0.20677143164E+02 -0.25094749104E+02  0.12956251589E+03  0.12508954273E+03 0.  0.
         24    2    1    2    0    0  0.18490592555E+02 -0.19375018801E+02  0.16891226269E+04  0.16912056154E+04  0.79522899806E+02 0.  0.
        -11    1    5    5    0    0  0.30916959776E+02  0.86724966254E+01  0.29445364591E+03  0.29619929134E+03  0.00000000000E+00 0.  1.
         12    1    5    5    0    0 -0.12426367221E+02 -0.28047515426E+02  0.13946689809E+04  0.13950063241E+04  0.00000000000E+00 0. -1.
         13    1    3    3    0    0 -0.43645567869E+02 -0.57799813686E+01 -0.11918464569E+03  0.12705637940E+03  0.00000000000E+00 0. -1.
        -14    1    3    3    0    0  0.16112788574E+02  0.45832143334E+02 -0.69401684483E+02  0.84716002781E+02  0.00000000000E+00 0.  1.
          5    1    4    4  501    0  0.34636079652E+02 -0.66259041906E+01 -0.68457244465E+02  0.77119565221E+02  0.41800000000E+01 0.  1.
         -5    1    4    4    0  501 -0.25593892912E+02 -0.14051238974E+02  0.43362495361E+02  0.52442950671E+02  0.41800000000E+01 0.  1.
</event>
<event>
11    1  0.8551154E-009  0.1351100E+03  0.7561462E-02  0.1113145E+00
         22   -1    0    0    0    0  0.00000000000E+00  0.00000000000E+00  0.89095834004E+03  0.89095834004E+03  0.00000000000E+00 0.  1.
         22   -1    0    0    0    0 -0.00000000000E+00 -0.00000000000E+00 -0.99331118921E+02  0.99331118921E+02  0.00000000000E+00 0.  1.
         24    2    1    2    0    0 -0.35020039130E+01 -0.16804996682E+02 -0.61201000973E+02  0.10252974722E+03  0.80449453700E+02 0.  0.
         25    2    1    2    0    0  0.25784099083E+02 -0.33169754178E+02  0.32771191322E+03  0.35328182460E+03  0.12509155515E+03 0.  0.
        -24    2    1    2    0    0 -0.22282095170E+02  0.49974750860E+02  0.52511630887E+03  0.53447788714E+03  0.83219628135E+02 0.  0.
        -11    1    3    3    0    0 -0.16522989990E+02  0.18674502884E+02 -0.59709640615E+02  0.64706935012E+02  0.00000000000E+00 0.  1.
         12    1    3    3    0    0  0.13020986077E+02 -0.35479499566E+02 -0.14913603579E+01  0.37822812212E+02  0.00000000000E+00 0. -1.
         11    1    5    5    0    0 -0.13799275869E+02 -0.14565147050E+02  0.37448480626E+02  0.42484729308E+02  0.00000000000E+00 0. -1.
        -12    1    5    5    0    0 -0.84828193005E+01  0.64539897910E+02  0.48766782825E+03  0.49199315783E+03  0.00000000000E+00 0.  1.
          5    1    4    4  501    0 -0.44163947308E+02 -0.40073766603E+02  0.17952838644E+03  0.18922017585E+03  0.41800000000E+01 0. -1.
         -5    1    4    4    0  501  0.69948046391E+02  0.69040124257E+01  0.14818352678E+03  0.16406164875E+03  0.41800000000E+01 0. -1.
</event>
<event>
11    1  0.8551154E-009  0.1375624E+03  0.7561462E-02  0.1110311E+00
         22   -1    0    0    0    0  0.00000000000E+00  0.00000000000E+00  0.15392906310E+04  0.15392906310E+04  0.00000000000E+00 0. -1.
         22   -1    0    0    0    0 -0.00000000000E+00 -0.00000000000E+00 -0.19631119284E+03  0.19631119284E+03  0.00000000000E+00 0. -1.
         24    2    1    2    0    0  0.10617690417E+02  0.32647298370E+02 -0.16764164005E+03  0.18836000857E+03  0.78722245330E+02 0.  0.
         25    2    1    2    0    0 -0.20792479742E+02  0.27005448014E+02  0.24100749767E+03  0.27366418608E+03  0.12508337770E+03 0.  0.
        -24    2    1    2    0    0  0.10174789325E+02 -0.59652746384E+02  0.12696135805E+04  0.12735776292E+04  0.80120890932E+02 0.  0.
        -11    1    3    3    0    0 -0.90014829308E+01 -0.19193155422E+02 -0.15009084231E+02  0.25974535982E+02  0.00000000000E+00 0.  1.
         12    1    3    3    0    0  0.19619173348E+02  0.51840453793E+02 -0.15263255582E+03  0.16238547259E+03  0.00000000000E+00 0. -1.
         11    1    5    5    0    0 -0.22267028581E+02 -0.38231730261E+01  0.69153443997E+03  0.69190340285E+03  0.00000000000E+00 0. -1.
        -12    1    5    5    0    0  0.32441817905E+02 -0.55829573358E+02  0.57807914058E+03  0.58167422633E+03  0.00000000000E+00 0.  1.
          5    1    4    4  501    0  0.22960461284E+02  0.62276730798E+01 -0.34675950295E+01  0.24402116909E+02  0.41800000000E+01 0. -1.
         -5    1    4    4    0  501 -0.43752941026E+02  0.20777774934E+02  0.24447509270E+03  0.24926206917E+03  0.41800000000E+01 0. -1.
</event>
<event>
11    1  0.8551154E-009  0.1497321E+03  0.7561462E-02  0.1097153E+00
         22   -1    0    0    0    0  0.00000000000E+00  0.00000000000E+00  0.55751627690E+03  0.55751627690E+03  0.00000000000E+00 0. -1.
         22   -1    0    0    0    0 -0.00000000000E+00 -0.00000000000E+00 -0.75170185860E+03  0.75170185860E+03  0.00000000000E+00 0. -1.
         24    2    1    2    0    0  0.48718687572E+02 -0.32568298966E+02 -0.51549842886E+03  0.52521075522E+03  0.81691508864E+02 0.  0.
         25    2    1    2    0    0  0.27105181234E+02  0.66640997446E+02 -0.20193558424E+03  0.24819550785E+03  0.12508923432E+03 0.  0.
        -24    2    1    2    0    0 -0.75823868806E+02 -0.34072698479E+02  0.52324843140E+03  0.53581187243E+03  0.79970205780E+02 0.  0.
        -11    1    3    3    0    0  0.22511302540E+02  0.18584205969E+02 -0.67515877708E+02  0.73556272311E+02  0.00000000000E+00 0.  1.
         12    1    3    3    0    0  0.26207385032E+02 -0.51152504935E+02 -0.44798255115E+03  0.45165448290E+03  0.00000000000E+00 0. -1.
         13    1    5    5    0    0 -0.38762191038E+02  0.13598660490E+02  0.34875812102E+03  0.35116898781E+03  0.00000000000E+00 0. -1.
        -14    1    5    5    0    0 -0.37061677768E+02 -0.47671358969E+02  0.17449031038E+03  0.18464288462E+03  0.00000000000E+00 0.  1.
          5    1    4    4  501    0 -0.33548512925E+02  0.49814334793E+02 -0.16372373660E+03  0.17444169512E+03  0.41800000000E+01 0.  1.
         -5    1    4    4    0  501  0.60653694159E+02  0.16826662652E+02 -0.38211847637E+02  0.73753812722E+02  0.41800000000E+01 0.  1.
</event>
<event>
11    1  0.8551154E-009  0.1332359E+03  0.7561462E-02  0.1115356E+00
         22   -1    0    0    0    0  0.00000000000E+00  0.00000000000E+00  0.26776994953E+03  0.26776994953E+03  0.00000000000E+00 0. -1.
         22   -1    0    0    0    0 -0.00000000000E+00 -0.00000000000E+00 -0.24702614131E+03  0.24702614131E+03  0.00000000000E+00 0. -1.
        -24    2    1    2    0    0  0.42879321168E+02  0.95895123559E+01 -0.16646081156E+03  0.19019701591E+03  0.80840015737E+02 0.  0.
         25    2    1    2    0    0 -0.53103286281E+02 -0.32566709396E+02  0.25232453280E+02  0.14200320568E+03  0.12509070369E+03 0.  0.
         24    2    1    2    0    0  0.10223965113E+02  0.22977197040E+02  0.16197216650E+03  0.18259586925E+03  0.80459851484E+02 0.  0.
        -13    1    5    5    0    0  0.13555685411E+02 -0.68057482659E+01 -0.25373071599E+01  0.15378970839E+02  0.00000000000E+00 0.  1.
         14    1    5    5    0    0 -0.33317202983E+01  0.29782945306E+02  0.16450947366E+03  0.16721689841E+03  0.00000000000E+00 0. -1.
         13    1    3    3    0    0 -0.65299358527E+01  0.24620984502E+02 -0.11311464853E+03  0.11594721494E+03  0.00000000000E+00 0. -1.
        -14    1    3    3    0    0  0.49409257020E+02 -0.15031472146E+02 -0.53346163034E+02  0.74249800974E+02  0.00000000000E+00 0.  1.
          5    1    4    4  501    0  0.22743386838E+02 -0.29834950443E+02  0.49465487683E+02  0.62222928126E+02  0.41800000000E+01 0. -1.
         -5    1    4    4    0  501 -0.75846673118E+02 -0.27317589528E+01 -0.24233034403E+02  0.79780277553E+02  0.41800000000E+01 0. -1.
</event>
<event>
11    1  0.8551154E-009  0.1499753E+03  0.7561462E-02  0.1096904E+00
         22   -1    0    0    0    0  0.00000000000E+00  0.00000000000E+00  0.65963645503E+03  0.65963645503E+03  0.00000000000E+00 0. -1.
         22   -1    0    0    0    0 -0.00000000000E+00 -0.00000000000E+00 -0.41861494389E+03  0.41861494389E+03  0.00000000000E+00 0.  1.
         24    2    1    2    0    0  0.11129776672E+02 -0.50033582801E+02 -0.25522377192E+03  0.27317402121E+03  0.82810873523E+02 0.  0.
         25    2    1    2    0    0 -0.62388084834E+02 -0.16394223654E+02 -0.11555925739E+03  0.18210754083E+03  0.12509264871E+03 0.  0.
        -24    2    1    2    0    0  0.51258308162E+02  0.66427806454E+02  0.61180454046E+03  0.62296983688E+03  0.82137411144E+02 0.  0.
        -11    1    3    3    0    0 -0.13163468855E+00 -0.77246798721E+01 -0.21030888340E+03  0.21045074113E+03  0.00000000000E+00 0.  1.
         12    1    3    3    0    0  0.11261411361E+02 -0.42308902929E+02 -0.44914888529E+02  0.62723280084E+02  0.00000000000E+00 0. -1.
         13    1    5    5    0    0  0.65908653849E+02  0.23047313733E+02  0.31427508318E+03  0.32193781578E+03  0.00000000000E+00 0. -1.
        -14    1    5    5    0    0 -0.14650345687E+02  0.43380492721E+02  0.29752945728E+03  0.30103202110E+03  0.00000000000E+00 0.  1.
          5    1    4    4  501    0 -0.63343648846E+01  0.17715593383E+02  0.22238380261E+02  0.29427612612E+02  0.41800000000E+01 0.  1.
         -5    1    4    4    0  501 -0.56053719950E+02 -0.34109817036E+02 -0.13779763766E+03  0.15267992822E+03  0.41800000000E+01 0.  1.
</event>
<event>
11    1  0.9200319E-009  0.1981016E+03  0.7561462E-02  0.1055874E+00
         22   -1    0    0    0    0  0.00000000000E+00  0.00000000000E+00  0.23069270524E+04  0.23069270524E+04  0.00000000000E+00 0. -1.
         22   -1    0    0    0    0 -0.00000000000E+00 -0.00000000000E+00 -0.19491796904E+03  0.19491796904E+03  0.00000000000E+00 0.  1.
        -24    2    1    2    0    0  0.46110496671E+01 -0.71182841330E+02 -0.81233763878E+02  0.13374390483E+03  0.78741659922E+02 0.  0.
         25    2    1    2    0    0 -0.10120586614E+03  0.18759466927E+03  0.98124343913E+02  0.26591443847E+03  0.12509082476E+03 0.  0.
         24    2    1    2    0    0  0.96594816473E+02 -0.11641182794E+03  0.20951185034E+04  0.21021866782E+04  0.82371199683E+02 0.  0.
        -11    1    5    5    0    0  0.95698608312E+00 -0.34850949034E+02  0.20929028878E+03  0.21217429026E+03  0.00000000000E+00 0.  1.
         12    1    5    5    0    0  0.95637830390E+02 -0.81560878904E+02  0.18858282146E+04  0.18900123879E+04  0.00000000000E+00 0. -1.
         13    1    3    3    0    0  0.46900036691E+00  0.16986162000E+02 -0.68742307412E+01  0.18330431231E+02  0.00000000000E+00 0. -1.
        -14    1    3    3    0    0  0.41420493002E+01 -0.88169003330E+02 -0.74359533136E+02  0.11541347360E+03  0.00000000000E+00 0.  1.
          5    1    4    4  501    0 -0.10283203972E+03  0.18712098951E+03  0.52297652642E+02  0.21986634572E+03  0.41800000000E+01 0.  1.
         -5    1    4    4    0  501  0.16261735804E+01  0.47367975571E+00  0.45826691271E+02  0.46048092749E+02  0.41800000000E+01 0.  1.
</event>
<event>
11    1  0.9153951E-009  0.1794443E+03  0.7561462E-02  0.1070093E+00
         22   -1    0    0    0    0  0.00000000000E+00  0.00000000000E+00  0.12708489867E+04  0.12708489867E+04  0.00000000000E+00 0.  1.
         22   -1    0    0    0    0 -0.00000000000E+00 -0.00000000000E+00 -0.35211028969E+03  0.35211028969E+03  0.00000000000E+00 0. -1.
        -24    2    1    2    0    0  0.55182718117E+02  0.53491760954E+01 -0.21724928751E+03  0.23799550187E+03  0.79817666723E+02 0.  0.
         25    2    1    2    0    0  0.17632907818E+02  0.10235644443E+03 -0.64424868051E+02  0.17489358513E+03  0.12509772717E+03 0.  0.
         24    2    1    2    0    0 -0.72815625935E+02 -0.10770562052E+03  0.12004128526E+04  0.12100701894E+04  0.79851302761E+02 0.  0.
        -11    1    5    5    0    0 -0.43747242620E+02 -0.11037399539E+03  0.10617845677E+04  0.10684019414E+04  0.00000000000E+00 0.  1.
         12    1    5    5    0    0 -0.29068383315E+02  0.26683748660E+01  0.13862828490E+03  0.14166824806E+03  0.00000000000E+00 0. -1.
         11    1    3    3    0    0  0.68232106960E+02 -0.10707787227E+01 -0.21170481302E+03  0.22243132613E+03  0.00000000000E+00 0. -1.
        -12    1    3    3    0    0 -0.13049388843E+02  0.64199548181E+01 -0.55444744916E+01  0.15564175739E+02  0.00000000000E+00 0.  1.
          5    1    4    4  501    0  0.52609117341E+02  0.10976134285E+03 -0.30771660251E+02  0.12561703342E+03  0.41800000000E+01 0. -1.
         -5    1    4    4    0  501 -0.34976209523E+02 -0.74048984204E+01 -0.33653207800E+02  0.49276551710E+02  0.41800000000E+01 0. -1.
</event>
<event>
11    1  0.8551154E-009  0.2023196E+03  0.7561462E-02  0.1052895E+00
         22   -1    0    0    0    0  0.00000000000E+00  0.00000000000E+00  0.10270978796E+04  0.10270978796E+04  0.00000000000E+00 0. -1.
         22   -1    0    0    0    0 -0.00000000000E+00 -0.00000000000E+00 -0.48919209497E+03  0.48919209497E+03  0.00000000000E+00 0.  1.
         24    2    1    2    0    0  0.11844963026E+02  0.56695481296E+02 -0.40988663564E+03  0.42170522886E+03  0.80458468950E+02 0.  0.
         25    2    1    2    0    0  0.11059324727E+03 -0.15266126856E+03  0.13617266492E+03  0.26406175375E+03  0.12509710573E+03 0.  0.
        -24    2    1    2    0    0 -0.12243821029E+03  0.95965787265E+02  0.81161975538E+03  0.83052299199E+03  0.82711941288E+02 0.  0.
        -11    1    3    3    0    0  0.41997690919E+01  0.37098172957E+02 -0.39289296110E+03  0.39466288320E+03  0.00000000000E+00 0.  1.
         12    1    3    3    0    0  0.76451939341E+01  0.19597308338E+02 -0.16993674542E+02  0.27042345661E+02  0.00000000000E+00 0. -1.
         13    1    5    5    0    0 -0.97955730935E+02  0.33399741461E+02  0.58763236012E+03  0.59667634327E+03  0.00000000000E+00 0. -1.
        -14    1    5    5    0    0 -0.24482479359E+02  0.62566045804E+02  0.22398739526E+03  0.23384664872E+03  0.00000000000E+00 0.  1.
          5    1    4    4  501    0  0.23139557769E+02 -0.13867634958E+01  0.75431476455E+02  0.79023681810E+02  0.41800000000E+01 0. -1.
         -5    1    4    4    0  501  0.87453689500E+02 -0.15127450507E+03  0.60741188461E+02  0.18503807194E+03  0.41800000000E+01 0. -1.
</event>
<event>
11    1  0.8551154E-009  0.1426524E+03  0.7561462E-02  0.1104632E+00
         22   -1    0    0    0    0  0.00000000000E+00  0.00000000000E+00  0.85907892154E+03  0.85907892154E+03  0.00000000000E+00 0. -1.
         22   -1    0    0    0    0 -0.00000000000E+00 -0.00000000000E+00 -0.11315864967E+04  0.11315864967E+04  0.00000000000E+00 0. -1.
        -24    2    1    2    0    0  0.24836761421E+02 -0.64099302040E+02 -0.96343264424E+03  0.96965492432E+03  0.85455409633E+02 0.  0.
         25    2    1    2    0    0 -0.38592952579E+01  0.69843164553E+02 -0.13153563155E+03  0.19453115398E+03  0.12509110963E+03 0.  0.
         24    2    1    2    0    0 -0.20977466163E+02 -0.57438625128E+01  0.82246070064E+03  0.82647933992E+03  0.78443923666E+02 0.  0.
        -11    1    5    5    0    0  0.25242977084E+02  0.30364135481E+01  0.13255263951E+03  0.13496899622E+03  0.00000000000E+00 0.  1.
         12    1    5    5    0    0 -0.46220443247E+02 -0.87802760608E+01  0.68990806113E+03  0.69151034369E+03  0.00000000000E+00 0. -1.
         13    1    3    3    0    0 -0.72209359986E+01 -0.71796776671E+02 -0.77572672236E+03  0.77907564898E+03  0.00000000000E+00 0. -1.
        -14    1    3    3    0    0  0.32057697420E+02  0.76974746310E+01 -0.18770592188E+03  0.19057927534E+03  0.00000000000E+00 0.  1.
          5    1    4    4  501    0  0.55650733970E+02  0.55992477461E+02 -0.54053036097E+02  0.95767243016E+02  0.41800000000E+01 0.  1.
         -5    1    4    4    0  501 -0.59510029227E+02  0.13850687092E+02 -0.77482595449E+02  0.98763910965E+02  0.41800000000E+01 0.  1.
</event>
<event>
11    1  0.8551154E-009  0.1394626E+03  0.7561462E-02  0.1108160E+00
         22   -1    0    0    0    0  0.00000000000E+00  0.00000000000E+00  0.42858617130E+03  0.42858617130E+03  0.00000000000E+00 0. -1.
         22   -1    0    0    0    0 -0.00000000000E+00 -0.00000000000E+00 -0.18509626224E+03  0.18509626224E+03  0.00000000000E+00 0. -1.
        -24    2    1    2    0    0 -0.23050968482E+02 -0.10430939173E+02 -0.12480250310E+03  0.15033472876E+03  0.79904406965E+02 0.  0.
         25    2    1    2    0    0  0.14884848125E+02  0.70012625110E+02  0.96062198359E+02  0.17320029756E+03  0.12508825181E+03 0.  0.
         24    2    1    2    0    0  0.81661203574E+01 -0.59581685937E+02  0.27223021380E+03  0.29014740722E+03  0.80371423939E+02 0.  0.
        -13    1    5    5    0    0  0.10125679262E+02  0.17616684082E+02  0.32918936843E+02  0.38685053205E+02  0.00000000000E+00 0.  1.
         14    1    5    5    0    0 -0.19595589042E+01 -0.77198370019E+02  0.23931127696E+03  0.25146235401E+03  0.00000000000E+00 0. -1.
         13    1    3    3    0    0  0.98282826899E+01 -0.37358586928E+02 -0.78469654295E+02  0.87462825264E+02  0.00000000000E+00 0. -1.
        -14    1    3    3    0    0 -0.32879251172E+02  0.26927647755E+02 -0.46332848803E+02  0.62871903498E+02  0.00000000000E+00 0.  1.
          5    1    4    4  501    0 -0.53543897880E+02  0.22338630369E+02  0.24081668165E+02  0.62955242423E+02  0.41800000000E+01 0.  1.
         -5    1    4    4    0  501  0.68428746005E+02  0.47673994741E+02  0.71980530194E+02  0.11024505513E+03  0.41800000000E+01 0.  1.
</event>
<event>
11    1  0.8551154E-009  0.1435905E+03  0.7561462E-02  0.1103614E+00
         22   -1    0    0    0    0  0.00000000000E+00  0.00000000000E+00  0.24617944635E+04  0.24617944635E+04  0.00000000000E+00 0. -1.
         22   -1    0    0    0    0 -0.00000000000E+00 -0.00000000000E+00 -0.52958294608E+02  0.52958294608E+02  0.00000000000E+00 0. -1.
        -24    2    1    2    0    0  0.60150788009E+02 -0.33212136753E+02  0.22080803035E+02  0.10838266864E+03  0.80858380349E+02 0.  0.
         25    2    1    2    0    0 -0.68203544690E+02  0.61222699083E+02  0.68227732453E+03  0.69967777366E+03  0.12508675785E+03 0.  0.
         24    2    1    2    0    0  0.80527566808E+01 -0.28010562330E+02  0.17044780414E+04  0.17066923158E+04  0.81876913744E+02 0.  0.
        -13    1    5    5    0    0  0.21331561118E+02 -0.50725746471E+02  0.83211034388E+03  0.83392791130E+03  0.00000000000E+00 0.  1.
         14    1    5    5    0    0 -0.13278804437E+02  0.22715184141E+02  0.87236769748E+03  0.87276440455E+03  0.00000000000E+00 0. -1.
         13    1    3    3    0    0  0.63232183023E+02 -0.23840693078E+02 -0.15664887757E+02  0.69369130921E+02  0.00000000000E+00 0. -1.
        -14    1    3    3    0    0 -0.30813950138E+01 -0.93714436748E+01  0.37745690793E+02  0.39013537717E+02  0.00000000000E+00 0.  1.
          5    1    4    4  501    0 -0.41460126883E+02  0.38295685259E+01  0.54551622945E+02  0.68752888537E+02  0.41800000000E+01 0. -1.
         -5    1    4    4    0  501 -0.26743417807E+02  0.57393130557E+02  0.62772570159E+03  0.63092488512E+03  0.41800000000E+01 0. -1.
</event>
<event>
11    1  0.8551154E-009  0.2389826E+03  0.7561462E-02  0.1029938E+00
         22   -1    0    0    0    0  0.00000000000E+00  0.00000000000E+00  0.43337692600E+03  0.43337692600E+03  0.00000000000E+00 0. -1.
         22   -1    0    0    0    0 -0.00000000000E+00 -0.00000000000E+00 -0.54841835925E+03  0.54841835925E+03  0.00000000000E+00 0. -1.
         24    2    1    2    0    0  0.20914622760E+03  0.19245918231E+01 -0.32751667076E+03  0.39679867298E+03  0.80225735781E+02 0.  0.
         25    2    1    2    0    0 -0.19196754482E+03  0.13454803813E+02 -0.10810480249E+03  0.25370589809E+03  0.12508982530E+03 0.  0.
        -24    2    1    2    0    0 -0.17178682780E+02 -0.15379395636E+02  0.32058004001E+03  0.33129071418E+03  0.80314023024E+02 0.  0.
        -11    1    3    3    0    0 -0.27589803305E+01  0.99105516646E+01 -0.68551729450E+01  0.12362216746E+02  0.00000000000E+00 0.  1.
         12    1    3    3    0    0  0.21190520793E+03 -0.79859598414E+01 -0.32066149782E+03  0.38443645624E+03  0.00000000000E+00 0. -1.
         11    1    5    5    0    0  0.25231862877E+02 -0.16081874249E+00  0.21530233296E+03  0.21677584585E+03  0.00000000000E+00 0. -1.
        -12    1    5    5    0    0 -0.42410545657E+02 -0.15218576894E+02  0.10527770705E+03  0.11451486832E+03  0.00000000000E+00 0.  1.
          5    1    4    4  501    0 -0.10480636721E+03  0.78257570627E+01 -0.12632927196E+03  0.16438422806E+03  0.41800000000E+01 0.  1.
         -5    1    4    4    0  501 -0.87161177612E+02  0.56290467503E+01  0.18224469466E+02  0.89321670032E+02  0.41800000000E+01 0.  1.
</event>
<event>
11    1  0.8551154E-009  0.1718380E+03  0.7561462E-02  0.1076443E+00
         22   -1    0    0    0    0  0.00000000000E+00  0.00000000000E+00  0.30578967072E+04  0.30578967072E+04  0.00000000000E+00 0. -1.
         22   -1    0    0    0    0 -0.00000000000E+00 -0.00000000000E+00 -0.57560873557E+02  0.57560873557E+02  0.00000000000E+00 0. -1.
         24    2    1    2    0    0 -0.69686291987E+02  0.25222471354E+02  0.84473772560E+02  0.13828368038E+03  0.80586634477E+02 0.  0.
         25    2    1    2    0    0  0.16634116218E+03  0.36961045242E+02  0.36010361641E+03  0.41756235544E+03  0.12509278567E+03 0.  0.
        -24    2    1    2    0    0 -0.96654870194E+02 -0.62183516596E+02  0.25557584446E+04  0.25596115449E+04  0.80629273826E+02 0.  0.
        -13    1    3    3    0    0 -0.10898390153E+02  0.40417509761E+02  0.11619990505E+02  0.43443919972E+02  0.00000000000E+00 0.  1.
         14    1    3    3    0    0 -0.58787901834E+02 -0.15195038407E+02  0.72853782054E+02  0.94839760406E+02  0.00000000000E+00 0. -1.
         11    1    5    5    0    0 -0.47027453673E+02 -0.43151757286E+02  0.20644524976E+04  0.20654388808E+04  0.00000000000E+00 0. -1.
        -12    1    5    5    0    0 -0.49627416520E+02 -0.19031759309E+02  0.49130594706E+03  0.49417266411E+03  0.00000000000E+00 0.  1.
          5    1    4    4  501    0  0.14707634700E+03 -0.17825530099E+02  0.21426758672E+03  0.26053267067E+03  0.41800000000E+01 0. -1.
         -5    1    4    4    0  501  0.19264815181E+02  0.54786575340E+02  0.14583602969E+03  0.15702968476E+03  0.41800000000E+01 0. -1.
</event>
<event>
11    1  0.8551154E-009  0.2145947E+03  0.7561462E-02  0.1044657E+00
         22   -1    0    0    0    0  0.00000000000E+00  0.00000000000E+00  0.24251361856E+03  0.24251361856E+03  0.00000000000E+00 0. -1.
         22   -1    0    0    0    0 -0.00000000000E+00 -0.00000000000E+00 -0.12386644641E+04  0.12386644641E+04  0.00000000000E+00 0. -1.
        -24    2    1    2    0    0  0.24894234795E+02 -0.10519977826E+02 -0.10648703348E+04  0.10682327539E+04  0.80262031375E+02 0.  0.
         25    2    1    2    0    0 -0.25753102310E+02  0.17954450079E+03  0.39776648744E+02  0.22389843470E+03  0.12509547247E+03 0.  0.
         24    2    1    2    0    0  0.85886751529E+00 -0.16902452297E+03  0.28942840527E+02  0.18904689406E+03  0.79567663774E+02 0.  0.
        -11    1    5    5    0    0  0.25157014053E+02 -0.12485693722E+03 -0.63273962235E+01  0.12752319817E+03  0.00000000000E+00 0.  1.
         12    1    5    5    0    0 -0.24298146538E+02 -0.44167585749E+02  0.35270236750E+02  0.61523695894E+02  0.00000000000E+00 0. -1.
         11    1    3    3    0    0  0.17396414115E+02 -0.20565031094E+02 -0.10403100101E+04  0.10406586726E+04  0.00000000000E+00 0. -1.
        -12    1    3    3    0    0  0.74978206800E+01  0.10045053268E+02 -0.24560324740E+02  0.27574081334E+02  0.00000000000E+00 0.  1.
          5    1    4    4  501    0 -0.21186495690E+02  0.11151800492E+03 -0.38566427595E+02  0.11995822089E+03  0.41800000000E+01 0.  1.
         -5    1    4    4    0  501 -0.45666066198E+01  0.68026495872E+02  0.78343076339E+02  0.10394021381E+03  0.41800000000E+01 0.  1.
</event>
<event>
11    1  0.8551154E-009  0.1323836E+03  0.7561462E-02  0.1116374E+00
         22   -1    0    0    0    0  0.00000000000E+00  0.00000000000E+00  0.14551184153E+04  0.14551184153E+04  0.00000000000E+00 0. -1.
         22   -1    0    0    0    0 -0.00000000000E+00 -0.00000000000E+00 -0.17884824375E+03  0.17884824375E+03  0.00000000000E+00 0. -1.
         24    2    1    2    0    0  0.13837651133E+02 -0.16291619747E+02 -0.14820611449E+03  0.17023989177E+03  0.80991795354E+02 0.  0.
         25    2    1    2    0    0 -0.86484301433E+01 -0.28112117156E+02  0.21029453600E+03  0.24645121142E+03  0.12509724723E+03 0.  0.
        -24    2    1    2    0    0 -0.51892209899E+01  0.44403736903E+02  0.12141817500E+04  0.12172755559E+04  0.74322519476E+02 0.  0.
        -11    1    3    3    0    0  0.23131600881E+02  0.23322211110E+02 -0.27433464560E+02  0.42797096492E+02  0.00000000000E+00 0.  1.
         12    1    3    3    0    0 -0.92939497475E+01 -0.39613830858E+02 -0.12077264993E+03  0.12744279527E+03  0.00000000000E+00 0. -1.
         11    1    5    5    0    0 -0.34852037564E+02  0.26324412164E+02  0.92235059588E+03  0.92338413508E+03  0.00000000000E+00 0. -1.
        -12    1    5    5    0    0  0.29662816574E+02  0.18079324739E+02  0.29183115417E+03  0.29389142079E+03  0.00000000000E+00 0.  1.
          5    1    4    4  501    0  0.21810746375E+01  0.19953538733E+02  0.19297062949E+03  0.19405678818E+03  0.41800000000E+01 0. -1.
         -5    1    4    4    0  501 -0.10829504781E+02 -0.48065655888E+02  0.17323906510E+02  0.52394423239E+02  0.41800000000E+01 0. -1.
</event>
<event>
11    1  0.8551154E-009  0.2802647E+03  0.7561462E-02  0.1008908E+00
         22   -1    0    0    0    0  0.00000000000E+00  0.00000000000E+00  0.65717668650E+03  0.65717668650E+03  0.00000000000E+00 0. -1.
         22   -1    0    0    0    0 -0.00000000000E+00 -0.00000000000E+00 -0.67692557568E+03  0.67692557568E+03  0.00000000000E+00 0.  1.
        -24    2    1    2    0    0 -0.14997615103E+03 -0.19603146428E+03 -0.54764862023E+03  0.60608712065E+03  0.80631294891E+02 0.  0.
         25    2    1    2    0    0  0.27253830745E+03  0.18627224317E+03  0.40371641627E+03  0.53629189760E+03  0.12509027565E+03 0.  0.
         24    2    1    2    0    0 -0.12256215642E+03  0.97592211036E+01  0.12418331477E+03  0.19172324393E+03  0.78864326608E+02 0.  0.
        -11    1    5    5    0    0 -0.80007735549E+02 -0.28443119933E+02  0.51764006487E+02  0.99447278428E+02  0.00000000000E+00 0.  1.
         12    1    5    5    0    0 -0.42554420871E+02  0.38202341036E+02  0.72419308286E+02  0.92275965500E+02  0.00000000000E+00 0. -1.
         11    1    3    3    0    0 -0.10398599776E+03 -0.15112290116E+03 -0.31301610191E+03  0.36280890155E+03  0.00000000000E+00 0. -1.
        -12    1    3    3    0    0 -0.45990153262E+02 -0.44908563120E+02 -0.23463251831E+03  0.24327821910E+03  0.00000000000E+00 0.  1.
          5    1    4    4  501    0  0.21882561583E+03  0.12436149113E+03  0.37011868643E+03  0.44761115387E+03  0.41800000000E+01 0.  1.
         -5    1    4    4    0  501  0.53712691614E+02  0.61910752042E+02  0.33597729841E+02  0.88680743734E+02  0.41800000000E+01 0.  1.
</event>
<event>
11    1  0.8551154E-009  0.1428400E+03  0.7561462E-02  0.1104428E+00
         22   -1    0    0    0    0  0.00000000000E+00  0.00000000000E+00  0.60624532279E+03  0.60624532279E+03  0.00000000000E+00 0. -1.
         22   -1    0    0    0    0 -0.00000000000E+00 -0.00000000000E+00 -0.14941566217E+03  0.14941566217E+03  0.00000000000E+00 0. -1.
         24    2    1    2    0    0 -0.46904290659E+02  0.66040447536E+02 -0.70035747435E+02  0.13432626858E+03  0.81099860164E+02 0.  0.
         25    2    1    2    0    0  0.43991199013E+02 -0.22735091674E+01  0.64195463927E+02  0.14733914679E+03  0.12508945661E+03 0.  0.
        -24    2    1    2    0    0  0.29130916464E+01 -0.63766938369E+02  0.46266994414E+03  0.47399556959E+03  0.80830775372E+02 0.  0.
        -13    1    3    3    0    0  0.23146889572E+02  0.12265985370E+02 -0.18602497099E+02  0.32129204663E+02  0.00000000000E+00 0.  1.
         14    1    3    3    0    0 -0.70051180231E+02  0.53774462166E+02 -0.51433250336E+02  0.10219706392E+03  0.00000000000E+00 0. -1.
         11    1    5    5    0    0  0.40195358181E+01 -0.82058627225E+02  0.41205206752E+03  0.42016268434E+03  0.00000000000E+00 0. -1.
        -12    1    5    5    0    0 -0.11064441718E+01  0.18291688856E+02  0.50617876620E+02  0.53832885241E+02  0.00000000000E+00 0.  1.
          5    1    4    4  501    0  0.26934275626E+02 -0.50459534993E+02  0.75509311877E+02  0.94819557347E+02  0.41800000000E+01 0.  1.
         -5    1    4    4    0  501  0.17056923387E+02  0.48186025826E+02 -0.11313847950E+02  0.52519589447E+02  0.41800000000E+01 0.  1.
</event>
<event>
11    1  0.1621416E-008  0.1611262E+03  0.7561462E-02  0.1086023E+00
         22   -1    0    0    0    0  0.00000000000E+00  0.00000000000E+00  0.29606920832E+03  0.29606920832E+03  0.00000000000E+00 0.  1.
         22   -1    0    0    0    0 -0.00000000000E+00 -0.00000000000E+00 -0.47414998082E+03  0.47414998082E+03  0.00000000000E+00 0. -1.
         24    2    1    2    0    0  0.58874839892E+02 -0.34038515598E+02 -0.28297494617E+03  0.30247606847E+03  0.82414103885E+02 0.  0.
         25    2    1    2    0    0 -0.54979825486E+02  0.13225828677E+03 -0.10887343328E+03  0.21915177748E+03  0.12513609179E+03 0.  0.
        -24    2    1    2    0    0 -0.38950144064E+01 -0.98219771169E+02  0.21376760695E+03  0.24859134318E+03  0.80241956213E+02 0.  0.
        -11    1    3    3    0    0  0.22843141279E+02  0.98085124827E+01 -0.16064431536E+02  0.29598682085E+02  0.00000000000E+00 0.  1.
         12    1    3    3    0    0  0.36031698614E+02 -0.43847028081E+02 -0.26691051464E+03  0.27287738639E+03  0.00000000000E+00 0. -1.
         13    1    5    5    0    0 -0.35472588219E+02 -0.70429489034E+02  0.10036935475E+03  0.12764256662E+03  0.00000000000E+00 0. -1.
        -14    1    5    5    0    0  0.31577573813E+02 -0.27790282134E+02  0.11339825220E+03  0.12094877656E+03  0.00000000000E+00 0.  1.
          5    1    4    4  501    0 -0.63286363794E+02  0.65371513790E+01 -0.43093697061E+02  0.76957373375E+02  0.41800000000E+01 0. -1.
         -5    1    4    4    0  501  0.83065383077E+01  0.12572113539E+03 -0.65779736220E+02  0.14219440411E+03  0.41800000000E+01 0. -1.
</event>
<event>
11    1  0.8551154E-009  0.1346214E+03  0.7561462E-02  0.1113718E+00
         22   -1    0    0    0    0  0.00000000000E+00  0.00000000000E+00  0.79983406121E+03  0.79983406121E+03  0.00000000000E+00 0.  1.
         22   -1    0    0    0    0 -0.00000000000E+00 -0.00000000000E+00 -0.65214912400E+03  0.65214912400E+03  0.00000000000E+00 0. -1.
         24    2    1    2    0    0  0.29455099790E+02 -0.34042878208E+02 -0.52353152532E+03  0.53125865935E+03  0.78255892232E+02 0.  0.
         25    2    1    2    0    0  0.30126126105E+01 -0.50492229254E+01 -0.89628472181E+02  0.15399712674E+03  0.12508909438E+03 0.  0.
        -24    2    1    2    0    0 -0.32467712400E+02  0.39092101134E+02  0.76084493471E+03  0.76672739911E+03  0.80022154184E+02 0.  0.
        -11    1    3    3    0    0  0.35403498179E+02 -0.36428918623E+02 -0.16438470355E+03  0.17205465573E+03  0.00000000000E+00 0.  1.
         12    1    3    3    0    0 -0.59483983897E+01  0.23860404143E+01 -0.35914682176E+03  0.35920400362E+03  0.00000000000E+00 0. -1.
         13    1    5    5    0    0 -0.59207806606E+02  0.25467215126E+02  0.54794188249E+03  0.55171953925E+03  0.00000000000E+00 0. -1.
        -14    1    5    5    0    0  0.26740094206E+02  0.13624886008E+02  0.21290305222E+03  0.21500785986E+03  0.00000000000E+00 0.  1.
          5    1    4    4  501    0 -0.45397461258E+02  0.30151034820E+02 -0.12132072905E+02  0.55988159306E+02  0.41800000000E+01 0. -1.
         -5    1    4    4    0  501  0.48410073869E+02 -0.35200257746E+02 -0.77496399276E+02  0.98008967437E+02  0.41800000000E+01 0. -1.
</event>
<event>
11    1  0.8551154E-009  0.1555823E+03  0.7561462E-02  0.1091307E+00
         22   -1    0    0    0    0  0.00000000000E+00  0.00000000000E+00  0.32652405971E+03  0.32652405971E+03  0.00000000000E+00 0.  1.
         22   -1    0    0    0    0 -0.00000000000E+00 -0.00000000000E+00 -0.25207848594E+03  0.25207848594E+03  0.00000000000E+00 0. -1.
         24    2    1    2    0    0 -0.39632650603E+01  0.89966797213E+02 -0.15512797571E+03  0.19690703599E+03  0.81227827146E+02 0.  0.
         25    2    1    2    0    0 -0.30222249567E+01 -0.10403805399E+03  0.29168603644E+02  0.16533105056E+03  0.12510195171E+03 0.  0.
        -24    2    1    2    0    0  0.69854900170E+01  0.14071256775E+02  0.20040494584E+03  0.21636445910E+03  0.80028991662E+02 0.  0.
        -13    1    3    3    0    0 -0.68255854284E+01  0.40658383519E+02 -0.83803966881E+01  0.42070462506E+02  0.00000000000E+00 0.  1.
         14    1    3    3    0    0  0.28623203681E+01  0.49308413694E+02 -0.14674757902E+03  0.15483657348E+03  0.00000000000E+00 0. -1.
         11    1    5    5    0    0  0.19408383364E+02  0.63514281226E+01  0.58252195305E+01  0.21235799175E+02  0.00000000000E+00 0. -1.
        -12    1    5    5    0    0 -0.12422893347E+02  0.77198286522E+01  0.19457972631E+03  0.19512865992E+03  0.00000000000E+00 0.  1.
          5    1    4    4  501    0 -0.49739529693E+02 -0.10069799917E+03  0.50986631536E+01  0.11250589592E+03  0.41800000000E+01 0. -1.
         -5    1    4    4    0  501  0.46717304736E+02 -0.33400548192E+01  0.24069940491E+02  0.52825154645E+02  0.41800000000E+01 0. -1.
</event>
<event>
11    1  0.8551154E-009  0.1456916E+03  0.7561462E-02  0.1101364E+00
         22   -1    0    0    0    0  0.00000000000E+00  0.00000000000E+00  0.15080816596E+03  0.15080816596E+03  0.00000000000E+00 0. -1.
         22   -1    0    0    0    0 -0.00000000000E+00 -0.00000000000E+00 -0.65658475119E+03  0.65658475119E+03  0.00000000000E+00 0.  1.
         24    2    1    2    0    0  0.19954369615E+01 -0.32466461797E+02 -0.49077208485E+03  0.49833763846E+03  0.80156782173E+02 0.  0.
         25    2    1    2    0    0 -0.58703952097E+02 -0.21105778259E+02 -0.99232511648E+02  0.17142382524E+03  0.12508968233E+03 0.  0.
        -24    2    1    2    0    0  0.56708515136E+02  0.53572240056E+02  0.84228011262E+02  0.13763145345E+03  0.75909278113E+02 0.  0.
        -11    1    3    3    0    0 -0.85072755609E+01 -0.68871310299E+01 -0.44303560282E+03  0.44317079289E+03  0.00000000000E+00 0.  1.
         12    1    3    3    0    0  0.10502712522E+02 -0.25579330767E+02 -0.47736482031E+02  0.55166845565E+02  0.00000000000E+00 0. -1.
         11    1    5    5    0    0 -0.21700605086E+01  0.49689602149E+02  0.35514834747E+02  0.61115212602E+02  0.00000000000E+00 0. -1.
        -12    1    5    5    0    0  0.58878575644E+02  0.38826379069E+01  0.48713176515E+02  0.76516240846E+02  0.00000000000E+00 0.  1.
          5    1    4    4  501    0 -0.55161045524E+02 -0.56288646603E+02 -0.15492385998E+02  0.80427850299E+02  0.41800000000E+01 0.  1.
         -5    1    4    4    0  501 -0.35429065728E+01  0.35182868345E+02 -0.83740125651E+02  0.90995974943E+02  0.41800000000E+01 0.  1.
</event>
<event>
11    1  0.8551154E-009  0.1316474E+03  0.7561462E-02  0.1117261E+00
         22   -1    0    0    0    0  0.00000000000E+00  0.00000000000E+00  0.16973827575E+03  0.16973827575E+03  0.00000000000E+00 0. -1.
         22   -1    0    0    0    0 -0.00000000000E+00 -0.00000000000E+00 -0.12024868943E+04  0.12024868943E+04  0.00000000000E+00 0. -1.
         24    2    1    2    0    0 -0.25254976445E+02 -0.78428950168E+01 -0.10438221351E+04  0.10473794009E+04  0.82095278724E+02 0.  0.
         25    2    1    2    0    0  0.56842698654E+02 -0.15125112098E+02 -0.10328130160E+03  0.17254863930E+03  0.12508454843E+03 0.  0.
        -24    2    1    2    0    0 -0.31587722209E+02  0.22968007115E+02  0.11435481816E+03  0.15229712987E+03  0.92693461386E+02 0.  0.
        -11    1    3    3    0    0 -0.19296397113E+02 -0.10650231057E+02 -0.66941120162E+02  0.70476179888E+02  0.00000000000E+00 0.  1.
         12    1    3    3    0    0 -0.59585793322E+01  0.28073360401E+01 -0.97688101498E+03  0.97690322101E+03  0.00000000000E+00 0. -1.
         13    1    5    5    0    0 -0.15071732218E+02  0.53090401286E+02  0.10165870325E+03  0.11567298633E+03  0.00000000000E+00 0. -1.
        -14    1    5    5    0    0 -0.16515989991E+02 -0.30122394171E+02  0.12696114918E+02  0.36624143539E+02  0.00000000000E+00 0.  1.
          5    1    4    4  501    0  0.66275092329E+02 -0.19469255767E+02 -0.54485535080E+00  0.69204111516E+02  0.41800000000E+01 0. -1.
         -5    1    4    4    0  501 -0.94323936751E+01  0.43441436683E+01 -0.10273644625E+03  0.10334452778E+03  0.41800000000E+01 0. -1.
</event>
<event>
11    1  0.8551154E-009  0.3726085E+03  0.7561462E-02  0.9734225E-01
         22   -1    0    0    0    0  0.00000000000E+00  0.00000000000E+00  0.35597901065E+03  0.35597901065E+03  0.00000000000E+00 0. -1.
         22   -1    0    0    0    0 -0.00000000000E+00 -0.00000000000E+00 -0.75972974955E+03  0.75972974955E+03  0.00000000000E+00 0. -1.
         24    2    1    2    0    0  0.33755337901E+03  0.14127323340E+03 -0.35392040194E+03  0.51580012416E+03  0.83004259006E+02 0.  0.
         25    2    1    2    0    0 -0.22464391076E+03 -0.27811906786E+03  0.46886093165E+02  0.38165528985E+03  0.12508937601E+03 0.  0.
        -24    2    1    2    0    0 -0.11290946825E+03  0.13684583446E+03 -0.96716430123E+02  0.21825334620E+03  0.82493180574E+02 0.  0.
        -11    1    3    3    0    0  0.27331422526E+03  0.10835420321E+03 -0.32441487033E+03  0.43781994835E+03  0.00000000000E+00 0.  1.
         12    1    3    3    0    0  0.64239153751E+02  0.32919030194E+02 -0.29505531617E+02  0.77980175811E+02  0.00000000000E+00 0. -1.
         11    1    5    5    0    0 -0.10028246838E+03  0.67243432484E+02 -0.82131759795E+02  0.14602697916E+03  0.00000000000E+00 0. -1.
        -12    1    5    5    0    0 -0.12626999874E+02  0.69602401976E+02 -0.14584670328E+02  0.72226367036E+02  0.00000000000E+00 0.  1.
          5    1    4    4  501    0 -0.49313916611E+02 -0.22087131738E+02  0.46354511121E+02  0.71315614428E+02  0.41800000000E+01 0.  1.
         -5    1    4    4    0  501 -0.17532999415E+03 -0.25603193612E+03  0.53158204331E+00  0.31033967542E+03  0.41800000000E+01 0.  1.
</event>
<event>
11    1  0.8551154E-009  0.1310130E+03  0.7561462E-02  0.1118031E+00
         22   -1    0    0    0    0  0.00000000000E+00  0.00000000000E+00  0.85279105851E+03  0.85279105851E+03  0.00000000000E+00 0.  1.
         22   -1    0    0    0    0 -0.00000000000E+00 -0.00000000000E+00 -0.83062598453E+03  0.83062598453E+03  0.00000000000E+00 0. -1.
         24    2    1    2    0    0 -0.35157365677E+02 -0.11954653434E+02 -0.58231188381E+03  0.58896985714E+03  0.80121211286E+02 0.  0.
         25    2    1    2    0    0  0.73685168265E+02  0.12507000405E+02 -0.22030184551E+03  0.26413561359E+03  0.12509512441E+03 0.  0.
        -24    2    1    2    0    0 -0.38527802588E+02 -0.55234697034E+00  0.82477880330E+03  0.83031157229E+03  0.87593013730E+02 0.  0.
        -11    1    3    3    0    0  0.15719395337E+02  0.22074586397E+02 -0.17973932262E+03  0.18177076457E+03  0.00000000000E+00 0.  1.
         12    1    3    3    0    0 -0.50876761014E+02 -0.34029239831E+02 -0.40257256119E+03  0.40719909258E+03  0.00000000000E+00 0. -1.
         13    1    5    5    0    0 -0.15892654295E+02  0.42574687593E+02  0.32434961447E+03  0.32751771386E+03  0.00000000000E+00 0. -1.
        -14    1    5    5    0    0 -0.22635148293E+02 -0.43127034563E+02  0.50042918883E+03  0.50279385843E+03  0.00000000000E+00 0.  1.
          5    1    4    4  501    0 -0.20509421024E+02  0.16591335918E+02 -0.13272556191E+03  0.13538632118E+03  0.41800000000E+01 0. -1.
         -5    1    4    4    0  501  0.94194589289E+02 -0.40843355136E+01 -0.87576283605E+02  0.12874929242E+03  0.41800000000E+01 0. -1.
</event>
<event>
11    1  0.8551154E-009  0.2318655E+03  0.7561462E-02  0.1034029E+00
         22   -1    0    0    0    0  0.00000000000E+00  0.00000000000E+00  0.16700580864E+04  0.16700580864E+04  0.00000000000E+00 0. -1.
         22   -1    0    0    0    0 -0.00000000000E+00 -0.00000000000E+00 -0.17705480357E+03  0.17705480357E+03  0.00000000000E+00 0.  1.
        -24    2    1    2    0    0 -0.10482306611E+03 -0.37059253789E+02  0.74201936293E+02  0.15637486200E+03  0.81153599022E+02 0.  0.
         25    2    1    2    0    0  0.25599499889E+03  0.15076142622E+03  0.74435012356E+02  0.33083329449E+03  0.12509056954E+03 0.  0.
         24    2    1    2    0    0 -0.15117193277E+03 -0.11370217243E+03  0.13443663342E+04  0.13599047335E+04  0.78986748103E+02 0.  0.
        -13    1    5    5    0    0 -0.52282378343E+02  0.24047308458E+01  0.32214624282E+03  0.32637008377E+03  0.00000000000E+00 0.  1.
         14    1    5    5    0    0 -0.98889554432E+02 -0.11610690328E+03  0.10222200914E+04  0.10335346498E+04  0.00000000000E+00 0. -1.
         11    1    3    3    0    0 -0.52015308768E+02 -0.40132776014E+02  0.79591512320E+02  0.10320388021E+03  0.00000000000E+00 0. -1.
        -12    1    3    3    0    0 -0.52807757342E+02  0.30735222255E+01 -0.53895760265E+01  0.53170981787E+02  0.00000000000E+00 0.  1.
          5    1    4    4  501    0  0.12675553441E+03  0.11169449349E+02  0.22896809138E+01  0.12733592243E+03  0.41800000000E+01 0.  1.
         -5    1    4    4    0  501  0.12923946447E+03  0.13959197687E+03  0.72145331442E+02  0.20349737205E+03  0.41800000000E+01 0.  1.
</event>
<event>
11    1  0.8551154E-009  0.1332625E+03  0.7561462E-02  0.1115324E+00
         22   -1    0    0    0    0  0.00000000000E+00  0.00000000000E+00  0.20996653102E+03  0.20996653102E+03  0.00000000000E+00 0. -1.
         22   -1    0    0    0    0 -0.00000000000E+00 -0.00000000000E+00 -0.32764608557E+04  0.32764608557E+04  0.00000000000E+00 0.  1.
        -24    2    1    2    0    0  0.66494263222E+01 -0.41394427817E+02 -0.31585658586E+04  0.31598423010E+04  0.79418956559E+02 0.  0.
         25    2    1    2    0    0  0.31774357837E+02  0.63008227862E+02 -0.54319139996E+02  0.15355006835E+03  0.12508959959E+03 0.  0.
         24    2    1    2    0    0 -0.38423784159E+02 -0.21613800045E+02  0.14639067388E+03  0.17303501738E+03  0.81039152869E+02 0.  0.
        -11    1    5    5    0    0 -0.44145419262E+01  0.23479059131E+02  0.10931429768E+02  0.26272619871E+02  0.00000000000E+00 0.  1.
         12    1    5    5    0    0 -0.34009242233E+02 -0.45092859176E+02  0.13545924411E+03  0.14676239751E+03  0.00000000000E+00 0. -1.
         11    1    3    3    0    0 -0.56325167107E+01  0.98078796411E+01 -0.76961423568E+02  0.77788048344E+02  0.00000000000E+00 0. -1.
        -12    1    3    3    0    0  0.12281943033E+02 -0.51202307458E+02 -0.30816044350E+04  0.30820542527E+04  0.00000000000E+00 0.  1.
          5    1    4    4  501    0  0.67766080401E+02  0.60083509327E+01 -0.21282056764E+01  0.68193427787E+02  0.41800000000E+01 0. -1.
         -5    1    4    4    0  501 -0.35991722565E+02  0.56999876929E+02 -0.52190934319E+02  0.85356640563E+02  0.41800000000E+01 0. -1.
</event>
<event>
11    1  0.8551154E-009  0.1322706E+03  0.7561462E-02  0.1116510E+00
         22   -1    0    0    0    0  0.00000000000E+00  0.00000000000E+00  0.22288131519E+04  0.22288131519E+04  0.00000000000E+00 0. -1.
         22   -1    0    0    0    0 -0.00000000000E+00 -0.00000000000E+00 -0.25846818096E+03  0.25846818096E+03  0.00000000000E+00 0. -1.
         24    2    1    2    0    0  0.30810753044E+02  0.28433810728E+02 -0.23303623182E+03  0.25045910935E+03  0.81646163511E+02 0.  0.
         25    2    1    2    0    0 -0.71587996010E+02 -0.55243699597E+02  0.36647028400E+03  0.39764772228E+03  0.12508610818E+03 0.  0.
        -24    2    1    2    0    0  0.40777242966E+02  0.26809888869E+02  0.18369109187E+04  0.18391745012E+04  0.77068598175E+02 0.  0.
        -11    1    3    3    0    0  0.39868124850E+02  0.21483736048E+02 -0.51565364506E+02  0.68629476978E+02  0.00000000000E+00 0.  1.
         12    1    3    3    0    0 -0.90573718059E+01  0.69500746804E+01 -0.18147086732E+03  0.18182963237E+03  0.00000000000E+00 0. -1.
         13    1    5    5    0    0  0.48793674487E+02  0.31286145165E+01  0.16336849139E+04  0.16344164123E+04  0.00000000000E+00 0. -1.
        -14    1    5    5    0    0 -0.80164315218E+01  0.23681274352E+02  0.20322600483E+03  0.20475808890E+03  0.00000000000E+00 0.  1.
          5    1    4    4  501    0  0.13034983328E+02 -0.87984673977E+01  0.22922969575E+03  0.22980654828E+03  0.41800000000E+01 0. -1.
         -5    1    4    4    0  501 -0.84622979338E+02 -0.46445232200E+02  0.13724058825E+03  0.16784117400E+03  0.41800000000E+01 0. -1.
</event>
<event>
11    1  0.8551154E-009  0.4219723E+03  0.7561462E-02  0.9587063E-01
         22   -1    0    0    0    0  0.00000000000E+00  0.00000000000E+00  0.13391877569E+04  0.13391877569E+04  0.00000000000E+00 0. -1.
         22   -1    0    0    0    0 -0.00000000000E+00 -0.00000000000E+00 -0.86296529859E+03  0.86296529859E+03  0.00000000000E+00 0. -1.
        -24    2    1    2    0    0 -0.21755705105E+03 -0.11071182705E+03 -0.64032564874E+03  0.69015805523E+03  0.81933055877E+02 0.  0.
         25    2    1    2    0    0  0.55388905744E+03  0.20395240213E+03  0.44073660009E+03  0.74718525964E+03  0.12508953309E+03 0.  0.
         24    2    1    2    0    0 -0.33633200638E+03 -0.93240575076E+02  0.67581150694E+03  0.76480974059E+03  0.79998268927E+02 0.  0.
        -13    1    5    5    0    0 -0.21672967332E+02  0.79331167206E+01  0.20532043397E+02  0.30890397536E+02  0.00000000000E+00 0.  1.
         14    1    5    5    0    0 -0.31465903905E+03 -0.10117369180E+03  0.65527946354E+03  0.73391934305E+03  0.00000000000E+00 0. -1.
         11    1    3    3    0    0 -0.20534774473E+03 -0.10627284240E+03 -0.51944506447E+03  0.56858138230E+03  0.00000000000E+00 0. -1.
        -12    1    3    3    0    0 -0.12209306322E+02 -0.44389846546E+01 -0.12088058427E+03  0.12157667293E+03  0.00000000000E+00 0.  1.
          5    1    4    4  501    0  0.19716559019E+03  0.13761123581E+02  0.12130864267E+03  0.23194158243E+03  0.41800000000E+01 0. -1.
         -5    1    4    4    0  501  0.35672346725E+03  0.19019127855E+03  0.31942795743E+03  0.51524367721E+03  0.41800000000E+01 0. -1.
</event>
<event>
11    1  0.8551154E-009  0.2043006E+03  0.7561462E-02  0.1051523E+00
         22   -1    0    0    0    0  0.00000000000E+00  0.00000000000E+00  0.12527230687E+04  0.12527230687E+04  0.00000000000E+00 0.  1.
         22   -1    0    0    0    0 -0.00000000000E+00 -0.00000000000E+00 -0.77753528588E+03  0.77753528588E+03  0.00000000000E+00 0. -1.
        -24    2    1    2    0    0 -0.11068019973E+03 -0.11215004612E+03 -0.63373287844E+03  0.65782615470E+03  0.79310460434E+02 0.  0.
         25    2    1    2    0    0  0.72165153494E+02  0.21169707507E+03  0.77290477425E+00  0.25625854445E+03  0.12507750896E+03 0.  0.
         24    2    1    2    0    0  0.38515046238E+02 -0.99547028948E+02  0.11081477565E+04  0.11161736555E+04  0.80368893851E+02 0.  0.
        -11    1    5    5    0    0  0.38237024588E+02 -0.49946248560E+01  0.36643200301E+03  0.36845546428E+03  0.00000000000E+00 0.  1.
         12    1    5    5    0    0  0.27802165067E+00 -0.94552404092E+02  0.74171575351E+03  0.74771819118E+03  0.00000000000E+00 0. -1.
         13    1    3    3    0    0 -0.40940797044E+02 -0.92468183975E+02 -0.42525748581E+03  0.43711605227E+03  0.00000000000E+00 0. -1.
        -14    1    3    3    0    0 -0.69739402688E+02 -0.19681862148E+02 -0.20847539263E+03  0.22071010243E+03  0.00000000000E+00 0.  1.
          5    1    4    4  501    0  0.41861027066E+02  0.23182479280E+02 -0.38163896763E+02  0.61349232666E+02  0.41800000000E+01 0.  1.
         -5    1    4    4    0  501  0.30304126428E+02  0.18851459579E+03  0.38936801537E+02  0.19490931178E+03  0.41800000000E+01 0.  1.
</event>
<event>
11    1  0.8551154E-009  0.2843289E+03  0.7561462E-02  0.1007051E+00
         22   -1    0    0    0    0  0.00000000000E+00  0.00000000000E+00  0.26534662983E+03  0.26534662983E+03  0.00000000000E+00 0. -1.
         22   -1    0    0    0    0 -0.00000000000E+00 -0.00000000000E+00 -0.14930604228E+04  0.14930604228E+04  0.00000000000E+00 0. -1.
         24    2    1    2    0    0 -0.22031371639E+02 -0.23057561940E+03 -0.44573297825E+03  0.50834421702E+03  0.78009342287E+02 0.  0.
         25    2    1    2    0    0  0.91459304959E+02  0.26012729270E+03 -0.97940168329E+03  0.10251374342E+04  0.12509232178E+03 0.  0.
        -24    2    1    2    0    0 -0.69427933319E+02 -0.29551673300E+02  0.19742086857E+03  0.22492540137E+03  0.76960363277E+02 0.  0.
        -11    1    3    3    0    0  0.72932181798E+00 -0.35369497439E+02 -0.14377640437E+03  0.14806480917E+03  0.00000000000E+00 0.  1.
         12    1    3    3    0    0 -0.22760693457E+02 -0.19520612196E+03 -0.30195657388E+03  0.36027940786E+03  0.00000000000E+00 0. -1.
         11    1    5    5    0    0 -0.80267386104E+02 -0.90092496475E+01  0.17453115673E+03  0.19231522176E+03  0.00000000000E+00 0. -1.
        -12    1    5    5    0    0  0.10839452784E+02 -0.20542423652E+02  0.22889711835E+02  0.32610179608E+02  0.00000000000E+00 0.  1.
          5    1    4    4  501    0  0.86871116993E+01 -0.13659702783E+02 -0.52156483498E+02  0.54770654192E+02  0.41800000000E+01 0.  1.
         -5    1    4    4    0  501  0.82772193259E+02  0.27378699548E+03 -0.92724519979E+03  0.97036678004E+03  0.41800000000E+01 0.  1.
</event>
<event>
11    1  0.8551154E-009  0.1615587E+03  0.7561462E-02  0.1085620E+00
         22   -1    0    0    0    0  0.00000000000E+00  0.00000000000E+00  0.16101925179E+04  0.16101925179E+04  0.00000000000E+00 0. -1.
         22   -1    0    0    0    0 -0.00000000000E+00 -0.00000000000E+00 -0.12506878831E+03  0.12506878831E+03  0.00000000000E+00 0.  1.
         24    2    1    2    0    0  0.13308484676E+02  0.33224360149E+02 -0.77330710654E+02  0.11779092299E+03  0.81324589495E+02 0.  0.
         25    2    1    2    0    0  0.73766162080E+02  0.26722961219E+02  0.20014180645E+03  0.24871341696E+03  0.12508420270E+03 0.  0.
        -24    2    1    2    0    0 -0.87074646756E+02 -0.59947321368E+02  0.13623126338E+04  0.13687569662E+04  0.80151388166E+02 0.  0.
        -13    1    3    3    0    0 -0.27472098597E+02 -0.16310520845E+00 -0.53094091211E+02  0.59780643407E+02  0.00000000000E+00 0.  1.
         14    1    3    3    0    0  0.40780583273E+02  0.33387465358E+02 -0.24236619443E+02  0.58010279582E+02  0.00000000000E+00 0. -1.
         11    1    5    5    0    0 -0.67071711162E+02 -0.68518503937E+02  0.12809751646E+04  0.12845585904E+04  0.00000000000E+00 0. -1.
        -12    1    5    5    0    0 -0.20002935594E+02  0.85711825690E+01  0.81337469138E+02  0.84198375808E+02  0.00000000000E+00 0.  1.
          5    1    4    4  501    0 -0.12902095275E+02 -0.24476170786E+02  0.11007330052E+03  0.11357442884E+03  0.41800000000E+01 0. -1.
         -5    1    4    4    0  501  0.86668257356E+02  0.51199132004E+02  0.90068505929E+02  0.13513898812E+03  0.41800000000E+01 0. -1.
</event>
<event>
11    1  0.8551154E-009  0.1463052E+03  0.7561462E-02  0.1100715E+00
         22   -1    0    0    0    0  0.00000000000E+00  0.00000000000E+00  0.23270467465E+03  0.23270467465E+03  0.00000000000E+00 0.  1.
         22   -1    0    0    0    0 -0.00000000000E+00 -0.00000000000E+00 -0.30524729270E+04  0.30524729270E+04  0.00000000000E+00 0. -1.
         24    2    1    2    0    0 -0.65434498575E+02  0.36136477756E+02 -0.28580864440E+04  0.28600832084E+04  0.76356526620E+02 0.  0.
         25    2    1    2    0    0  0.97978481635E+02 -0.85836016373E+02 -0.13482616579E+03  0.22537155785E+03  0.12508652820E+03 0.  0.
        -24    2    1    2    0    0 -0.32543983060E+02  0.49699538616E+02  0.17314435744E+03  0.19972283536E+03  0.79881709275E+02 0.  0.
        -13    1    3    3    0    0 -0.59558966547E+02  0.41001800797E+01 -0.10447803451E+04  0.10464846160E+04  0.00000000000E+00 0.  1.
         14    1    3    3    0    0 -0.58755320275E+01  0.32036297677E+02 -0.18133060989E+04  0.18135985924E+04  0.00000000000E+00 0. -1.
         11    1    5    5    0    0  0.17151523169E+02  0.40720994879E+02  0.11212171870E+03  0.12051412355E+03  0.00000000000E+00 0. -1.
        -12    1    5    5    0    0 -0.49695506229E+02  0.89785437373E+01  0.61022638745E+02  0.79208711809E+02  0.00000000000E+00 0.  1.
          5    1    4    4  501    0 -0.18452006510E+01  0.15142033011E+02  0.12913362848E+02  0.20418454133E+02  0.41800000000E+01 0.  1.
         -5    1    4    4    0  501  0.99823682286E+02 -0.10097804938E+03 -0.14773952864E+03  0.20495310372E+03  0.41800000000E+01 0.  1.
</event>
<event>
11    1  0.8551154E-009  0.1708613E+03  0.7561462E-02  0.1077285E+00
         22   -1    0    0    0    0  0.00000000000E+00  0.00000000000E+00  0.57845042289E+03  0.57845042289E+03  0.00000000000E+00 0. -1.
         22   -1    0    0    0    0 -0.00000000000E+00 -0.00000000000E+00 -0.20388232150E+04  0.20388232150E+04  0.00000000000E+00 0.  1.
         24    2    1    2    0    0  0.31934531031E+02  0.37820070261E+01 -0.19301735939E+04  0.19322657712E+04  0.83945161129E+02 0.  0.
         25    2    1    2    0    0 -0.11445978158E+03  0.75547752205E+02 -0.93976093724E+01  0.18586280156E+03  0.12509261162E+03 0.  0.
        -24    2    1    2    0    0  0.82525250545E+02 -0.79329759231E+02  0.47919841112E+03  0.49914506517E+03  0.80069040086E+02 0.  0.
        -11    1    3    3    0    0  0.72251101068E+01  0.42965082872E+02 -0.92906285867E+03  0.93008386499E+03  0.00000000000E+00 0.  1.
         12    1    3    3    0    0  0.24709420924E+02 -0.39183075846E+02 -0.10011107352E+04  0.10021819062E+04  0.00000000000E+00 0. -1.
         11    1    5    5    0    0  0.41360444359E+02 -0.52024855034E+02  0.40226356753E+03  0.40771711966E+03  0.00000000000E+00 0. -1.
        -12    1    5    5    0    0  0.41164806186E+02 -0.27304904197E+02  0.76934843593E+02  0.91427945510E+02  0.00000000000E+00 0.  1.
          5    1    4    4  501    0 -0.77016274690E+02  0.11012941860E+03 -0.52700916436E+01  0.13455571959E+03  0.41800000000E+01 0. -1.
         -5    1    4    4    0  501 -0.37443506886E+02 -0.34581666393E+02 -0.41275177289E+01  0.51307081977E+02  0.41800000000E+01 0. -1.
</event>
<event>
11    1  0.8551154E-009  0.1346460E+03  0.7561462E-02  0.1113689E+00
         22   -1    0    0    0    0  0.00000000000E+00  0.00000000000E+00  0.21721536655E+04  0.21721536655E+04  0.00000000000E+00 0.  1.
         22   -1    0    0    0    0 -0.00000000000E+00 -0.00000000000E+00 -0.15062550825E+03  0.15062550825E+03  0.00000000000E+00 0. -1.
         24    2    1    2    0    0  0.14548801511E+02 -0.30353838243E+02 -0.10257351333E+03  0.13493106217E+03  0.80944689641E+02 0.  0.
         25    2    1    2    0    0 -0.63583203641E+02  0.23696323436E+02  0.13337477330E+03  0.19503685691E+03  0.12508479472E+03 0.  0.
        -24    2    1    2    0    0  0.49034402130E+02  0.66575148066E+01  0.19907268973E+04  0.19928112547E+04  0.76514195644E+02 0.  0.
        -11    1    3    3    0    0 -0.20433306194E+02 -0.15018149162E+02  0.12555332910E+00  0.25359033300E+02  0.00000000000E+00 0.  1.
         12    1    3    3    0    0  0.34982107705E+02 -0.15335689081E+02 -0.10269906666E+03  0.10957202887E+03  0.00000000000E+00 0. -1.
         13    1    5    5    0    0  0.19443107506E+02 -0.17447706495E+02  0.20262851304E+03  0.20430558286E+03  0.00000000000E+00 0. -1.
        -14    1    5    5    0    0  0.29591294625E+02  0.24105221302E+02  0.17880983843E+04  0.17885056718E+04  0.00000000000E+00 0.  1.
          5    1    4    4  501    0 -0.32002652683E+02  0.74436711414E+02  0.89349970430E+02  0.12068920167E+03  0.41800000000E+01 0. -1.
         -5    1    4    4    0  501 -0.31580550959E+02 -0.50740387978E+02  0.44024802874E+02  0.74347655236E+02  0.41800000000E+01 0. -1.
</event>
<event>
11    1  0.8551154E-009  0.1738342E+03  0.7561462E-02  0.1074742E+00
         22   -1    0    0    0    0  0.00000000000E+00  0.00000000000E+00  0.12291921153E+04  0.12291921153E+04  0.00000000000E+00 0. -1.
         22   -1    0    0    0    0 -0.00000000000E+00 -0.00000000000E+00 -0.25883543857E+03  0.25883543857E+03  0.00000000000E+00 0. -1.
         24    2    1    2    0    0  0.20753889620E+02  0.81069973431E+02 -0.13556321740E+03  0.17798663977E+03  0.79364938731E+02 0.  0.
         25    2    1    2    0    0 -0.13671317581E+03 -0.10733892411E+03  0.20448168842E+02  0.21512096127E+03  0.12508702292E+03 0.  0.
        -24    2    1    2    0    0  0.11595928619E+03  0.26268950676E+02  0.10854717252E+04  0.10949199528E+04  0.80400390825E+02 0.  0.
        -13    1    3    3    0    0  0.13105896830E+02 -0.13811523647E+02 -0.14229751335E+02  0.23769908293E+02  0.00000000000E+00 0.  1.
         14    1    3    3    0    0  0.76479927897E+01  0.94881497079E+02 -0.12133346606E+03  0.15421673148E+03  0.00000000000E+00 0. -1.
         13    1    5    5    0    0  0.89719204934E+02  0.51546102860E+02  0.68175353497E+03  0.68956103348E+03  0.00000000000E+00 0. -1.
        -14    1    5    5    0    0  0.26240081257E+02 -0.25277152184E+02  0.40371819028E+03  0.40535891929E+03  0.00000000000E+00 0.  1.
          5    1    4    4  501    0 -0.13588040169E+03 -0.11440465540E+03 -0.15391948737E+02  0.17834318946E+03  0.41800000000E+01 0.  1.
         -5    1    4    4    0  501 -0.83277412097E+00  0.70657312958E+01  0.35840117580E+02  0.36777771814E+02  0.41800000000E+01 0.  1.
</event>
<event>
11    1  0.8551154E-009  0.6226095E+03  0.7561462E-02  0.9154830E-01
         22   -1    0    0    0    0  0.00000000000E+00  0.00000000000E+00  0.27495691789E+04  0.27495691789E+04  0.00000000000E+00 0.  1.
         22   -1    0    0    0    0 -0.00000000000E+00 -0.00000000000E+00 -0.33714969916E+03  0.33714969916E+03  0.00000000000E+00 0.  1.
         24    2    1    2    0    0 -0.46973587449E+01  0.23099186007E+02 -0.27759311475E+02  0.88507569780E+02  0.80668289689E+02 0.  0.
         25    2    1    2    0    0 -0.60535392989E+03  0.62327540999E+01  0.16318235086E+03  0.63934964966E+03  0.12508903724E+03 0.  0.
        -24    2    1    2    0    0  0.61005128863E+03 -0.29331940107E+02  0.22769964404E+04  0.23588616587E+04  0.80576656717E+02 0.  0.
        -13    1    3    3    0    0  0.21510071201E+02 -0.16650406015E+02  0.86790234650E+01  0.28552489066E+02  0.00000000000E+00 0.  1.
         14    1    3    3    0    0 -0.26207429946E+02  0.39749592021E+02 -0.36438334940E+02  0.59955080714E+02  0.00000000000E+00 0. -1.
         13    1    5    5    0    0  0.26448224279E+03 -0.25485899755E+02  0.84705325474E+03  0.88774974188E+03  0.00000000000E+00 0. -1.
        -14    1    5    5    0    0  0.34556904584E+03 -0.38460403518E+01  0.14299431857E+04  0.14711119168E+04  0.00000000000E+00 0.  1.
          5    1    4    4  501    0 -0.26116892854E+03 -0.58835880750E+02  0.64430112796E+02  0.27538987260E+03  0.41800000000E+01 0.  1.
         -5    1    4    4    0  501 -0.34418500135E+03  0.65068634850E+02  0.98752238060E+02  0.36395977706E+03  0.41800000000E+01 0.  1.
</event>
<event>
11    1  0.8551154E-009  0.2204969E+03  0.7561462E-02  0.1040907E+00
         22   -1    0    0    0    0  0.00000000000E+00  0.00000000000E+00  0.63114570288E+03  0.63114570288E+03  0.00000000000E+00 0. -1.
         22   -1    0    0    0    0 -0.00000000000E+00 -0.00000000000E+00 -0.18447929702E+03  0.18447929702E+03  0.00000000000E+00 0. -1.
         24    2    1    2    0    0  0.17734368886E+02  0.28151005472E+02 -0.77511209843E+02  0.11662037549E+03  0.80531592434E+02 0.  0.
         25    2    1    2    0    0 -0.16581423017E+03 -0.11853315235E+03  0.16033481115E+03  0.28792186193E+03  0.12508908736E+03 0.  0.
        -24    2    1    2    0    0  0.14807986129E+03  0.90382146879E+02  0.36384280455E+03  0.41108276247E+03  0.80689983218E+02 0.  0.
        -13    1    3    3    0    0 -0.18834984285E+02 -0.13021839867E+02 -0.17568282506E+01  0.22965439078E+02  0.00000000000E+00 0.  1.
         14    1    3    3    0    0  0.36569353170E+02  0.41172845339E+02 -0.75754381593E+02  0.93654936416E+02  0.00000000000E+00 0. -1.
         13    1    5    5    0    0  0.99315777842E+02  0.10051127485E+03  0.26008062433E+03  0.29598660654E+03  0.00000000000E+00 0. -1.
        -14    1    5    5    0    0  0.48764083445E+02 -0.10129127970E+02  0.10376218022E+03  0.11509615593E+03  0.00000000000E+00 0.  1.
          5    1    4    4  501    0  0.79795353042E+00 -0.61282859287E+02  0.56021992089E+02  0.83139410449E+02  0.41800000000E+01 0.  1.
         -5    1    4    4    0  501 -0.16661218370E+03 -0.57250293064E+02  0.10431281906E+03  0.20478245148E+03  0.41800000000E+01 0.  1.
</event>
<event>
11    1  0.8551154E-009  0.1832221E+03  0.7561462E-02  0.1067066E+00
         22   -1    0    0    0    0  0.00000000000E+00  0.00000000000E+00  0.40713569328E+03  0.40713569328E+03  0.00000000000E+00 0.  1.
         22   -1    0    0    0    0 -0.00000000000E+00 -0.00000000000E+00 -0.95688565702E+03  0.95688565702E+03  0.00000000000E+00 0.  1.
        -24    2    1    2    0    0 -0.69976158660E+02 -0.11490319383E+03 -0.83275692598E+03  0.84699170881E+03  0.76232868814E+02 0.  0.
         25    2    1    2    0    0  0.97883595036E+02  0.88571458748E+02 -0.37129192194E+02  0.18561262272E+03  0.12508943728E+03 0.  0.
         24    2    1    2    0    0 -0.27907436376E+02  0.26331735080E+02  0.32013615443E+03  0.33141701877E+03  0.76667448611E+02 0.  0.
        -11    1    5    5    0    0 -0.52560890706E+02  0.74727133185E+01  0.23129366736E+03  0.23730834211E+03  0.00000000000E+00 0.  1.
         12    1    5    5    0    0  0.24653454331E+02  0.18859021761E+02  0.88842487072E+02  0.94108676653E+02  0.00000000000E+00 0. -1.
         13    1    3    3    0    0  0.11020780943E+02 -0.39531802454E+02 -0.30607309956E+03  0.30881218125E+03  0.00000000000E+00 0. -1.
        -14    1    3    3    0    0 -0.80996939603E+02 -0.75371391373E+02 -0.52668382643E+03  0.53817952756E+03  0.00000000000E+00 0.  1.
          5    1    4    4  501    0  0.80307501986E+02  0.92449197703E+02  0.21267692413E+02  0.12436211711E+03  0.41800000000E+01 0. -1.
         -5    1    4    4    0  501  0.17576093050E+02 -0.38777389554E+01 -0.58396884608E+02  0.61250505616E+02  0.41800000000E+01 0. -1.
</event>
<event>
11    1  0.8551154E-009  0.1538024E+03  0.7561462E-02  0.1093056E+00
         22   -1    0    0    0    0  0.00000000000E+00  0.00000000000E+00  0.11062832035E+04  0.11062832035E+04  0.00000000000E+00 0.  1.
         22   -1    0    0    0    0 -0.00000000000E+00 -0.00000000000E+00 -0.97436882581E+03  0.97436882581E+03  0.00000000000E+00 0. -1.
        -24    2    1    2    0    0 -0.80147548255E+00  0.46470773278E+02 -0.93326227203E+03  0.93776913718E+03  0.79197923770E+02 0.  0.
         25    2    1    2    0    0  0.90201814083E+02 -0.40154129802E+02  0.14593429321E+03  0.21608129908E+03  0.12508232679E+03 0.  0.
         24    2    1    2    0    0 -0.89400338601E+02 -0.63166434758E+01  0.91924235647E+03  0.92680159301E+03  0.76956886377E+02 0.  0.
        -13    1    5    5    0    0 -0.84487856028E+02  0.59372778748E+01  0.48370026296E+03  0.49105946022E+03  0.00000000000E+00 0.  1.
         14    1    5    5    0    0 -0.49124825727E+01 -0.12253921351E+02  0.43554209350E+03  0.43574213279E+03  0.00000000000E+00 0. -1.
         11    1    3    3    0    0  0.23365470078E+02  0.59219892450E+02 -0.70778280480E+03  0.71064016184E+03  0.00000000000E+00 0. -1.
        -12    1    3    3    0    0 -0.24166945561E+02 -0.12749119172E+02 -0.22547946723E+03  0.22712897534E+03  0.00000000000E+00 0.  1.
          5    1    4    4  501    0  0.16822552903E+02 -0.41346691150E+02  0.13439170331E+03  0.14167268429E+03  0.41800000000E+01 0.  1.
         -5    1    4    4    0  501  0.73379261180E+02  0.11925613472E+01  0.11542589899E+02  0.74408614793E+02  0.41800000000E+01 0.  1.
</event>
<event>
11    1  0.8551154E-009  0.1753820E+03  0.7561462E-02  0.1073441E+00
         22   -1    0    0    0    0  0.00000000000E+00  0.00000000000E+00  0.39215916654E+03  0.39215916654E+03  0.00000000000E+00 0.  1.
         22   -1    0    0    0    0 -0.00000000000E+00 -0.00000000000E+00 -0.19347011857E+04  0.19347011857E+04  0.00000000000E+00 0.  1.
         24    2    1    2    0    0 -0.30270684778E+02 -0.49105002144E+02 -0.14898962753E+04  0.14931839564E+04  0.80497210003E+02 0.  0.
         25    2    1    2    0    0  0.12186091404E+03  0.12810450279E+03 -0.39981717108E+03  0.45471120524E+03  0.12509062263E+03 0.  0.
        -24    2    1    2    0    0 -0.91590229267E+02 -0.78999500644E+02  0.34717142727E+03  0.37896519059E+03  0.91961538517E+02 0.  0.
        -13    1    3    3    0    0  0.36824422217E+01 -0.33110026730E+02 -0.12434443186E+04  0.12438905127E+04  0.00000000000E+00 0.  1.
         14    1    3    3    0    0 -0.33953127000E+02 -0.15994975415E+02 -0.24645195678E+03  0.24929344370E+03  0.00000000000E+00 0. -1.
         13    1    5    5    0    0 -0.32183055314E+02 -0.32430530290E+02  0.34338965956E+02  0.57154640469E+02  0.00000000000E+00 0. -1.
        -14    1    5    5    0    0 -0.59407173952E+02 -0.46568970355E+02  0.31283246131E+03  0.32181055012E+03  0.00000000000E+00 0.  1.
          5    1    4    4  501    0  0.31084041820E+02  0.11504318040E+03 -0.27524339480E+03  0.29996258065E+03  0.41800000000E+01 0.  1.
         -5    1    4    4    0  501  0.90776872224E+02  0.13061322390E+02 -0.12457377628E+03  0.15474862458E+03  0.41800000000E+01 0.  1.
</event>
<event>
11    1  0.8551154E-009  0.1600161E+03  0.7561462E-02  0.1087062E+00
         22   -1    0    0    0    0  0.00000000000E+00  0.00000000000E+00  0.49789714287E+03  0.49789714287E+03  0.00000000000E+00 0. -1.
         22   -1    0    0    0    0 -0.00000000000E+00 -0.00000000000E+00 -0.42651698756E+03  0.42651698756E+03  0.00000000000E+00 0.  1.
         24    2    1    2    0    0  0.54315831660E+02  0.67001269342E+02 -0.23001249837E+03  0.25852985074E+03  0.80576390172E+02 0.  0.
         25    2    1    2    0    0 -0.13167806539E+03 -0.91618186924E+02 -0.11530161974E+03  0.23382844821E+03  0.12509306375E+03 0.  0.
        -24    2    1    2    0    0  0.77362233725E+02  0.24616917582E+02  0.41669427343E+03  0.43205583148E+03  0.80294558782E+02 0.  0.
        -11    1    3    3    0    0  0.21150243334E+02  0.75149584805E+02 -0.19287818323E+03  0.20807879867E+03  0.00000000000E+00 0.  1.
         12    1    3    3    0    0  0.33165588326E+02 -0.81483154625E+01 -0.37134315143E+02  0.50451052070E+02  0.00000000000E+00 0. -1.
         11    1    5    5    0    0  0.50545605566E+02  0.49178732520E+02  0.33919825178E+03  0.34645181481E+03  0.00000000000E+00 0. -1.
        -12    1    5    5    0    0  0.26816628159E+02 -0.24561814938E+02  0.77496021651E+02  0.85604016674E+02  0.00000000000E+00 0.  1.
          5    1    4    4  501    0 -0.51376580112E+02 -0.79952115928E+02 -0.29485988879E+01  0.95173843365E+02  0.41800000000E+01 0. -1.
         -5    1    4    4    0  501 -0.80301485273E+02 -0.11666070996E+02 -0.11235302086E+03  0.13865460485E+03  0.41800000000E+01 0. -1.
</event>
<event>
11    1  0.8551154E-009  0.1461325E+03  0.7561462E-02  0.1100897E+00
         22   -1    0    0    0    0  0.00000000000E+00  0.00000000000E+00  0.26283212499E+03  0.26283212499E+03  0.00000000000E+00 0.  1.
         22   -1    0    0    0    0 -0.00000000000E+00 -0.00000000000E+00 -0.13704144078E+04  0.13704144078E+04  0.00000000000E+00 0. -1.
        -24    2    1    2    0    0 -0.55194714821E+02  0.47628482915E+02 -0.10897857945E+04  0.10952313579E+04  0.81140128594E+02 0.  0.
         25    2    1    2    0    0  0.93700728136E+02 -0.42206415406E+02 -0.24507824166E+03  0.29372274499E+03  0.12509395843E+03 0.  0.
         24    2    1    2    0    0 -0.38506013315E+02 -0.54220675088E+01  0.22728175335E+03  0.24429242991E+03  0.80682612918E+02 0.  0.
        -11    1    5    5    0    0 -0.18613888701E+01  0.43108260474E+01  0.19336194387E+03  0.19341894769E+03  0.00000000000E+00 0.  1.
         12    1    5    5    0    0 -0.36644624445E+02 -0.97328935562E+01  0.33919809485E+02  0.50873482220E+02  0.00000000000E+00 0. -1.
         11    1    3    3    0    0 -0.27646747511E+01  0.39930806457E+02 -0.77366694385E+03  0.77470165402E+03  0.00000000000E+00 0. -1.
        -12    1    3    3    0    0 -0.52430040070E+02  0.76976764585E+01 -0.31611885070E+03  0.32052970391E+03  0.00000000000E+00 0.  1.
          5    1    4    4  501    0  0.69964555658E+02 -0.68155198837E+02 -0.23842269998E+03  0.25768784690E+03  0.41800000000E+01 0.  1.
         -5    1    4    4    0  501  0.23736172478E+02  0.25948783430E+02 -0.66555416877E+01  0.36034898093E+02  0.41800000000E+01 0.  1.
</event>
<event>
11    1  0.8551154E-009  0.1579500E+03  0.7561462E-02  0.1089021E+00
         22   -1    0    0    0    0  0.00000000000E+00  0.00000000000E+00  0.95140720117E+03  0.95140720117E+03  0.00000000000E+00 0.  1.
         22   -1    0    0    0    0 -0.00000000000E+00 -0.00000000000E+00 -0.11973227186E+03  0.11973227186E+03  0.00000000000E+00 0.  1.
        -24    2    1    2    0    0 -0.17330744993E+01 -0.90981638625E+02 -0.39617025263E+02  0.12733757342E+03  0.79778987205E+02 0.  0.
         25    2    1    2    0    0 -0.94034957793E+01  0.12593354787E+03  0.20379402278E+03  0.27042121409E+03  0.12509174673E+03 0.  0.
         24    2    1    2    0    0  0.11136570279E+02 -0.34951909245E+02  0.66749793179E+03  0.67338068551E+03  0.80885100691E+02 0.  0.
        -11    1    5    5    0    0  0.41238433052E+02  0.54833654593E+00  0.36504601066E+03  0.36736834231E+03  0.00000000000E+00 0.  1.
         12    1    5    5    0    0 -0.30101862774E+02 -0.35500245791E+02  0.30245192114E+03  0.30601234320E+03  0.00000000000E+00 0. -1.
         11    1    3    3    0    0 -0.23653049797E+02 -0.28906729757E+02  0.16500984987E+02  0.40833176407E+02  0.00000000000E+00 0. -1.
        -12    1    3    3    0    0  0.21919975298E+02 -0.62074908867E+02 -0.56118010250E+02  0.86504397012E+02  0.00000000000E+00 0.  1.
          5    1    4    4  501    0  0.24271354694E+02  0.12142185056E+03  0.20094711148E+03  0.23607113009E+03  0.41800000000E+01 0. -1.
         -5    1    4    4    0  501 -0.33674850473E+02  0.45116973145E+01  0.28469113005E+01  0.34350084003E+02  0.41800000000E+01 0. -1.
</event>
<event>
11    1  0.8551154E-009  0.1483609E+03  0.7561462E-02  0.1098565E+00
         22   -1    0    0    0    0  0.00000000000E+00  0.00000000000E+00  0.75354962959E+03  0.75354962959E+03  0.00000000000E+00 0.  1.
         22   -1    0    0    0    0 -0.00000000000E+00 -0.00000000000E+00 -0.25526459458E+03  0.25526459458E+03  0.00000000000E+00 0. -1.
         24    2    1    2    0    0  0.62917217483E+02 -0.20761514790E+02 -0.21677489806E+03  0.24017997410E+03  0.79406843396E+02 0.  0.
         25    2    1    2    0    0  0.28907165886E+02 -0.15499653009E+02  0.19968429396E+03  0.23790149031E+03  0.12508972121E+03 0.  0.
        -24    2    1    2    0    0 -0.91824383369E+02  0.36261167799E+02  0.51537563910E+03  0.53073275976E+03  0.79489768118E+02 0.  0.
        -13    1    3    3    0    0  0.36969189741E+02  0.28290510746E+02 -0.79712819250E+02  0.92310386963E+02  0.00000000000E+00 0.  1.
         14    1    3    3    0    0  0.25948027742E+02 -0.49052025536E+02 -0.13706207881E+03  0.14786958714E+03  0.00000000000E+00 0. -1.
         11    1    5    5    0    0  0.70735818905E+01 -0.77671814172E+01  0.13049805180E+03  0.13092022835E+03  0.00000000000E+00 0. -1.
        -12    1    5    5    0    0 -0.98897965260E+02  0.44028349216E+02  0.38487758730E+03  0.39981253142E+03  0.00000000000E+00 0.  1.
          5    1    4    4  501    0  0.23533855361E+02 -0.45849414290E+02  0.19830703057E+02  0.55378157451E+02  0.41800000000E+01 0.  1.
         -5    1    4    4    0  501  0.53733105243E+01  0.30349761282E+02  0.17985359091E+03  0.18252333286E+03  0.41800000000E+01 0.  1.
</event>
<event>
11    1  0.8551154E-009  0.1298491E+03  0.7561462E-02  0.1119455E+00
         22   -1    0    0    0    0  0.00000000000E+00  0.00000000000E+00  0.34633055174E+03  0.34633055174E+03  0.00000000000E+00 0.  1.
         22   -1    0    0    0    0 -0.00000000000E+00 -0.00000000000E+00 -0.26146693098E+03  0.26146693098E+03  0.00000000000E+00 0. -1.
        -24    2    1    2    0    0  0.24235907879E+01 -0.33343999223E+02 -0.19274661962E+03  0.21164985993E+03  0.80788042153E+02 0.  0.
         25    2    1    2    0    0  0.59444150870E+01  0.47967552014E+02  0.33691188254E+02  0.13827168187E+03  0.12509092583E+03 0.  0.
         24    2    1    2    0    0 -0.83680058750E+01 -0.14623552791E+02  0.24391905212E+03  0.25787594092E+03  0.81973319428E+02 0.  0.
        -11    1    5    5    0    0 -0.22271508603E+02 -0.22725660234E+02  0.23891397260E+03  0.24102357153E+03  0.00000000000E+00 0.  1.
         12    1    5    5    0    0  0.13903502728E+02  0.81021074434E+01  0.50050795246E+01  0.16852369393E+02  0.00000000000E+00 0. -1.
         13    1    3    3    0    0 -0.22210549008E+02 -0.51784510869E+02 -0.11589355990E+03  0.12886528345E+03  0.00000000000E+00 0. -1.
        -14    1    3    3    0    0  0.24634139796E+02  0.18440511646E+02 -0.76853059727E+02  0.82784576478E+02  0.00000000000E+00 0.  1.
          5    1    4    4  501    0  0.67873390759E+01  0.57273379874E+02  0.75572447028E+02  0.95157633239E+02  0.41800000000E+01 0. -1.
         -5    1    4    4    0  501 -0.84292398889E+00 -0.93058278602E+01 -0.41881258774E+02  0.43114048633E+02  0.41800000000E+01 0. -1.
</event>
<event>
11    1  0.8551154E-009  0.1908257E+03  0.7561462E-02  0.1061208E+00
         22   -1    0    0    0    0  0.00000000000E+00  0.00000000000E+00  0.45357217936E+03  0.45357217936E+03  0.00000000000E+00 0. -1.
         22   -1    0    0    0    0 -0.00000000000E+00 -0.00000000000E+00 -0.23652724055E+04  0.23652724055E+04  0.00000000000E+00 0.  1.
         24    2    1    2    0    0  0.11966500024E+03  0.78104933690E+02 -0.22560049230E+04  0.22619389543E+04  0.79934518995E+02 0.  0.
         25    2    1    2    0    0 -0.16925691745E+03 -0.11358405750E+03  0.48239714539E+02  0.24397269604E+03  0.12508542734E+03 0.  0.
        -24    2    1    2    0    0  0.49591917209E+02  0.35479123812E+02  0.29606498237E+03  0.31293293450E+03  0.80959380110E+02 0.  0.
        -11    1    3    3    0    0  0.78599494453E+02  0.87460974706E+02 -0.18564237650E+04  0.18601442143E+04  0.00000000000E+00 0.  1.
         12    1    3    3    0    0  0.41065505786E+02 -0.93560410161E+01 -0.39958115804E+03  0.40179474005E+03  0.00000000000E+00 0. -1.
         11    1    5    5    0    0  0.71241364911E+02  0.29513304771E+02  0.20183842418E+03  0.21606738928E+03  0.00000000000E+00 0. -1.
        -12    1    5    5    0    0 -0.21649447702E+02  0.59658190415E+01  0.94226558186E+02  0.96865545217E+02  0.00000000000E+00 0.  1.
          5    1    4    4  501    0 -0.27617342636E+02  0.75388285280E+01 -0.30115728098E+02  0.41760998895E+02  0.41800000000E+01 0.  1.
         -5    1    4    4    0  501 -0.14163957481E+03 -0.12112288603E+03  0.78355442637E+02  0.20221169715E+03  0.41800000000E+01 0.  1.
</event>
<event>
11    1  0.8551154E-009  0.3851236E+03  0.7561462E-02  0.9694701E-01
         22   -1    0    0    0    0  0.00000000000E+00  0.00000000000E+00  0.20031262058E+03  0.20031262058E+03  0.00000000000E+00 0. -1.
         22   -1    0    0    0    0 -0.00000000000E+00 -0.00000000000E+00 -0.16915501912E+04  0.16915501912E+04  0.00000000000E+00 0.  1.
        -24    2    1    2    0    0  0.29698098225E+02  0.36367278665E+03 -0.12671684982E+04  0.13211173379E+04  0.80592462026E+02 0.  0.
         25    2    1    2    0    0 -0.97676469353E+02 -0.35362870974E+03 -0.24535479890E+03  0.45873784190E+03  0.12508986063E+03 0.  0.
         24    2    1    2    0    0  0.67978371127E+02 -0.10044076910E+02  0.21285726499E+02  0.11200763193E+03  0.85852693823E+02 0.  0.
        -11    1    5    5    0    0  0.77437499727E+02  0.10180865378E+02 -0.40857325134E+01  0.78210674425E+02  0.00000000000E+00 0.  1.
         12    1    5    5    0    0 -0.94591285997E+01 -0.20224942288E+02  0.25371459013E+02  0.33796957509E+02  0.00000000000E+00 0. -1.
         13    1    3    3    0    0 -0.20781985922E+02  0.44061693169E+02 -0.20782091130E+03  0.21345457343E+03  0.00000000000E+00 0. -1.
        -14    1    3    3    0    0  0.50480084148E+02  0.31961109349E+03 -0.10593475869E+04  0.11076627645E+04  0.00000000000E+00 0.  1.
          5    1    4    4  501    0 -0.95567935226E+02 -0.36290320389E+03 -0.22990608475E+03  0.44012071735E+03  0.41800000000E+01 0.  1.
         -5    1    4    4    0  501 -0.21085341267E+01  0.92744941453E+01 -0.15448714145E+02  0.18617124551E+02  0.41800000000E+01 0.  1.
</event>
<event>
11    1  0.8551154E-009  0.1789564E+03  0.7561462E-02  0.1070490E+00
         22   -1    0    0    0    0  0.00000000000E+00  0.00000000000E+00  0.51890976507E+03  0.51890976507E+03  0.00000000000E+00 0.  1.
         22   -1    0    0    0    0 -0.00000000000E+00 -0.00000000000E+00 -0.12447485702E+04  0.12447485702E+04  0.00000000000E+00 0.  1.
         24    2    1    2    0    0  0.12893263909E+03  0.39863265815E+02 -0.10017258165E+04  0.10134500710E+04  0.73578050242E+02 0.  0.
         25    2    1    2    0    0 -0.86740897529E+02 -0.43597271490E+02 -0.20604773396E+03  0.25986279140E+03  0.12509315049E+03 0.  0.
        -24    2    1    2    0    0 -0.42191741562E+02  0.37340056755E+01  0.48193474539E+03  0.49034547287E+03  0.79896796523E+02 0.  0.
        -13    1    3    3    0    0  0.12069202180E+03  0.99802461842E+01 -0.85060367772E+03  0.85918146279E+03  0.00000000000E+00 0.  1.
         14    1    3    3    0    0  0.82406172896E+01  0.29883019630E+02 -0.15112213881E+03  0.15426860819E+03  0.00000000000E+00 0. -1.
         11    1    5    5    0    0  0.14582034353E+02 -0.87059230710E+01  0.28316534988E+02  0.33019009315E+02  0.00000000000E+00 0. -1.
        -12    1    5    5    0    0 -0.56773775916E+02  0.12439928746E+02  0.45361821040E+03  0.45732646355E+03  0.00000000000E+00 0.  1.
          5    1    4    4  501    0 -0.36114521089E+02 -0.61975142907E+02 -0.33917391407E+02  0.79454633670E+02  0.41800000000E+01 0.  1.
         -5    1    4    4    0  501 -0.50626376439E+02  0.18377871416E+02 -0.17213034255E+03  0.18040815773E+03  0.41800000000E+01 0.  1.
</event>
<event>
11    1  0.8551154E-009  0.1255436E+04  0.7561462E-02  0.8467997E-01
         22   -1    0    0    0    0  0.00000000000E+00  0.00000000000E+00  0.29280791203E+04  0.29280791203E+04  0.00000000000E+00 0. -1.
         22   -1    0    0    0    0 -0.00000000000E+00 -0.00000000000E+00 -0.80431007221E+03  0.80431007221E+03  0.00000000000E+00 0. -1.
         24    2    1    2    0    0 -0.64988001177E+02  0.23036225608E+02 -0.91376028254E+01  0.11830726785E+03  0.95702695125E+02 0.  0.
         25    2    1    2    0    0  0.12451941299E+04  0.34301420022E+03  0.19190789377E+03  0.13117330232E+04  0.12509085391E+03 0.  0.
        -24    2    1    2    0    0 -0.11802061287E+04 -0.36605042583E+03  0.19409987571E+04  0.23023489014E+04  0.80342194805E+02 0.  0.
        -11    1    3    3    0    0 -0.41194282587E+02  0.45080809827E+00  0.41173926783E+02  0.58244865804E+02  0.00000000000E+00 0.  1.
         12    1    3    3    0    0 -0.23793718590E+02  0.22585417510E+02 -0.50311529608E+02  0.60062402049E+02  0.00000000000E+00 0. -1.
         11    1    5    5    0    0 -0.41172854662E+03 -0.16743821959E+03  0.68440777139E+03  0.81606981994E+03  0.00000000000E+00 0. -1.
        -12    1    5    5    0    0 -0.76847758211E+03 -0.19861220624E+03  0.12565909857E+04  0.14862790815E+04  0.00000000000E+00 0.  1.
          5    1    4    4  501    0  0.63617476261E+03  0.13348081658E+03  0.14458849468E+03  0.66592699463E+03  0.41800000000E+01 0. -1.
         -5    1    4    4    0  501  0.60901936729E+03  0.20953338364E+03  0.47319399091E+02  0.64580602856E+03  0.41800000000E+01 0. -1.
</event>
<event>
11    1  0.1093535E-008  0.1526859E+03  0.7561462E-02  0.1094166E+00
         22   -1    0    0    0    0  0.00000000000E+00  0.00000000000E+00  0.52748206012E+03  0.52748206012E+03  0.00000000000E+00 0. -1.
         22   -1    0    0    0    0 -0.00000000000E+00 -0.00000000000E+00 -0.12836354671E+04  0.12836354671E+04  0.00000000000E+00 0.  1.
        -24    2    1    2    0    0  0.29279999290E+02 -0.76916785135E+02 -0.10127587247E+04  0.10194594377E+04  0.82727264786E+02 0.  0.
         25    2    1    2    0    0 -0.95347016325E+02  0.11855383942E+03 -0.22392596964E+03  0.29822255971E+03  0.12509112228E+03 0.  0.
         24    2    1    2    0    0  0.66067017035E+02 -0.41637054282E+02  0.48053128741E+03  0.49343552983E+03  0.80435122239E+02 0.  0.
        -11    1    5    5    0    0  0.50132838414E+02  0.89177378454E+01  0.14361126054E+03  0.15237132830E+03  0.00000000000E+00 0.  1.
         12    1    5    5    0    0  0.15934178621E+02 -0.50554792127E+02  0.33692002687E+03  0.34106420152E+03  0.00000000000E+00 0. -1.
         13    1    3    3    0    0  0.70542813723E+01 -0.29727006176E+02 -0.86572599788E+02  0.91805625186E+02  0.00000000000E+00 0. -1.
        -14    1    3    3    0    0  0.22225717918E+02 -0.47189778959E+02 -0.92618612493E+03  0.92765381247E+03  0.00000000000E+00 0.  1.
          5    1    4    4  501    0 -0.15935877861E+02  0.11041668076E+03 -0.95310344987E+02  0.14679008773E+03  0.41800000000E+01 0.  1.
         -5    1    4    4    0  501 -0.79411138464E+02  0.81371586543E+01 -0.12861562466E+03  0.15143247198E+03  0.41800000000E+01 0.  1.
</event>
<event>
11    1  0.8551154E-009  0.1355474E+03  0.7561462E-02  0.1112635E+00
         22   -1    0    0    0    0  0.00000000000E+00  0.00000000000E+00  0.65876096449E+03  0.65876096449E+03  0.00000000000E+00 0. -1.
         22   -1    0    0    0    0 -0.00000000000E+00 -0.00000000000E+00 -0.17390203715E+03  0.17390203715E+03  0.00000000000E+00 0. -1.
         24    2    1    2    0    0 -0.11849915414E+02  0.51263636982E+02 -0.13819214844E+03  0.16785250186E+03  0.79429286280E+02 0.  0.
         25    2    1    2    0    0  0.19544922042E+02 -0.41020456650E+02  0.26080726760E+03  0.29280288745E+03  0.12509363782E+03 0.  0.
        -24    2    1    2    0    0 -0.76950066283E+01 -0.10243180332E+02  0.36224380818E+03  0.37200761232E+03  0.83695586423E+02 0.  0.
        -13    1    3    3    0    0  0.18327859370E+02  0.27188974909E+02 -0.10465059323E+02  0.34419010043E+02  0.00000000000E+00 0.  1.
         14    1    3    3    0    0 -0.30177774783E+02  0.24074662073E+02 -0.12772708912E+03  0.13343349182E+03  0.00000000000E+00 0. -1.
         13    1    5    5    0    0  0.82140529898E+01  0.18873774901E+02  0.30610813947E+03  0.30679941834E+03  0.00000000000E+00 0. -1.
        -14    1    5    5    0    0 -0.15909059618E+02 -0.29116955233E+02  0.56135668716E+02  0.65208193981E+02  0.00000000000E+00 0.  1.
          5    1    4    4  501    0  0.71923492292E+02 -0.33781177287E+02  0.14416191007E+03  0.16466415942E+03  0.41800000000E+01 0. -1.
         -5    1    4    4    0  501 -0.52378570250E+02 -0.72392793628E+01  0.11664535753E+03  0.12813872803E+03  0.41800000000E+01 0. -1.
</event>
<event>
11    1  0.8551154E-009  0.2071501E+03  0.7561462E-02  0.1049580E+00
         22   -1    0    0    0    0  0.00000000000E+00  0.00000000000E+00  0.11014078676E+04  0.11014078676E+04  0.00000000000E+00 0.  1.
         22   -1    0    0    0    0 -0.00000000000E+00 -0.00000000000E+00 -0.90925391118E+03  0.90925391118E+03  0.00000000000E+00 0. -1.
        -24    2    1    2    0    0 -0.32275435367E+02 -0.49221266221E+02 -0.40549300498E+03  0.41755741690E+03  0.80406358832E+02 0.  0.
         25    2    1    2    0    0 -0.13043243733E+03  0.79402285930E+02 -0.46988612922E+03  0.50966282938E+03  0.12508349812E+03 0.  0.
         24    2    1    2    0    0  0.16270787270E+03 -0.30181019709E+02  0.10675330906E+04  0.10834415325E+04  0.82667460419E+02 0.  0.
        -11    1    5    5    0    0  0.98523708899E+02 -0.58420072125E+02  0.63083211605E+03  0.64114661715E+03  0.00000000000E+00 0.  1.
         12    1    5    5    0    0  0.64184163802E+02  0.28239052417E+02  0.43670097456E+03  0.44229491536E+03  0.00000000000E+00 0. -1.
         11    1    3    3    0    0  0.22812349054E+02  0.75834446147E+00 -0.61114962982E+02  0.65238156442E+02  0.00000000000E+00 0. -1.
        -12    1    3    3    0    0 -0.55087784421E+02 -0.49979610683E+02 -0.34437804200E+03  0.35231926045E+03  0.00000000000E+00 0.  1.
          5    1    4    4  501    0 -0.14560600389E+03  0.49841103340E+02 -0.43437051502E+03  0.46084754602E+03  0.41800000000E+01 0.  1.
         -5    1    4    4    0  501  0.15173566552E+02  0.29561182590E+02 -0.35515614194E+02  0.48815283361E+02  0.41800000000E+01 0.  1.
</event>
<event>
11    1  0.8551154E-009  0.1405004E+03  0.7561462E-02  0.1107001E+00
         22   -1    0    0    0    0  0.00000000000E+00  0.00000000000E+00  0.33629959902E+03  0.33629959902E+03  0.00000000000E+00 0. -1.
         22   -1    0    0    0    0 -0.00000000000E+00 -0.00000000000E+00 -0.15694797648E+03  0.15694797648E+03  0.00000000000E+00 0. -1.
         24    2    1    2    0    0 -0.29882763585E+02  0.30497517596E+02 -0.73650242811E+02  0.11447164366E+03  0.76526601897E+02 0.  0.
         25    2    1    2    0    0 -0.24808117271E+02  0.16842263317E+02  0.31330489563E+02  0.13239352791E+03  0.12508933664E+03 0.  0.
        -24    2    1    2    0    0  0.54690880855E+02 -0.47339780913E+02  0.22167137579E+03  0.24638240393E+03  0.79586071720E+02 0.  0.
        -11    1    3    3    0    0 -0.50603420108E+02  0.64896190382E+01 -0.26074299673E+02  0.57294767521E+02  0.00000000000E+00 0.  1.
         12    1    3    3    0    0  0.20720656523E+02  0.24007898557E+02 -0.47575943138E+02  0.57176876142E+02  0.00000000000E+00 0. -1.
         11    1    5    5    0    0  0.28042488774E+02  0.17034506930E+02  0.10972566151E+03  0.11452631312E+03  0.00000000000E+00 0. -1.
        -12    1    5    5    0    0  0.26648392081E+02 -0.64374287843E+02  0.11194571428E+03  0.13185609080E+03  0.00000000000E+00 0.  1.
          5    1    4    4  501    0 -0.58424584575E+02 -0.17501667103E+02 -0.17667147523E+02  0.63634431998E+02  0.41800000000E+01 0.  1.
         -5    1    4    4    0  501  0.33616467305E+02  0.34343930420E+02  0.48997637086E+02  0.68759095913E+02  0.41800000000E+01 0.  1.
</event>
<event>
11    1  0.8551154E-009  0.2011324E+03  0.7561462E-02  0.1053726E+00
         22   -1    0    0    0    0  0.00000000000E+00  0.00000000000E+00  0.14821349752E+03  0.14821349752E+03  0.00000000000E+00 0. -1.
         22   -1    0    0    0    0 -0.00000000000E+00 -0.00000000000E+00 -0.47750212163E+03  0.47750212163E+03  0.00000000000E+00 0. -1.
         24    2    1    2    0    0 -0.61419102163E+02  0.35661561581E+02 -0.15479911435E+03  0.18579785130E+03  0.74256465450E+02 0.  0.
         25    2    1    2    0    0  0.10685794530E+03 -0.16779168684E+03 -0.14357361709E+03  0.27537828300E+03  0.12508854696E+03 0.  0.
        -24    2    1    2    0    0 -0.45438843132E+02  0.13213012525E+03 -0.30915892677E+02  0.16453948484E+03  0.81205856851E+02 0.  0.
        -13    1    3    3    0    0  0.97723805129E+01  0.11465168495E+02 -0.16104571806E+01  0.15150679253E+02  0.00000000000E+00 0.  1.
         14    1    3    3    0    0 -0.71191482676E+02  0.24196393086E+02 -0.15318865717E+03  0.17064717205E+03  0.00000000000E+00 0. -1.
         13    1    5    5    0    0 -0.36342607195E+02  0.96545961912E+02  0.16596531578E+02  0.10448613649E+03  0.00000000000E+00 0. -1.
        -14    1    5    5    0    0 -0.90962359372E+01  0.35584163343E+02 -0.47512424255E+02  0.60053348347E+02  0.00000000000E+00 0.  1.
          5    1    4    4  501    0  0.86997301695E+02 -0.67007508605E+02 -0.13225188275E+03  0.17194932277E+03  0.41800000000E+01 0. -1.
         -5    1    4    4    0  501  0.19860643600E+02 -0.10078417823E+03 -0.11321734342E+02  0.10342896023E+03  0.41800000000E+01 0. -1.
</event>
<event>
11    1  0.8551154E-009  0.1529734E+03  0.7561462E-02  0.1093879E+00
         22   -1    0    0    0    0  0.00000000000E+00  0.00000000000E+00  0.41637195500E+03  0.41637195500E+03  0.00000000000E+00 0. -1.
         22   -1    0    0    0    0 -0.00000000000E+00 -0.00000000000E+00 -0.31498850307E+03  0.31498850307E+03  0.00000000000E+00 0. -1.
         24    2    1    2    0    0 -0.42102487687E+02 -0.68696157026E+02 -0.20281054469E+03  0.23334626700E+03  0.82623131287E+02 0.  0.
         25    2    1    2    0    0  0.68826222363E+02  0.11539094319E+03  0.52964137392E+01  0.18365069858E+03  0.12508960163E+03 0.  0.
        -24    2    1    2    0    0 -0.26723734676E+02 -0.46694786161E+02  0.29889758289E+03  0.31436349249E+03  0.81179303429E+02 0.  0.
        -13    1    3    3    0    0 -0.40611884309E+02  0.51340561143E+01 -0.84265245208E+02  0.93681989888E+02  0.00000000000E+00 0.  1.
         14    1    3    3    0    0 -0.14906033777E+01 -0.73830213140E+02 -0.11854529948E+03  0.13966427711E+03  0.00000000000E+00 0. -1.
         13    1    5    5    0    0  0.28516463193E+02 -0.25225903337E+02  0.12190490454E+03  0.12771194393E+03  0.00000000000E+00 0. -1.
        -14    1    5    5    0    0 -0.55240197869E+02 -0.21468882824E+02  0.17699267834E+03  0.18665154855E+03  0.00000000000E+00 0.  1.
          5    1    4    4  501    0  0.89248893462E+02  0.10554372723E+03 -0.29992079986E+02  0.14149855336E+03  0.41800000000E+01 0.  1.
         -5    1    4    4    0  501 -0.20422671099E+02  0.98472159545E+01  0.35288493725E+02  0.42152145215E+02  0.41800000000E+01 0.  1.
</event>
<event>
11    1  0.8551154E-009  0.1369368E+03  0.7561462E-02  0.1111028E+00
         22   -1    0    0    0    0  0.00000000000E+00  0.00000000000E+00  0.36158835040E+03  0.36158835040E+03  0.00000000000E+00 0.  1.
         22   -1    0    0    0    0 -0.00000000000E+00 -0.00000000000E+00 -0.22935234434E+03  0.22935234434E+03  0.00000000000E+00 0. -1.
        -24    2    1    2    0    0  0.22935391771E+02 -0.40386569997E+02 -0.11875214432E+03  0.15127077668E+03  0.81385925477E+02 0.  0.
         25    2    1    2    0    0 -0.12653118235E+02  0.91350958942E+02 -0.13378651225E+02  0.15600417143E+03  0.12511280548E+03 0.  0.
         24    2    1    2    0    0 -0.10282273536E+02 -0.50964388945E+02  0.26436680161E+03  0.28366574662E+03  0.88731932949E+02 0.  0.
        -11    1    5    5    0    0 -0.29699271078E+02  0.10086844452E+02  0.14330921607E+03  0.14670147424E+03  0.00000000000E+00 0.  1.
         12    1    5    5    0    0  0.19416997542E+02 -0.61051233397E+02  0.12105758553E+03  0.13696427238E+03  0.00000000000E+00 0. -1.
         13    1    3    3    0    0 -0.11513727408E+02  0.11281896453E+02 -0.71346359511E+02  0.73144720397E+02  0.00000000000E+00 0. -1.
        -14    1    3    3    0    0  0.34449119179E+02 -0.51668466450E+02 -0.47405784810E+02  0.78126056287E+02  0.00000000000E+00 0.  1.
          5    1    4    4  501    0  0.38352711286E+01  0.12008669985E+03 -0.52176910445E+00  0.12022175106E+03  0.41800000000E+01 0. -1.
         -5    1    4    4    0  501 -0.16488389364E+02 -0.28735740909E+02 -0.12856882121E+02  0.35782420367E+02  0.41800000000E+01 0. -1.
</event>
<event>
11    1  0.8551154E-009  0.1476852E+03  0.7561462E-02  0.1099268E+00
         22   -1    0    0    0    0  0.00000000000E+00  0.00000000000E+00  0.78279196224E+03  0.78279196224E+03  0.00000000000E+00 0. -1.
         22   -1    0    0    0    0 -0.00000000000E+00 -0.00000000000E+00 -0.15106727836E+04  0.15106727836E+04  0.00000000000E+00 0.  1.
        -24    2    1    2    0    0 -0.41021376913E+02  0.66829590624E+02 -0.14681167083E+04  0.14724048620E+04  0.80376992323E+02 0.  0.
         25    2    1    2    0    0  0.39403791547E+02 -0.75309703111E+02  0.11372879388E+03  0.18922585311E+03  0.12509186527E+03 0.  0.
         24    2    1    2    0    0  0.16175853658E+01  0.84801124871E+01  0.62650709310E+03  0.63183403070E+03  0.81416065708E+02 0.  0.
        -11    1    5    5    0    0  0.51718116458E+00  0.13755148881E+02  0.15212340669E+02  0.20515528405E+02  0.00000000000E+00 0.  1.
         12    1    5    5    0    0  0.11004042012E+01 -0.52750363939E+01  0.61129475243E+03  0.61131850229E+03  0.00000000000E+00 0. -1.
         11    1    3    3    0    0 -0.28155792331E+02  0.23590251008E+02 -0.19148334231E+03  0.19497466237E+03  0.00000000000E+00 0. -1.
        -12    1    3    3    0    0 -0.12865584582E+02  0.43239339616E+02 -0.12766333660E+04  0.12774301996E+04  0.00000000000E+00 0.  1.
          5    1    4    4  501    0 -0.24159630294E+02 -0.81734907417E+02  0.79494320437E+02  0.11662376348E+03  0.41800000000E+01 0. -1.
         -5    1    4    4    0  501  0.63563421841E+02  0.64252043064E+01  0.34234473446E+02  0.72602089630E+02  0.41800000000E+01 0. -1.
</event>
<event>
11    1  0.8551154E-009  0.1513637E+03  0.7561462E-02  0.1095493E+00
         22   -1    0    0    0    0  0.00000000000E+00  0.00000000000E+00  0.28257508995E+04  0.28257508995E+04  0.00000000000E+00 0. -1.
         22   -1    0    0    0    0 -0.00000000000E+00 -0.00000000000E+00 -0.66318883675E+03  0.66318883675E+03  0.00000000000E+00 0.  1.
        -24    2    1    2    0    0 -0.64522134543E+02  0.57394918895E+02 -0.65055546808E+03  0.66121075203E+03  0.80746263030E+02 0.  0.
         25    2    1    2    0    0  0.10863037792E+03  0.10460962918E+02  0.18112165200E+04  0.18188080108E+04  0.12508919579E+03 0.  0.
         24    2    1    2    0    0 -0.44108243381E+02 -0.67855881813E+02  0.10019010108E+04  0.10089209735E+04  0.86982396894E+02 0.  0.
        -13    1    5    5    0    0 -0.30665495375E+01  0.16404726111E+02  0.57279039606E+02  0.59660767201E+02  0.00000000000E+00 0.  1.
         14    1    5    5    0    0 -0.41041693843E+02 -0.84260607924E+02  0.94462197123E+03  0.94926020627E+03  0.00000000000E+00 0. -1.
         11    1    3    3    0    0  0.73001590953E+01 -0.99694244106E+01 -0.24301991717E+02  0.27262951919E+02  0.00000000000E+00 0. -1.
        -12    1    3    3    0    0 -0.71822293639E+02  0.67364343306E+02 -0.62625347636E+03  0.63394780011E+03  0.00000000000E+00 0.  1.
          5    1    4    4  501    0  0.12047255183E+03  0.14878734508E+02  0.17874104213E+04  0.17915324444E+04  0.41800000000E+01 0.  1.
         -5    1    4    4    0  501 -0.11842173904E+02 -0.44177715898E+01  0.23806098666E+02  0.27275566397E+02  0.41800000000E+01 0.  1.
</event>
<event>
11    1  0.8551154E-009  0.1484212E+03  0.7561462E-02  0.1098503E+00
         22   -1    0    0    0    0  0.00000000000E+00  0.00000000000E+00  0.77428210556E+02  0.77428210556E+02  0.00000000000E+00 0. -1.
         22   -1    0    0    0    0 -0.00000000000E+00 -0.00000000000E+00 -0.17748384061E+04  0.17748384061E+04  0.00000000000E+00 0. -1.
        -24    2    1    2    0    0 -0.71941432835E+02 -0.34843249502E+02 -0.13077150004E+04  0.13127541831E+04  0.82555443284E+02 0.  0.
         25    2    1    2    0    0  0.81318859342E+02  0.13481934291E+02 -0.42432403248E+03  0.44999203966E+03  0.12508969496E+03 0.  0.
         24    2    1    2    0    0 -0.93774265064E+01  0.21361315211E+02  0.34628837344E+02  0.89520393870E+02  0.79186505336E+02 0.  0.
        -13    1    5    5    0    0  0.18496707034E+02 -0.93991515463E+01 -0.14417484474E+02  0.25265313761E+02  0.00000000000E+00 0.  1.
         14    1    5    5    0    0 -0.27874133540E+02  0.30760466758E+02  0.49046321819E+02  0.64255080108E+02  0.00000000000E+00 0. -1.
         13    1    3    3    0    0 -0.50923294863E+02  0.44804576273E+01 -0.10475032266E+04  0.10487498587E+04  0.00000000000E+00 0. -1.
        -14    1    3    3    0    0 -0.21018137972E+02 -0.39323707129E+02 -0.26021177383E+03  0.26400432441E+03  0.00000000000E+00 0.  1.
          5    1    4    4  501    0  0.92810183471E+02  0.53956918082E+02 -0.31133932702E+03  0.32935501835E+03  0.41800000000E+01 0.  1.
         -5    1    4    4    0  501 -0.11491324130E+02 -0.40474983791E+02 -0.11298470545E+03  0.12063702131E+03  0.41800000000E+01 0.  1.
</event>
<event>
11    1  0.8551154E-009  0.1567042E+03  0.7561462E-02  0.1090219E+00
         22   -1    0    0    0    0  0.00000000000E+00  0.00000000000E+00  0.62315771433E+03  0.62315771433E+03  0.00000000000E+00 0.  1.
         22   -1    0    0    0    0 -0.00000000000E+00 -0.00000000000E+00 -0.99685207442E+03  0.99685207442E+03  0.00000000000E+00 0.  1.
        -24    2    1    2    0    0 -0.65111121959E+02 -0.66745095353E+02 -0.92200276096E+03  0.93027538176E+03  0.81417619299E+02 0.  0.
         25    2    1    2    0    0  0.14468338520E+03  0.48777693885E+02  0.89032203228E+02  0.21653312255E+03  0.12508922646E+03 0.  0.
         24    2    1    2    0    0 -0.79572263237E+02  0.17967401468E+02  0.45927619764E+03  0.47320128444E+03  0.79562914005E+02 0.  0.
        -11    1    5    5    0    0 -0.82077513696E+02  0.29757373486E+02  0.44885721107E+03  0.45726908431E+03  0.00000000000E+00 0.  1.
         12    1    5    5    0    0  0.25052504583E+01 -0.11789972018E+02  0.10418986572E+02  0.15932200138E+02  0.00000000000E+00 0. -1.
         11    1    3    3    0    0 -0.53478663333E+02 -0.83549530752E+02 -0.65235309401E+03  0.65985229467E+03  0.00000000000E+00 0. -1.
        -12    1    3    3    0    0 -0.11632458626E+02  0.16804435400E+02 -0.26964966695E+03  0.27042308709E+03  0.00000000000E+00 0.  1.
          5    1    4    4  501    0  0.67993385192E+02  0.87337360109E+02  0.41188530305E+02  0.11817310324E+03  0.41800000000E+01 0. -1.
         -5    1    4    4    0  501  0.76690000004E+02 -0.38559666224E+02  0.47843672924E+02  0.98360019311E+02  0.41800000000E+01 0. -1.
</event>
<event>
11    1  0.8551154E-009  0.1440720E+03  0.7561462E-02  0.1103095E+00
         22   -1    0    0    0    0  0.00000000000E+00  0.00000000000E+00  0.23101926390E+03  0.23101926390E+03  0.00000000000E+00 0.  1.
         22   -1    0    0    0    0 -0.00000000000E+00 -0.00000000000E+00 -0.48832461485E+03  0.48832461485E+03  0.00000000000E+00 0.  1.
         24    2    1    2    0    0 -0.31317836892E+02  0.34970090392E+02 -0.36671741426E+03  0.37914801148E+03  0.84070438072E+02 0.  0.
         25    2    1    2    0    0 -0.44773149214E+02 -0.26376992926E+02 -0.51251553137E+02  0.14483521294E+03  0.12510050584E+03 0.  0.
        -24    2    1    2    0    0  0.76090986106E+02 -0.85930974667E+01  0.16066361645E+03  0.19536065432E+03  0.80556241937E+02 0.  0.
        -13    1    3    3    0    0 -0.52611636778E+02  0.33377320389E+01 -0.27165579211E+03  0.27672367837E+03  0.00000000000E+00 0.  1.
         14    1    3    3    0    0  0.21293799886E+02  0.31632358354E+02 -0.95061622149E+02  0.10242433312E+03  0.00000000000E+00 0. -1.
         11    1    5    5    0    0  0.16222238450E+02 -0.73995756870E+01 -0.55626284973E+01  0.18677729425E+02  0.00000000000E+00 0. -1.
        -12    1    5    5    0    0  0.59868747656E+02 -0.11935217798E+01  0.16622624495E+03  0.17668292490E+03  0.00000000000E+00 0.  1.
          5    1    4    4  501    0 -0.72261074577E+01 -0.46949432286E+02  0.27538868938E+02  0.55066573557E+02  0.41800000000E+01 0.  1.
         -5    1    4    4    0  501 -0.37547041756E+02  0.20572439360E+02 -0.78790422075E+02  0.89768639382E+02  0.41800000000E+01 0.  1.
</event>
<event>
11    1  0.8551154E-009  0.1286825E+03  0.7561462E-02  0.1120898E+00
         22   -1    0    0    0    0  0.00000000000E+00  0.00000000000E+00  0.37652766039E+03  0.37652766039E+03  0.00000000000E+00 0.  1.
         22   -1    0    0    0    0 -0.00000000000E+00 -0.00000000000E+00 -0.13061243617E+03  0.13061243617E+03  0.00000000000E+00 0.  1.
         24    2    1    2    0    0 -0.28324948044E+02  0.24993052152E+01 -0.68056669474E+02  0.10847023111E+03  0.79533210478E+02 0.  0.
         25    2    1    2    0    0  0.41682521202E+02  0.99624528637E+01  0.91259264076E+02  0.16066489022E+03  0.12509304789E+03 0.  0.
        -24    2    1    2    0    0 -0.13357573158E+02 -0.12461758079E+02  0.22271262961E+03  0.23800497523E+03  0.81925165052E+02 0.  0.
        -11    1    3    3    0    0 -0.43368141049E+02 -0.27067692234E+02 -0.44582386933E+02  0.67831002097E+02  0.00000000000E+00 0.  1.
         12    1    3    3    0    0  0.15043193004E+02  0.29566997449E+02 -0.23474282542E+02  0.40639229013E+02  0.00000000000E+00 0. -1.
         13    1    5    5    0    0 -0.29407392751E+02 -0.79777793850E+01  0.24514604516E+02  0.39107614948E+02  0.00000000000E+00 0. -1.
        -14    1    5    5    0    0  0.16049819593E+02 -0.44839786938E+01  0.19819802510E+03  0.19889736028E+03  0.00000000000E+00 0.  1.
          5    1    4    4  501    0  0.54603521490E+02  0.12546384423E+02 -0.11191287569E+02  0.57285893889E+02  0.41800000000E+01 0.  1.
         -5    1    4    4    0  501 -0.12921000288E+02 -0.25839315594E+01  0.10245055165E+03  0.10337899633E+03  0.41800000000E+01 0.  1.
</event>
<event>
11    1  0.8551154E-009  0.1449384E+03  0.7561462E-02  0.1102166E+00
         22   -1    0    0    0    0  0.00000000000E+00  0.00000000000E+00  0.14597335610E+03  0.14597335610E+03  0.00000000000E+00 0.  1.
         22   -1    0    0    0    0 -0.00000000000E+00 -0.00000000000E+00 -0.19088821757E+04  0.19088821757E+04  0.00000000000E+00 0.  1.
         24    2    1    2    0    0 -0.36489782680E+02  0.62593113604E+02 -0.17199513316E+04  0.17232900475E+04  0.79035451835E+02 0.  0.
         25    2    1    2    0    0  0.11730464286E+02 -0.97517195816E+02 -0.12988915874E+03  0.20533908073E+03  0.12508292147E+03 0.  0.
        -24    2    1    2    0    0  0.24759318394E+02  0.34924082212E+02  0.86931670768E+02  0.12622640354E+03  0.80890507490E+02 0.  0.
        -13    1    3    3    0    0 -0.42332625334E+02  0.22444152329E+02 -0.13940245359E+04  0.13948477329E+04  0.00000000000E+00 0.  1.
         14    1    3    3    0    0  0.58428426545E+01  0.40148961275E+02 -0.32592679573E+03  0.32844231468E+03  0.00000000000E+00 0. -1.
         11    1    5    5    0    0  0.13908214335E+02  0.44558003971E+02  0.97410991975E+01  0.47683782961E+02  0.00000000000E+00 0. -1.
        -12    1    5    5    0    0  0.10851104059E+02 -0.96339217591E+01  0.77190571571E+02  0.78542620578E+02  0.00000000000E+00 0.  1.
          5    1    4    4  501    0  0.18229766437E+02 -0.37544401979E+01 -0.10676830891E+03  0.10845904477E+03  0.41800000000E+01 0. -1.
         -5    1    4    4    0  501 -0.64993021514E+01 -0.93762755618E+02 -0.23120849827E+02  0.96880035953E+02  0.41800000000E+01 0. -1.
</event>
<event>
11    1  0.8551154E-009  0.1918650E+03  0.7561462E-02  0.1060430E+00
         22   -1    0    0    0    0  0.00000000000E+00  0.00000000000E+00  0.12685645872E+04  0.12685645872E+04  0.00000000000E+00 0. -1.
         22   -1    0    0    0    0 -0.00000000000E+00 -0.00000000000E+00 -0.11446644534E+04  0.11446644534E+04  0.00000000000E+00 0. -1.
        -24    2    1    2    0    0  0.35656834107E+02  0.14037260346E+03 -0.10985091484E+04  0.11109470762E+04  0.80654691472E+02 0.  0.
         25    2    1    2    0    0 -0.14135096510E+02 -0.18168273499E+03  0.28689665286E+03  0.36216629180E+03  0.12508523631E+03 0.  0.
         24    2    1    2    0    0 -0.21521737597E+02  0.41310131531E+02  0.93551262939E+03  0.94011567266E+03  0.80398296483E+02 0.  0.
        -11    1    5    5    0    0 -0.20715170705E+02 -0.16861148782E+02  0.50290176785E+03  0.50361056854E+03  0.00000000000E+00 0.  1.
         12    1    5    5    0    0 -0.80656689247E+00  0.58171280313E+02  0.43261086154E+03  0.43650510412E+03  0.00000000000E+00 0. -1.
         11    1    3    3    0    0  0.11443021218E+02  0.13682934995E+03 -0.82529319004E+03  0.83663735469E+03  0.00000000000E+00 0. -1.
        -12    1    3    3    0    0  0.24213812888E+02  0.35432535084E+01 -0.27321595838E+03  0.27430972147E+03  0.00000000000E+00 0.  1.
          5    1    4    4  501    0  0.54448989648E+02 -0.81493086659E+02  0.14892578959E+03  0.17833165410E+03  0.41800000000E+01 0.  1.
         -5    1    4    4    0  501 -0.68584086158E+02 -0.10018964833E+03  0.13797086327E+03  0.18383463770E+03  0.41800000000E+01 0.  1.
</event>
<event>
11    1  0.8551154E-009  0.1334291E+03  0.7561462E-02  0.1115126E+00
         22   -1    0    0    0    0  0.00000000000E+00  0.00000000000E+00  0.54307425912E+03  0.54307425912E+03  0.00000000000E+00 0. -1.
         22   -1    0    0    0    0 -0.00000000000E+00 -0.00000000000E+00 -0.26161718779E+03  0.26161718779E+03  0.00000000000E+00 0.  1.
         24    2    1    2    0    0 -0.32885419700E+02  0.24568023223E+02 -0.18344163123E+03  0.20610853621E+03  0.84527262085E+02 0.  0.
         25    2    1    2    0    0 -0.15449874288E+02 -0.29748909843E+02  0.58544100830E+01  0.12963618326E+03  0.12509024598E+03 0.  0.
        -24    2    1    2    0    0  0.48335293988E+02  0.51808866199E+01  0.45904429249E+03  0.46894672744E+03  0.82620992967E+02 0.  0.
        -11    1    3    3    0    0 -0.45696299384E+02  0.15297363707E+02 -0.18407929024E+03  0.19028228033E+03  0.00000000000E+00 0.  1.
         12    1    3    3    0    0  0.12810879683E+02  0.92706595156E+01  0.63765900574E+00  0.15826255878E+02  0.00000000000E+00 0. -1.
         11    1    5    5    0    0  0.59248930598E+02  0.27750199013E+02  0.39089874781E+03  0.39633614566E+03  0.00000000000E+00 0. -1.
        -12    1    5    5    0    0 -0.10913636609E+02 -0.22569312393E+02  0.68145544680E+02  0.72610581774E+02  0.00000000000E+00 0.  1.
          5    1    4    4  501    0 -0.48866647829E+02 -0.11659226781E+01  0.47963069810E+02  0.68609307760E+02  0.41800000000E+01 0. -1.
         -5    1    4    4    0  501  0.33416773540E+02 -0.28582987165E+02 -0.42108659727E+02  0.61026875499E+02  0.41800000000E+01 0. -1.
</event>
<event>
11    1  0.8551154E-009  0.1384786E+03  0.7561462E-02  0.1109269E+00
         22   -1    0    0    0    0  0.00000000000E+00  0.00000000000E+00  0.36322917435E+03  0.36322917435E+03  0.00000000000E+00 0.  1.
         22   -1    0    0    0    0 -0.00000000000E+00 -0.00000000000E+00 -0.57864860912E+03  0.57864860912E+03  0.00000000000E+00 0. -1.
         24    2    1    2    0    0  0.15230588917E+02  0.17660625683E+02 -0.51041027201E+03  0.51727639308E+03  0.80699148243E+02 0.  0.
         25    2    1    2    0    0 -0.52572720783E+02 -0.57290833979E+02  0.55217702737E+02  0.15729908246E+03  0.12509147060E+03 0.  0.
        -24    2    1    2    0    0  0.37342131865E+02  0.39630208296E+02  0.23977313451E+03  0.26730230793E+03  0.10485408704E+03 0.  0.
        -13    1    3    3    0    0  0.11535904371E+02 -0.72424566945E+01 -0.11772237276E+02  0.18003217465E+02  0.00000000000E+00 0.  1.
         14    1    3    3    0    0  0.36946845468E+01  0.24903082377E+02 -0.49863803474E+03  0.49927317562E+03  0.00000000000E+00 0. -1.
         11    1    5    5    0    0  0.57685724757E+02  0.58427730333E+02  0.12739996463E+03  0.15156580584E+03  0.00000000000E+00 0. -1.
        -12    1    5    5    0    0 -0.20343592892E+02 -0.18797522036E+02  0.11237316988E+03  0.11573650209E+03  0.00000000000E+00 0.  1.
          5    1    4    4  501    0 -0.37814105661E+02  0.31957085196E+02 -0.27782909843E+01  0.49762969987E+02  0.41800000000E+01 0.  1.
         -5    1    4    4    0  501 -0.14758615122E+02 -0.89247919175E+02  0.57995993721E+02  0.10753611247E+03  0.41800000000E+01 0.  1.
</event>
<event>
11    1  0.8551154E-009  0.1519202E+03  0.7561462E-02  0.1094933E+00
         22   -1    0    0    0    0  0.00000000000E+00  0.00000000000E+00  0.26614200494E+03  0.26614200494E+03  0.00000000000E+00 0.  1.
         22   -1    0    0    0    0 -0.00000000000E+00 -0.00000000000E+00 -0.61021826734E+03  0.61021826734E+03  0.00000000000E+00 0.  1.
         24    2    1    2    0    0 -0.40375908491E+02  0.70409913877E-01 -0.51133900284E+03  0.51913795846E+03  0.80040147079E+02 0.  0.
         25    2    1    2    0    0  0.74514259223E+02 -0.75230221415E+02  0.12371378112E+02  0.16435300011E+03  0.12508755576E+03 0.  0.
        -24    2    1    2    0    0 -0.34138350731E+02  0.75159811501E+02  0.15489136233E+03  0.19286931371E+03  0.79955073585E+02 0.  0.
        -13    1    3    3    0    0  0.14231825942E+02  0.24881610178E+02 -0.20363979844E+03  0.20564728762E+03  0.00000000000E+00 0.  1.
         14    1    3    3    0    0 -0.54607734433E+02 -0.24811200264E+02 -0.30769920439E+03  0.31349067084E+03  0.00000000000E+00 0. -1.
         11    1    5    5    0    0 -0.19286067339E+02 -0.11324950123E+02  0.12530017021E+02  0.25636072539E+02  0.00000000000E+00 0. -1.
        -12    1    5    5    0    0 -0.14852283392E+02  0.86484761624E+02  0.14236134531E+03  0.16723324117E+03  0.00000000000E+00 0.  1.
          5    1    4    4  501    0  0.42037975308E+02 -0.88738940289E+02  0.52009205482E+02  0.11119451761E+03  0.41800000000E+01 0.  1.
         -5    1    4    4    0  501  0.32476283914E+02  0.13508718875E+02 -0.39637827371E+02  0.53158482495E+02  0.41800000000E+01 0.  1.
</event>
<event>
11    1  0.8551154E-009  0.1412227E+03  0.7561462E-02  0.1106201E+00
         22   -1    0    0    0    0  0.00000000000E+00  0.00000000000E+00  0.21255339814E+03  0.21255339814E+03  0.00000000000E+00 0.  1.
         22   -1    0    0    0    0 -0.00000000000E+00 -0.00000000000E+00 -0.63946007038E+03  0.63946007038E+03  0.00000000000E+00 0. -1.
         24    2    1    2    0    0 -0.37763465442E+02  0.56816313125E+02 -0.55348099999E+03  0.56327813670E+03  0.79289779730E+02 0.  0.
         25    2    1    2    0    0 -0.40164077875E+02 -0.50099100255E+02  0.20821522759E+02  0.14213962435E+03  0.12508822488E+03 0.  0.
        -24    2    1    2    0    0  0.77927543317E+02 -0.67172128695E+01  0.10575280499E+03  0.14659570748E+03  0.64721115026E+02 0.  0.
        -11    1    3    3    0    0 -0.31340256316E+01 -0.19159495162E+02 -0.70089333554E+02  0.72728419820E+02  0.00000000000E+00 0.  1.
         12    1    3    3    0    0 -0.34629439811E+02  0.75975808286E+02 -0.48339166644E+03  0.49054971688E+03  0.00000000000E+00 0. -1.
         11    1    5    5    0    0  0.37222584344E+02  0.34661495218E+01  0.53328631585E+01  0.37762076310E+02  0.00000000000E+00 0. -1.
        -12    1    5    5    0    0  0.40704958973E+02 -0.10183362391E+02  0.10041994184E+03  0.10883363117E+03  0.00000000000E+00 0.  1.
          5    1    4    4  501    0 -0.81434325884E+02 -0.88707452135E+01  0.95262122692E+01  0.82573970917E+02  0.41800000000E+01 0.  1.
         -5    1    4    4    0  501  0.41270248009E+02 -0.41228355042E+02  0.11295310489E+02  0.59565653436E+02  0.41800000000E+01 0.  1.
</event>
<event>
11    1  0.8551154E-009  0.1477417E+03  0.7561462E-02  0.1099209E+00
         22   -1    0    0    0    0  0.00000000000E+00  0.00000000000E+00  0.21369777390E+04  0.21369777390E+04  0.00000000000E+00 0. -1.
         22   -1    0    0    0    0 -0.00000000000E+00 -0.00000000000E+00 -0.45691708859E+02  0.45691708859E+02  0.00000000000E+00 0.  1.
         24    2    1    2    0    0  0.20763400979E+02 -0.76153933142E+02  0.41695337313E+02  0.11970773621E+03  0.79755254390E+02 0.  0.
         25    2    1    2    0    0 -0.49409346508E+01  0.75510412743E+02  0.10928263165E+04  0.11025621104E+04  0.12509042329E+03 0.  0.
        -24    2    1    2    0    0 -0.15822466328E+02  0.64352039884E+00  0.95676437635E+03  0.96039960126E+03  0.81966808474E+02 0.  0.
        -11    1    3    3    0    0  0.43846698928E+02 -0.56675030084E+02  0.45050118203E+01  0.71797542948E+02  0.00000000000E+00 0.  1.
         12    1    3    3    0    0 -0.23083297949E+02 -0.19478903059E+02  0.37190325493E+02  0.47910193267E+02  0.00000000000E+00 0. -1.
         11    1    5    5    0    0 -0.28397127700E+02  0.47994184868E+01  0.93086653717E+03  0.93131194629E+03  0.00000000000E+00 0. -1.
        -12    1    5    5    0    0  0.12574661372E+02 -0.41558980880E+01  0.25897839178E+02  0.29087654970E+02  0.00000000000E+00 0.  1.
          5    1    4    4  501    0  0.43560695850E+02 -0.11479285714E+02  0.27736577004E+03  0.28103122782E+03  0.41800000000E+01 0. -1.
         -5    1    4    4    0  501 -0.48501630500E+02  0.86989698458E+02  0.81546054648E+03  0.82153088259E+03  0.41800000000E+01 0. -1.
</event>
<event>
11    1  0.1006329E-008  0.1948098E+03  0.7561462E-02  0.1058256E+00
         22   -1    0    0    0    0  0.00000000000E+00  0.00000000000E+00  0.67680515964E+03  0.67680515964E+03  0.00000000000E+00 0.  1.
         22   -1    0    0    0    0 -0.00000000000E+00 -0.00000000000E+00 -0.11562642693E+04  0.11562642693E+04  0.00000000000E+00 0.  1.
         24    2    1    2    0    0 -0.55468000112E+02  0.34329419462E+02 -0.85537891107E+03  0.86191573191E+03  0.83489157063E+02 0.  0.
         25    2    1    2    0    0  0.20007917447E+03 -0.60653468485E+02 -0.23421283450E+03  0.33795498791E+03  0.12508957875E+03 0.  0.
        -24    2    1    2    0    0 -0.14461117436E+03  0.26324049023E+02  0.61013263587E+03  0.63319870915E+03  0.84103653979E+02 0.  0.
        -13    1    3    3    0    0 -0.15351990667E+02 -0.26412684954E+02 -0.34850479580E+03  0.34984125863E+03  0.00000000000E+00 0.  1.
         14    1    3    3    0    0 -0.40116009445E+02  0.60742104416E+02 -0.50687411526E+03  0.51207447328E+03  0.00000000000E+00 0. -1.
         13    1    5    5    0    0 -0.48003526475E+02  0.46815719136E+02  0.18590341886E+03  0.19762624131E+03  0.00000000000E+00 0. -1.
        -14    1    5    5    0    0 -0.96607647882E+02 -0.20491670113E+02  0.42422921701E+03  0.43557246784E+03  0.00000000000E+00 0.  1.
          5    1    4    4  501    0  0.12327441530E+02  0.28096998560E+02 -0.57216213422E+02  0.65058240225E+02  0.41800000000E+01 0.  1.
         -5    1    4    4    0  501  0.18775173294E+03 -0.88750467045E+02 -0.17699662108E+03  0.27289674768E+03  0.41800000000E+01 0.  1.
</event>
<event>
11    1  0.8551154E-009  0.1283195E+03  0.7561462E-02  0.1121351E+00
         22   -1    0    0    0    0  0.00000000000E+00  0.00000000000E+00  0.32109812598E+03  0.32109812598E+03  0.00000000000E+00 0.  1.
         22   -1    0    0    0    0 -0.00000000000E+00 -0.00000000000E+00 -0.76861580019E+03  0.76861580019E+03  0.00000000000E+00 0. -1.
        -24    2    1    2    0    0  0.23184762695E+00 -0.99018834612E+01 -0.58810853622E+03  0.59384070431E+03  0.81713099704E+02 0.  0.
         25    2    1    2    0    0  0.10246626705E+02  0.36127356558E+02 -0.14557058884E+03  0.19557264004E+03  0.12509069487E+03 0.  0.
         24    2    1    2    0    0 -0.10478474332E+02 -0.26225473097E+02  0.28616145086E+03  0.30030058183E+03  0.86570720365E+02 0.  0.
        -11    1    5    5    0    0  0.13302022047E+02 -0.39678685707E+02  0.25682230753E+03  0.26020960692E+03  0.00000000000E+00 0.  1.
         12    1    5    5    0    0 -0.23780496380E+02  0.13453212610E+02  0.29339143334E+02  0.40090974909E+02  0.00000000000E+00 0. -1.
         11    1    3    3    0    0 -0.34570072799E+02  0.40391807829E+00 -0.43974617726E+03  0.44110310982E+03  0.00000000000E+00 0. -1.
        -12    1    3    3    0    0  0.34801920425E+02 -0.10305801540E+02 -0.14836235897E+03  0.15273759448E+03  0.00000000000E+00 0.  1.
          5    1    4    4  501    0  0.49707440475E+02 -0.25793651109E+02 -0.51779974115E+02  0.76385732931E+02  0.41800000000E+01 0. -1.
         -5    1    4    4    0  501 -0.39460813769E+02  0.61921007667E+02 -0.93790614730E+02  0.11918690710E+03  0.41800000000E+01 0. -1.
</event>
<event>
11    1  0.8551154E-009  0.1536269E+03  0.7561462E-02  0.1093229E+00
         22   -1    0    0    0    0  0.00000000000E+00  0.00000000000E+00  0.20067907458E+03  0.20067907458E+03  0.00000000000E+00 0.  1.
         22   -1    0    0    0    0 -0.00000000000E+00 -0.00000000000E+00 -0.89075094183E+03  0.89075094183E+03  0.00000000000E+00 0.  1.
         24    2    1    2    0    0  0.77829089116E+01  0.25577495108E+01 -0.78580664556E+03  0.78999882332E+03  0.80863717966E+02 0.  0.
         25    2    1    2    0    0 -0.58977589284E+02  0.69561483369E+02  0.96500670292E+01  0.15510751599E+03  0.12509221286E+03 0.  0.
        -24    2    1    2    0    0  0.51194680372E+02 -0.72119232880E+02  0.86084711279E+02  0.14632367710E+03  0.78600012170E+02 0.  0.
        -13    1    3    3    0    0  0.70645820934E+01 -0.10307701697E+02 -0.76755638516E+03  0.76765810191E+03  0.00000000000E+00 0.  1.
         14    1    3    3    0    0  0.71832681814E+00  0.12865451208E+02 -0.18250260404E+02  0.22340721408E+02  0.00000000000E+00 0. -1.
         11    1    5    5    0    0  0.11224962504E+02  0.16905322461E+02  0.10238577466E+02  0.22729236223E+02  0.00000000000E+00 0. -1.
        -12    1    5    5    0    0  0.39969717869E+02 -0.89024555342E+02  0.75846133813E+02  0.12359444087E+03  0.00000000000E+00 0.  1.
          5    1    4    4  501    0  0.27352926927E+02  0.61037736638E+02  0.12670308797E+02  0.68204083678E+02  0.41800000000E+01 0. -1.
         -5    1    4    4    0  501 -0.86330516211E+02  0.85237467312E+01 -0.30202417676E+01  0.86903432314E+02  0.41800000000E+01 0. -1.
</event>
<event>
11    1  0.8551154E-009  0.1437295E+03  0.7561462E-02  0.1103464E+00
         22   -1    0    0    0    0  0.00000000000E+00  0.00000000000E+00  0.79290768689E+03  0.79290768689E+03  0.00000000000E+00 0.  1.
         22   -1    0    0    0    0 -0.00000000000E+00 -0.00000000000E+00 -0.87781790365E+03  0.87781790365E+03  0.00000000000E+00 0.  1.
        -24    2    1    2    0    0 -0.65608616281E+02 -0.25074061348E+02 -0.83731534288E+03  0.84403482551E+03  0.79778469331E+02 0.  0.
         25    2    1    2    0    0  0.84452792859E+02  0.64536379673E+02  0.16267292371E+03  0.23110484516E+03  0.12509896413E+03 0.  0.
         24    2    1    2    0    0 -0.18844176578E+02 -0.39462318325E+02  0.58973220243E+03  0.59558591987E+03  0.70895273537E+02 0.  0.
        -13    1    5    5    0    0  0.20622172454E+01 -0.31609739989E+02  0.54159504780E+03  0.54252062100E+03  0.00000000000E+00 0.  1.
         14    1    5    5    0    0 -0.20906393823E+02 -0.78525783356E+01  0.48137154623E+02  0.53065298872E+02  0.00000000000E+00 0. -1.
         11    1    3    3    0    0 -0.17453224272E+02  0.28865992579E+02 -0.24007724198E+03  0.24243544023E+03  0.00000000000E+00 0. -1.
        -12    1    3    3    0    0 -0.48155392009E+02 -0.53940053926E+02 -0.59723810090E+03  0.60159938528E+03  0.00000000000E+00 0.  1.
          5    1    4    4  501    0  0.99215059769E+02  0.16041242459E+01  0.95295177179E+02  0.13764027206E+03  0.41800000000E+01 0.  1.
         -5    1    4    4    0  501 -0.14762266910E+02  0.62932255427E+02  0.67377746526E+02  0.93464573098E+02  0.41800000000E+01 0.  1.
</event>
<event>
11    1  0.8551154E-009  0.1449065E+03  0.7561462E-02  0.1102200E+00
         22   -1    0    0    0    0  0.00000000000E+00  0.00000000000E+00  0.69908006234E+03  0.69908006234E+03  0.00000000000E+00 0. -1.
         22   -1    0    0    0    0 -0.00000000000E+00 -0.00000000000E+00 -0.14671868673E+04  0.14671868673E+04  0.00000000000E+00 0. -1.
         24    2    1    2    0    0 -0.65355385506E+02  0.33136071018E+02 -0.13439230550E+04  0.13483415790E+04  0.80786820402E+02 0.  0.
         25    2    1    2    0    0  0.49806410947E+02 -0.57312820362E+02 -0.72879238080E+02  0.16347356101E+03  0.12508710507E+03 0.  0.
        -24    2    1    2    0    0  0.15548974559E+02  0.24176749343E+02  0.64869548813E+03  0.65445178959E+03  0.81700812509E+02 0.  0.
        -13    1    3    3    0    0 -0.48665009830E+02  0.54568547674E+02 -0.69182641084E+03  0.69567937465E+03  0.00000000000E+00 0.  1.
         14    1    3    3    0    0 -0.16690375675E+02 -0.21432476656E+02 -0.65209664417E+03  0.65266220439E+03  0.00000000000E+00 0. -1.
         11    1    5    5    0    0 -0.65531688569E+01  0.12779090765E+02  0.59610699556E+03  0.59627996724E+03  0.00000000000E+00 0. -1.
        -12    1    5    5    0    0  0.22102143416E+02  0.11397658578E+02  0.52588492572E+02  0.58171822351E+02  0.00000000000E+00 0.  1.
          5    1    4    4  501    0  0.63458398857E+02 -0.58400093062E+02  0.28628629411E+01  0.86389858429E+02  0.41800000000E+01 0. -1.
         -5    1    4    4    0  501 -0.13651987910E+02  0.10872727006E+01 -0.75742101021E+02  0.77083702577E+02  0.41800000000E+01 0. -1.
</event>
<event>
11    1  0.8551154E-009  0.2194201E+03  0.7561462E-02  0.1041581E+00
         22   -1    0    0    0    0  0.00000000000E+00  0.00000000000E+00  0.57329139117E+03  0.57329139117E+03  0.00000000000E+00 0. -1.
         22   -1    0    0    0    0 -0.00000000000E+00 -0.00000000000E+00 -0.59497984167E+03  0.59497984167E+03  0.00000000000E+00 0. -1.
        -24    2    1    2    0    0 -0.83993911177E+02 -0.15143940835E+03 -0.40299416375E+03  0.44583217132E+03  0.79832057761E+02 0.  0.
         25    2    1    2    0    0  0.92654301858E+02  0.18883879697E+03 -0.76106196037E+02  0.25628838407E+03  0.12508665732E+03 0.  0.
         24    2    1    2    0    0 -0.86603906802E+01 -0.37399388623E+02  0.45741190929E+03  0.46615067745E+03  0.81222427230E+02 0.  0.
        -11    1    5    5    0    0 -0.22842413053E+02 -0.10941738404E+02  0.38008427479E+02  0.45674260069E+02  0.00000000000E+00 0.  1.
         12    1    5    5    0    0  0.14182022373E+02 -0.26457650219E+02  0.41940348182E+03  0.42047641738E+03  0.00000000000E+00 0. -1.
         11    1    3    3    0    0 -0.68967031659E+02 -0.15898536185E+03 -0.37622629004E+03  0.41422097733E+03  0.00000000000E+00 0. -1.
        -12    1    3    3    0    0 -0.15026879518E+02  0.75459535062E+01 -0.26767873709E+02  0.31611193987E+02  0.00000000000E+00 0.  1.
          5    1    4    4  501    0  0.79694986862E+02  0.53265578874E+02 -0.72022685443E+02  0.11997188188E+03  0.41800000000E+01 0.  1.
         -5    1    4    4    0  501  0.12959314995E+02  0.13557321810E+03 -0.40835105948E+01  0.13631650219E+03  0.41800000000E+01 0.  1.
</event>
<event>
11    1  0.8551154E-009  0.2936074E+03  0.7561462E-02  0.1002934E+00
         22   -1    0    0    0    0  0.00000000000E+00  0.00000000000E+00  0.62637478038E+03  0.62637478038E+03  0.00000000000E+00 0.  1.
         22   -1    0    0    0    0 -0.00000000000E+00 -0.00000000000E+00 -0.27423298689E+04  0.27423298689E+04  0.00000000000E+00 0. -1.
        -24    2    1    2    0    0 -0.18670761819E+02 -0.43603131249E+02 -0.25988355703E+04  0.26004260069E+04  0.77583924535E+02 0.  0.
         25    2    1    2    0    0  0.38532615468E+02 -0.23581372643E+03  0.10163285303E+03  0.28821736784E+03  0.12508852178E+03 0.  0.
         24    2    1    2    0    0 -0.19861853649E+02  0.27941685768E+03  0.38124762875E+03  0.48006127457E+03  0.81491099686E+02 0.  0.
        -13    1    5    5    0    0 -0.23123238714E+02  0.88199797236E+02  0.18382973639E+03  0.20520053699E+03  0.00000000000E+00 0.  1.
         14    1    5    5    0    0  0.32613850653E+01  0.19121706045E+03  0.19741789236E+03  0.27486073758E+03  0.00000000000E+00 0. -1.
         13    1    3    3    0    0 -0.27651820588E+02 -0.38773474608E+02 -0.25540589280E+04  0.25545028897E+04  0.00000000000E+00 0. -1.
        -14    1    3    3    0    0  0.89810587682E+01 -0.48296566406E+01 -0.44776642307E+02  0.45923117230E+02  0.00000000000E+00 0.  1.
          5    1    4    4  501    0  0.27009460208E+02  0.49579977694E+01  0.37847416889E+01  0.28033718131E+02  0.41800000000E+01 0. -1.
         -5    1    4    4    0  501  0.11523155260E+02 -0.24077172420E+03  0.97848111340E+02  0.26018364971E+03  0.41800000000E+01 0. -1.
</event>
<event>
11    1  0.8551154E-009  0.1304082E+03  0.7561462E-02  0.1118768E+00
         22   -1    0    0    0    0  0.00000000000E+00  0.00000000000E+00  0.97827417870E+03  0.97827417870E+03  0.00000000000E+00 0. -1.
         22   -1    0    0    0    0 -0.00000000000E+00 -0.00000000000E+00 -0.16881320563E+04  0.16881320563E+04  0.00000000000E+00 0. -1.
         24    2    1    2    0    0  0.98993112173E+01 -0.55536042876E+01 -0.14179376683E+04  0.14202709082E+04  0.80581526780E+02 0.  0.
         25    2    1    2    0    0 -0.36522273718E+02 -0.19763446238E+02 -0.25069624129E+03  0.28324503091E+03  0.12511863111E+03 0.  0.
        -24    2    1    2    0    0  0.26622962501E+02  0.25317050526E+02  0.95877603199E+03  0.96289029595E+03  0.80972262821E+02 0.  0.
        -11    1    3    3    0    0 -0.30840485763E+00  0.30528207640E+00  0.11009996938E+01  0.11834318857E+01  0.00000000000E+00 0.  1.
         12    1    3    3    0    0  0.10207716075E+02 -0.58588863640E+01 -0.14190386680E+04  0.14190874763E+04  0.00000000000E+00 0. -1.
         11    1    5    5    0    0 -0.13314368407E+02  0.13043389759E+02  0.73565710671E+03  0.73589318591E+03  0.00000000000E+00 0. -1.
        -12    1    5    5    0    0  0.39937330908E+02  0.12273660767E+02  0.22311892528E+03  0.22699711004E+03  0.00000000000E+00 0.  1.
          5    1    4    4  501    0  0.29144610328E+02 -0.40147332123E+02 -0.47974053497E+02  0.69138981745E+02  0.41800000000E+01 0. -1.
         -5    1    4    4    0  501 -0.65666884046E+02  0.20383885884E+02 -0.20272218779E+03  0.21410604916E+03  0.41800000000E+01 0. -1.
</event>
<event>
11    1  0.8551154E-009  0.1352181E+03  0.7561462E-02  0.1113019E+00
         22   -1    0    0    0    0  0.00000000000E+00  0.00000000000E+00  0.14414357381E+04  0.14414357381E+04  0.00000000000E+00 0.  1.
         22   -1    0    0    0    0 -0.00000000000E+00 -0.00000000000E+00 -0.47026721107E+03  0.47026721107E+03  0.00000000000E+00 0.  1.
        -24    2    1    2    0    0 -0.38057997966E+02  0.18217368006E+02 -0.44688504371E+03  0.45576421699E+03  0.78958821490E+02 0.  0.
         25    2    1    2    0    0  0.32379956183E+01 -0.57399743216E+02  0.26350851873E+03  0.29730365495E+03  0.12509000225E+03 0.  0.
         24    2    1    2    0    0  0.34820002348E+02  0.39182375210E+02  0.11545450520E+04  0.11586350772E+04  0.81934571470E+02 0.  0.
        -13    1    5    5    0    0 -0.22737296820E+02  0.21609626318E+02  0.60326840768E+03  0.60408338193E+03  0.00000000000E+00 0.  1.
         14    1    5    5    0    0  0.57557299168E+02  0.17572748892E+02  0.55127664428E+03  0.55455169526E+03  0.00000000000E+00 0. -1.
         11    1    3    3    0    0 -0.45762500786E+02  0.31413627713E+02 -0.17819427377E+03  0.18663928228E+03  0.00000000000E+00 0. -1.
        -12    1    3    3    0    0  0.77045028198E+01 -0.13196259706E+02 -0.26869076994E+03  0.26912493471E+03  0.00000000000E+00 0.  1.
          5    1    4    4  501    0 -0.81066892519E+01 -0.40910176737E+02  0.27196572357E+03  0.27517664902E+03  0.41800000000E+01 0.  1.
         -5    1    4    4    0  501  0.11344684870E+02 -0.16489566479E+02 -0.84572048367E+01  0.22127005923E+02  0.41800000000E+01 0.  1.
</event>
<event>
11    1  0.8551154E-009  0.1820065E+03  0.7561462E-02  0.1068031E+00
         22   -1    0    0    0    0  0.00000000000E+00  0.00000000000E+00  0.19946382709E+03  0.19946382709E+03  0.00000000000E+00 0. -1.
         22   -1    0    0    0    0 -0.00000000000E+00 -0.00000000000E+00 -0.58219465684E+03  0.58219465684E+03  0.00000000000E+00 0.  1.
        -24    2    1    2    0    0 -0.65675483809E+02 -0.11193878706E+03 -0.44613739411E+03  0.47203744372E+03  0.83289931127E+02 0.  0.
         25    2    1    2    0    0  0.10279222506E+03  0.11378705434E+03 -0.21172030896E+01  0.19789953922E+03  0.12508401100E+03 0.  0.
         24    2    1    2    0    0 -0.37116741251E+02 -0.18482672758E+01  0.65523767445E+02  0.11172150099E+03  0.82506127707E+02 0.  0.
        -11    1    5    5    0    0 -0.16962816994E+01  0.37358267715E+02  0.23054079247E+02  0.43931857554E+02  0.00000000000E+00 0.  1.
         12    1    5    5    0    0 -0.35420459552E+02 -0.39206534991E+02  0.42469688198E+02  0.67789643431E+02  0.00000000000E+00 0. -1.
         13    1    3    3    0    0  0.19418692387E+02 -0.29438454840E+02 -0.11766420833E+03  0.12283555739E+03  0.00000000000E+00 0. -1.
        -14    1    3    3    0    0 -0.85094176196E+02 -0.82500332224E+02 -0.32847318578E+03  0.34920188633E+03  0.00000000000E+00 0.  1.
          5    1    4    4  501    0  0.71704921261E+02  0.13477678371E+03  0.20202214330E+02  0.15405187121E+03  0.41800000000E+01 0. -1.
         -5    1    4    4    0  501  0.31087303799E+02 -0.20989729367E+02 -0.22319417419E+02  0.43847668015E+02  0.41800000000E+01 0. -1.
</event>
<event>
11    1  0.8551154E-009  0.1451709E+03  0.7561462E-02  0.1101918E+00
         22   -1    0    0    0    0  0.00000000000E+00  0.00000000000E+00  0.38674927774E+03  0.38674927774E+03  0.00000000000E+00 0.  1.
         22   -1    0    0    0    0 -0.00000000000E+00 -0.00000000000E+00 -0.27949711805E+03  0.27949711805E+03  0.00000000000E+00 0.  1.
        -24    2    1    2    0    0  0.35596693438E+02 -0.10343415905E+02 -0.20870617913E+03  0.22726120988E+03  0.81946796597E+02 0.  0.
         25    2    1    2    0    0  0.43634602462E+02  0.19607911788E+02  0.38450000183E+02  0.13933491739E+03  0.12508943981E+03 0.  0.
         24    2    1    2    0    0 -0.79231295900E+02 -0.92644958831E+01  0.27750833863E+03  0.29965026853E+03  0.80099789552E+02 0.  0.
        -13    1    5    5    0    0 -0.89907088845E+02 -0.24549112441E+02  0.24568106217E+03  0.26276439609E+03  0.00000000000E+00 0.  1.
         14    1    5    5    0    0  0.10675792945E+02  0.15284616558E+02  0.31827276457E+02  0.36885872431E+02  0.00000000000E+00 0. -1.
         13    1    3    3    0    0  0.11926939537E+02 -0.65504974853E+01  0.32203245398E+01  0.13983254062E+02  0.00000000000E+00 0. -1.
        -14    1    3    3    0    0  0.23669753901E+02 -0.37929184196E+01 -0.21192650367E+03  0.21327795581E+03  0.00000000000E+00 0.  1.
          5    1    4    4  501    0  0.68437122296E+02  0.93495859057E+01 -0.22369516766E+02  0.72724976075E+02  0.41800000000E+01 0.  1.
         -5    1    4    4    0  501 -0.24802519834E+02  0.10258325882E+02  0.60819516949E+02  0.66609941314E+02  0.41800000000E+01 0.  1.
</event>
<event>
11    1  0.8551154E-009  0.2370311E+03  0.7561462E-02  0.1031044E+00
         22   -1    0    0    0    0  0.00000000000E+00  0.00000000000E+00  0.82318813911E+03  0.82318813911E+03  0.00000000000E+00 0. -1.
         22   -1    0    0    0    0 -0.00000000000E+00 -0.00000000000E+00 -0.48359839468E+03  0.48359839468E+03  0.00000000000E+00 0.  1.
        -24    2    1    2    0    0  0.28606795362E+02  0.41904706211E+02 -0.39156269636E+03  0.40320162832E+03  0.81705904028E+02 0.  0.
         25    2    1    2    0    0  0.15237808161E+03  0.68287893506E+02  0.97426165209E+02  0.23026589380E+03  0.12509279766E+03 0.  0.
         24    2    1    2    0    0 -0.18098487697E+03 -0.11019259972E+03  0.63372627558E+03  0.67331901167E+03  0.82774177077E+02 0.  0.
        -11    1    5    5    0    0 -0.29610595618E+02 -0.12168781753E+02  0.21553692393E+03  0.21790142772E+03  0.00000000000E+00 0.  1.
         12    1    5    5    0    0 -0.15137428135E+03 -0.98023817963E+02  0.41818935165E+03  0.45541758396E+03  0.00000000000E+00 0. -1.
         11    1    3    3    0    0  0.74435737123E+01  0.30133258402E+02 -0.39166577731E+02  0.49974402074E+02  0.00000000000E+00 0. -1.
        -12    1    3    3    0    0  0.21163221649E+02  0.11771447809E+02 -0.35239611863E+03  0.35322722625E+03  0.00000000000E+00 0.  1.
          5    1    4    4  501    0 -0.16197015968E+02  0.18387060007E+02  0.36489724806E+02  0.44152006958E+02  0.41800000000E+01 0.  1.
         -5    1    4    4    0  501  0.16857509758E+03  0.49900833499E+02  0.60936440403E+02  0.18611388684E+03  0.41800000000E+01 0.  1.
</event>
<event>
11    1  0.8551154E-009  0.1452742E+03  0.7561462E-02  0.1101808E+00
         22   -1    0    0    0    0  0.00000000000E+00  0.00000000000E+00  0.85527114468E+03  0.85527114468E+03  0.00000000000E+00 0.  1.
         22   -1    0    0    0    0 -0.00000000000E+00 -0.00000000000E+00 -0.13203564482E+03  0.13203564482E+03  0.00000000000E+00 0. -1.
        -24    2    1    2    0    0  0.11301161781E+01 -0.24193926608E+01 -0.87048613495E+02  0.11881374136E+03  0.80821490960E+02 0.  0.
         25    2    1    2    0    0 -0.60483362289E+02  0.45894794232E+02  0.19447048083E+03  0.24335079470E+03  0.12504508032E+03 0.  0.
         24    2    1    2    0    0  0.59353246111E+02 -0.43475401571E+02  0.61581363252E+03  0.62514225344E+03  0.78507889163E+02 0.  0.
        -13    1    5    5    0    0  0.53779078700E+02 -0.31784437483E+02  0.60514883101E+03  0.60836465006E+03  0.00000000000E+00 0.  1.
         14    1    5    5    0    0  0.55741674112E+01 -0.11690964088E+02  0.10664801518E+02  0.16777603376E+02  0.00000000000E+00 0. -1.
         13    1    3    3    0    0 -0.48473261421E+01 -0.29799665400E+02 -0.85580829198E+02  0.90750178815E+02  0.00000000000E+00 0. -1.
        -14    1    3    3    0    0  0.59774423202E+01  0.27380272739E+02 -0.14677842969E+01  0.28063562545E+02  0.00000000000E+00 0.  1.
          5    1    4    4  501    0 -0.82274446867E+02  0.96216964016E+00  0.16696774790E+03  0.18618730252E+03  0.41800000000E+01 0. -1.
         -5    1    4    4    0  501  0.21791084579E+02  0.44932624592E+02  0.27502732926E+02  0.57163492180E+02  0.41800000000E+01 0. -1.
</event>
<event>
11    1  0.8551154E-009  0.1665312E+03  0.7561462E-02  0.1081090E+00
         22   -1    0    0    0    0  0.00000000000E+00  0.00000000000E+00  0.12946037169E+04  0.12946037169E+04  0.00000000000E+00 0.  1.
         22   -1    0    0    0    0 -0.00000000000E+00 -0.00000000000E+00 -0.32437338897E+03  0.32437338897E+03  0.00000000000E+00 0. -1.
         24    2    1    2    0    0  0.10267288855E+03  0.20737423409E+02 -0.23760324305E+03  0.27474012881E+03  0.89750066829E+02 0.  0.
         25    2    1    2    0    0 -0.14833697237E+03 -0.23867437421E+02  0.77666285154E+02  0.21036482749E+03  0.12509115418E+03 0.  0.
        -24    2    1    2    0    0  0.45664083818E+02  0.31300140124E+01  0.11301672858E+04  0.11338721496E+04  0.79328129198E+02 0.  0.
        -11    1    3    3    0    0  0.52856817488E+02 -0.97165290569E+01 -0.35590489250E+02  0.64458800927E+02  0.00000000000E+00 0.  1.
         12    1    3    3    0    0  0.49816071060E+02  0.30453952466E+02 -0.20201275380E+03  0.21028132788E+03  0.00000000000E+00 0. -1.
         11    1    5    5    0    0  0.38933660605E+02 -0.31202413250E+02  0.44023027177E+03  0.44304865726E+03  0.00000000000E+00 0. -1.
        -12    1    5    5    0    0  0.67304232131E+01  0.34332427262E+02  0.68993701405E+03  0.69082349230E+03  0.00000000000E+00 0.  1.
          5    1    4    4  501    0 -0.28118009078E+02 -0.41621472146E+02  0.72962675128E+02  0.88679161814E+02  0.41800000000E+01 0. -1.
         -5    1    4    4    0  501 -0.12021896329E+03  0.17754034725E+02  0.47036100262E+01  0.12168566567E+03  0.41800000000E+01 0. -1.
</event>
<event>
11    1  0.8551154E-009  0.1702143E+03  0.7561462E-02  0.1077845E+00
         22   -1    0    0    0    0  0.00000000000E+00  0.00000000000E+00  0.42195365151E+03  0.42195365151E+03  0.00000000000E+00 0.  1.
         22   -1    0    0    0    0 -0.00000000000E+00 -0.00000000000E+00 -0.17567588899E+04  0.17567588899E+04  0.00000000000E+00 0. -1.
        -24    2    1    2    0    0  0.11426604303E+03 -0.16047721793E+02 -0.17041020896E+04  0.17098492201E+04  0.79411369671E+02 0.  0.
         25    2    1    2    0    0 -0.11384746145E+03  0.39967593693E+02  0.13616240313E+03  0.22078654867E+03  0.12509135472E+03 0.  0.
         24    2    1    2    0    0 -0.41858158061E+00 -0.23919871900E+02  0.23313444809E+03  0.24807677265E+03  0.81351575041E+02 0.  0.
        -11    1    5    5    0    0 -0.30289307444E+01  0.38293206673E+01  0.21448647218E+03  0.21454203519E+03  0.00000000000E+00 0.  1.
         12    1    5    5    0    0  0.26103491638E+01 -0.27749192568E+02  0.18647975916E+02  0.33534737463E+02  0.00000000000E+00 0. -1.
         13    1    3    3    0    0  0.12041622764E+03 -0.30081681404E+02 -0.15620083848E+04  0.15669317693E+04  0.00000000000E+00 0. -1.
        -14    1    3    3    0    0 -0.61501846067E+01  0.14033959611E+02 -0.14209370487E+03  0.14291745084E+03  0.00000000000E+00 0.  1.
          5    1    4    4  501    0 -0.26271644130E+02 -0.44568367313E+02  0.44219873611E+02  0.68186569590E+02  0.41800000000E+01 0.  1.
         -5    1    4    4    0  501 -0.87575817322E+02  0.84535961007E+02  0.91942529514E+02  0.15259997908E+03  0.41800000000E+01 0.  1.
</event>
<event>
11    1  0.8551154E-009  0.1526517E+03  0.7561462E-02  0.1094200E+00
         22   -1    0    0    0    0  0.00000000000E+00  0.00000000000E+00  0.25044295733E+03  0.25044295733E+03  0.00000000000E+00 0.  1.
         22   -1    0    0    0    0 -0.00000000000E+00 -0.00000000000E+00 -0.84143025135E+03  0.84143025135E+03  0.00000000000E+00 0. -1.
         24    2    1    2    0    0 -0.71292930766E+02  0.54522280551E+02 -0.69444679662E+03  0.70416574922E+03  0.74415643472E+02 0.  0.
         25    2    1    2    0    0  0.95133413397E+02  0.23558079651E+02 -0.75994357197E+02  0.17614761567E+03  0.12508993053E+03 0.  0.
        -24    2    1    2    0    0 -0.23840482631E+02 -0.78080360202E+02  0.17945385979E+03  0.21155984378E+03  0.76739614580E+02 0.  0.
        -13    1    3    3    0    0 -0.29464719122E+02  0.73905236555E+01 -0.67028348915E+02  0.73590686035E+02  0.00000000000E+00 0.  1.
         14    1    3    3    0    0 -0.41828211644E+02  0.47131756895E+02 -0.62741844770E+03  0.63057506319E+03  0.00000000000E+00 0. -1.
         11    1    5    5    0    0 -0.47841833081E+02 -0.31627769995E+02  0.71913578360E+02  0.91982169902E+02  0.00000000000E+00 0. -1.
        -12    1    5    5    0    0  0.24001350450E+02 -0.46452590207E+02  0.10754028143E+03  0.11957767388E+03  0.00000000000E+00 0.  1.
          5    1    4    4  501    0  0.48399356296E+02  0.44661899197E+02  0.18518601657E+02  0.68538995740E+02  0.41800000000E+01 0.  1.
         -5    1    4    4    0  501  0.46734057101E+02 -0.21103819546E+02 -0.94512958853E+02  0.10760861993E+03  0.41800000000E+01 0.  1.
</event>
<event>
11    1  0.8551154E-009  0.1554948E+03  0.7561462E-02  0.1091393E+00
         22   -1    0    0    0    0  0.00000000000E+00  0.00000000000E+00  0.36972963750E+03  0.36972963750E+03  0.00000000000E+00 0. -1.
         22   -1    0    0    0    0 -0.00000000000E+00 -0.00000000000E+00 -0.30722448651E+03  0.30722448651E+03  0.00000000000E+00 0.  1.
         24    2    1    2    0    0  0.30942259484E+02 -0.81476348932E+02 -0.20070733933E+03  0.23386921340E+03  0.82556368984E+02 0.  0.
         25    2    1    2    0    0  0.33818968945E+01  0.13399945915E+03  0.27297658523E+02  0.18535248724E+03  0.12507233942E+03 0.  0.
        -24    2    1    2    0    0 -0.34324156379E+02 -0.52523110214E+02  0.23591483180E+03  0.25773242337E+03  0.82664196454E+02 0.  0.
        -13    1    3    3    0    0  0.19581018178E+02 -0.59576995302E+02 -0.19954866651E+03  0.20917099452E+03  0.00000000000E+00 0.  1.
         14    1    3    3    0    0  0.11361241306E+02 -0.21899353631E+02 -0.11586728215E+01  0.24698218886E+02  0.00000000000E+00 0. -1.
         13    1    5    5    0    0 -0.42029552890E+01 -0.57337422660E+02  0.20993505447E+03  0.21766481563E+03  0.00000000000E+00 0. -1.
        -14    1    5    5    0    0 -0.30121201089E+02  0.48143124456E+01  0.25979777327E+02  0.40067607732E+02  0.00000000000E+00 0.  1.
          5    1    4    4  501    0 -0.28329727044E+02  0.14627901801E+03  0.23075465496E+02  0.15083127677E+03  0.41800000000E+01 0.  1.
         -5    1    4    4    0  501  0.31711623939E+02 -0.12279558861E+02  0.42221930268E+01  0.34521210474E+02  0.41800000000E+01 0.  1.
</event>
<event>
11    1  0.8551154E-009  0.1259859E+03  0.7561462E-02  0.1124302E+00
         22   -1    0    0    0    0  0.00000000000E+00  0.00000000000E+00  0.48642752218E+03  0.48642752218E+03  0.00000000000E+00 0.  1.
         22   -1    0    0    0    0 -0.00000000000E+00 -0.00000000000E+00 -0.29494851668E+03  0.29494851668E+03  0.00000000000E+00 0. -1.
        -24    2    1    2    0    0  0.25804123922E+02 -0.89402010296E+01 -0.23584308184E+03  0.24905330956E+03  0.75231720325E+02 0.  0.
         25    2    1    2    0    0 -0.89864441794E+01  0.60546547505E+01  0.33329883323E+02  0.12991715260E+03  0.12510064106E+03 0.  0.
         24    2    1    2    0    0 -0.16817679742E+02  0.28855462791E+01  0.39399220401E+03  0.40240557670E+03  0.80057670513E+02 0.  0.
        -11    1    5    5    0    0 -0.12645795855E+02  0.24419203930E+02  0.36508303731E+03  0.36611724598E+03  0.00000000000E+00 0.  1.
         12    1    5    5    0    0 -0.41718838873E+01 -0.21533657651E+02  0.28909166705E+02  0.36288330722E+02  0.00000000000E+00 0. -1.
         13    1    3    3    0    0  0.26931229703E+02  0.13457706580E+02 -0.21886291940E+03  0.22092392013E+03  0.00000000000E+00 0. -1.
        -14    1    3    3    0    0 -0.11271057817E+01 -0.22397907610E+02 -0.16980162443E+02  0.28129389423E+02  0.00000000000E+00 0.  1.
          5    1    4    4  501    0 -0.26878863168E+02  0.13552437901E+01  0.77339446614E+02  0.81994953342E+02  0.41800000000E+01 0. -1.
         -5    1    4    4    0  501  0.17892418989E+02  0.46994109604E+01 -0.44009563291E+02  0.47922199258E+02  0.41800000000E+01 0. -1.
</event>
<event>
11    1  0.8551154E-009  0.2125274E+03  0.7561462E-02  0.1046002E+00
         22   -1    0    0    0    0  0.00000000000E+00  0.00000000000E+00  0.48975480702E+03  0.48975480702E+03  0.00000000000E+00 0. -1.
         22   -1    0    0    0    0 -0.00000000000E+00 -0.00000000000E+00 -0.60311882410E+03  0.60311882410E+03  0.00000000000E+00 0. -1.
        -24    2    1    2    0    0  0.11129932305E+03 -0.12750792942E+03 -0.23129918929E+03  0.29748404753E+03  0.79697127901E+02 0.  0.
         25    2    1    2    0    0 -0.13302752224E+03  0.11429979992E+03 -0.29985964504E+03  0.36922562820E+03  0.12510392425E+03 0.  0.
         24    2    1    2    0    0  0.21728199184E+02  0.13208129496E+02  0.41779481725E+03  0.42616395539E+03  0.80103921450E+02 0.  0.
        -11    1    5    5    0    0  0.18708199427E+02 -0.31961014687E+02  0.14593324048E+03  0.15055900459E+03  0.00000000000E+00 0.  1.
         12    1    5    5    0    0  0.30199997571E+01  0.45169144184E+02  0.27186157677E+03  0.27560495080E+03  0.00000000000E+00 0. -1.
         13    1    3    3    0    0  0.91150934937E+02 -0.11969942228E+03 -0.23123750889E+03  0.27587538881E+03  0.00000000000E+00 0. -1.
        -14    1    3    3    0    0  0.20148388116E+02 -0.78085071395E+01 -0.61680398882E-01  0.21608658725E+02  0.00000000000E+00 0.  1.
          5    1    4    4  501    0 -0.22737015874E+02  0.73419979884E+02 -0.46670284950E+02  0.90016960815E+02  0.41800000000E+01 0. -1.
         -5    1    4    4    0  501 -0.11029050636E+03  0.40879820035E+02 -0.25318936009E+03  0.27920866738E+03  0.41800000000E+01 0. -1.
</event>
<event>
11    1  0.8551154E-009  0.1291717E+03  0.7561462E-02  0.1120291E+00
         22   -1    0    0    0    0  0.00000000000E+00  0.00000000000E+00  0.35782552577E+03  0.35782552577E+03  0.00000000000E+00 0. -1.
         22   -1    0    0    0    0 -0.00000000000E+00 -0.00000000000E+00 -0.15315334718E+04  0.15315334718E+04  0.00000000000E+00 0.  1.
         24    2    1    2    0    0  0.29185589894E+02  0.13065646851E+02 -0.13464995490E+04  0.13492105299E+04  0.79281200307E+02 0.  0.
         25    2    1    2    0    0 -0.44534156531E+02  0.11448529236E+02 -0.15355789989E+03  0.20332677267E+03  0.12508951974E+03 0.  0.
        -24    2    1    2    0    0  0.15348566637E+02 -0.24514176087E+02  0.32634950285E+03  0.33682169502E+03  0.78155824490E+02 0.  0.
        -11    1    3    3    0    0  0.35610032823E+02  0.41619391014E+02 -0.98861378812E+03  0.99013002692E+03  0.00000000000E+00 0.  1.
         12    1    3    3    0    0 -0.64244429287E+01 -0.28553744163E+02 -0.35788576089E+03  0.35908050298E+03  0.00000000000E+00 0. -1.
         11    1    5    5    0    0  0.42972989178E+02 -0.29766447504E+02  0.25124648917E+03  0.25662719559E+03  0.00000000000E+00 0. -1.
        -12    1    5    5    0    0 -0.27624422541E+02  0.52522714168E+01  0.75103013674E+02  0.80194499429E+02  0.00000000000E+00 0.  1.
          5    1    4    4  501    0  0.19280911197E+02  0.23153835472E+02  0.60236592135E+01  0.31009845275E+02  0.41800000000E+01 0.  1.
         -5    1    4    4    0  501 -0.63815067728E+02 -0.11705306236E+02 -0.15958155910E+03  0.17231692740E+03  0.41800000000E+01 0.  1.
</event>
<event>
11    1  0.8551154E-009  0.4362591E+03  0.7561462E-02  0.9548444E-01
         22   -1    0    0    0    0  0.00000000000E+00  0.00000000000E+00  0.72799636353E+03  0.72799636353E+03  0.00000000000E+00 0. -1.
         22   -1    0    0    0    0 -0.00000000000E+00 -0.00000000000E+00 -0.55074389492E+03  0.55074389492E+03  0.00000000000E+00 0. -1.
         24    2    1    2    0    0  0.21705845133E+03  0.28778023351E+03 -0.87904762481E+02  0.37970406011E+03  0.80722313536E+02 0.  0.
         25    2    1    2    0    0 -0.23105111265E+03 -0.46716949406E+03 -0.38311192971E+02  0.53734933363E+03  0.12507839945E+03 0.  0.
        -24    2    1    2    0    0  0.13992661319E+02  0.17938926055E+03  0.30346842406E+03  0.36168686471E+03  0.79674351795E+02 0.  0.
        -11    1    3    3    0    0  0.74900392561E+02  0.16521046436E+03 -0.35684344596E+02  0.18487276379E+03  0.00000000000E+00 0.  1.
         12    1    3    3    0    0  0.14215805877E+03  0.12256976914E+03 -0.52220417885E+02  0.19483129632E+03  0.00000000000E+00 0. -1.
         11    1    5    5    0    0 -0.81244347220E+01  0.95703242882E+02  0.91200812043E+02  0.13244887789E+03  0.00000000000E+00 0. -1.
        -12    1    5    5    0    0  0.22117096041E+02  0.83686017665E+02  0.21226761202E+03  0.22923798682E+03  0.00000000000E+00 0.  1.
          5    1    4    4  501    0 -0.11779108562E+03 -0.14251695814E+03  0.28288014215E+02  0.18709224291E+03  0.41800000000E+01 0.  1.
         -5    1    4    4    0  501 -0.11326002704E+03 -0.32465253592E+03 -0.66599207186E+02  0.35025709072E+03  0.41800000000E+01 0.  1.
</event>
<event>
11    1  0.8551154E-009  0.1428234E+03  0.7561462E-02  0.1104446E+00
         22   -1    0    0    0    0  0.00000000000E+00  0.00000000000E+00  0.10150749744E+04  0.10150749744E+04  0.00000000000E+00 0. -1.
         22   -1    0    0    0    0 -0.00000000000E+00 -0.00000000000E+00 -0.11032204526E+04  0.11032204526E+04  0.00000000000E+00 0. -1.
        -24    2    1    2    0    0 -0.45781449755E+02 -0.50900954519E+02 -0.10174425928E+04  0.10229210056E+04  0.80567398824E+02 0.  0.
         25    2    1    2    0    0  0.61732193452E+02  0.52800917900E+02 -0.12794173514E+02  0.14970022204E+03  0.12509062701E+03 0.  0.
         24    2    1    2    0    0 -0.15950743697E+02 -0.18999633811E+01  0.94209128806E+03  0.94567419942E+03  0.80657673766E+02 0.  0.
        -13    1    5    5    0    0  0.58175200139E+01  0.15822364529E+02  0.43615817476E+02  0.46760349577E+02  0.00000000000E+00 0.  1.
         14    1    5    5    0    0 -0.21768263711E+02 -0.17722327910E+02  0.89847547058E+03  0.89891384985E+03  0.00000000000E+00 0. -1.
         11    1    3    3    0    0  0.90147214281E+01 -0.43935373924E+02 -0.29741630484E+03  0.30077905624E+03  0.00000000000E+00 0. -1.
        -12    1    3    3    0    0 -0.54796171183E+02 -0.69655805952E+01 -0.72002628792E+03  0.72214194933E+03  0.00000000000E+00 0.  1.
          5    1    4    4  501    0  0.33566891522E+02 -0.34271152157E+02 -0.29654878234E+02  0.56552031614E+02  0.41800000000E+01 0.  1.
         -5    1    4    4    0  501  0.28165301929E+02  0.87072070057E+02  0.16860704720E+02  0.93148190430E+02  0.41800000000E+01 0.  1.
</event>
<event>
11    1  0.8551154E-009  0.1366770E+03  0.7561462E-02  0.1111327E+00
         22   -1    0    0    0    0  0.00000000000E+00  0.00000000000E+00  0.94026053660E+03  0.94026053660E+03  0.00000000000E+00 0. -1.
         22   -1    0    0    0    0 -0.00000000000E+00 -0.00000000000E+00 -0.35699530830E+03  0.35699530830E+03  0.00000000000E+00 0.  1.
        -24    2    1    2    0    0  0.20437964546E+02  0.46748752535E+02 -0.30638045455E+03  0.32037266948E+03  0.78527117338E+02 0.  0.
         25    2    1    2    0    0 -0.62148179351E+02 -0.77880519383E+02  0.11654041813E+03  0.19788200174E+03  0.12509135086E+03 0.  0.
         24    2    1    2    0    0  0.41710214805E+02  0.31131766848E+02  0.77310526473E+03  0.77900117368E+03  0.80263000962E+02 0.  0.
        -13    1    5    5    0    0  0.33292350901E+02  0.14314003842E+02  0.11386533416E+03  0.11949303602E+03  0.00000000000E+00 0.  1.
         14    1    5    5    0    0  0.84178639041E+01  0.16817763006E+02  0.65923993057E+03  0.65950813766E+03  0.00000000000E+00 0. -1.
         11    1    3    3    0    0 -0.38667203840E+01 -0.66593961624E+01  0.70360986518E+00  0.77326677556E+01  0.00000000000E+00 0. -1.
        -12    1    3    3    0    0  0.24304684930E+02  0.53408148698E+02 -0.30708406442E+03  0.31264000172E+03  0.00000000000E+00 0.  1.
          5    1    4    4  501    0 -0.83723780680E+02 -0.25947394301E+02  0.26546153772E+02  0.91679383737E+02  0.41800000000E+01 0.  1.
         -5    1    4    4    0  501  0.21575601329E+02 -0.51933125082E+02  0.89994264360E+02  0.10620261801E+03  0.41800000000E+01 0.  1.
</event>
<event>
11    1  0.8551154E-009  0.1316017E+03  0.7561462E-02  0.1117316E+00
         22   -1    0    0    0    0  0.00000000000E+00  0.00000000000E+00  0.16998332869E+04  0.16998332869E+04  0.00000000000E+00 0. -1.
         22   -1    0    0    0    0 -0.00000000000E+00 -0.00000000000E+00 -0.29957358516E+03  0.29957358516E+03  0.00000000000E+00 0. -1.
        -24    2    1    2    0    0  0.38108732725E+02  0.19967053620E+01 -0.17691920472E+03  0.19698073245E+03  0.77747936405E+02 0.  0.
         25    2    1    2    0    0 -0.36548842143E+02  0.38893285901E+02 -0.69894668342E+02  0.15290930453E+03  0.12508990846E+03 0.  0.
         24    2    1    2    0    0 -0.15598905814E+01 -0.40889991263E+02  0.16470735748E+04  0.16495168351E+04  0.79874925810E+02 0.  0.
        -11    1    5    5    0    0 -0.31549463363E+02  0.49273871025E+01  0.41485323168E+03  0.41608034275E+03  0.00000000000E+00 0.  1.
         12    1    5    5    0    0  0.29989572781E+02 -0.45817378365E+02  0.12322203431E+04  0.12334364923E+04  0.00000000000E+00 0. -1.
         11    1    3    3    0    0  0.27051432078E+02 -0.35725472211E+02 -0.70531386387E+02  0.83562945184E+02  0.00000000000E+00 0. -1.
        -12    1    3    3    0    0  0.11057300646E+02  0.37722177573E+02 -0.10638781834E+03  0.11341778727E+03  0.00000000000E+00 0.  1.
          5    1    4    4  501    0 -0.35746076196E+02  0.16493585136E+02  0.30489067408E+02  0.49968749689E+02  0.41800000000E+01 0.  1.
         -5    1    4    4    0  501 -0.80276594738E+00  0.22399700765E+02 -0.10038373575E+03  0.10294055484E+03  0.41800000000E+01 0.  1.
</event>
<event>
11    1  0.8551154E-009  0.1442801E+03  0.7561462E-02  0.1102871E+00
         22   -1    0    0    0    0  0.00000000000E+00  0.00000000000E+00  0.39384145604E+03  0.39384145604E+03  0.00000000000E+00 0. -1.
         22   -1    0    0    0    0 -0.00000000000E+00 -0.00000000000E+00 -0.84688942866E+03  0.84688942866E+03  0.00000000000E+00 0.  1.
         24    2    1    2    0    0 -0.57699691906E+02  0.42827616021E+02 -0.79631233117E+03  0.80342471633E+03  0.78832016924E+02 0.  0.
         25    2    1    2    0    0  0.60031485138E+02 -0.41522218914E+02  0.86480032122E+02  0.16868813439E+03  0.12509603054E+03 0.  0.
        -24    2    1    2    0    0 -0.23317932313E+01 -0.13053971071E+01  0.25678432642E+03  0.26861803398E+03  0.78805561739E+02 0.  0.
        -13    1    3    3    0    0 -0.46092431996E+02  0.59561872179E+02 -0.42992494078E+03  0.43647174435E+03  0.00000000000E+00 0.  1.
         14    1    3    3    0    0 -0.11607259910E+02 -0.16734256157E+02 -0.36638739039E+03  0.36695297198E+03  0.00000000000E+00 0. -1.
         11    1    5    5    0    0 -0.99867999245E+01 -0.36686245718E+02  0.17651845698E+03  0.18056683652E+03  0.00000000000E+00 0. -1.
        -12    1    5    5    0    0  0.76550066933E+01  0.35380848611E+02  0.80265869442E+02  0.88051197454E+02  0.00000000000E+00 0.  1.
          5    1    4    4  501    0 -0.15704463439E+02  0.33874692366E+02  0.17701735325E+02  0.41532502793E+02  0.41800000000E+01 0.  1.
         -5    1    4    4    0  501  0.75735948576E+02 -0.75396911280E+02  0.68778296798E+02  0.12715563160E+03  0.41800000000E+01 0.  1.
</event>
<event>
11    1  0.8551154E-009  0.1269110E+03  0.7561462E-02  0.1123124E+00
         22   -1    0    0    0    0  0.00000000000E+00  0.00000000000E+00  0.21672004881E+03  0.21672004881E+03  0.00000000000E+00 0.  1.
         22   -1    0    0    0    0 -0.00000000000E+00 -0.00000000000E+00 -0.55857646053E+03  0.55857646053E+03  0.00000000000E+00 0.  1.
         24    2    1    2    0    0  0.18450142582E+02 -0.47110247761E+00 -0.48374906797E+03  0.49108389618E+03  0.82520316455E+02 0.  0.
         25    2    1    2    0    0 -0.23231736568E+02  0.20206268117E+02  0.13431161400E+02  0.12951808936E+03  0.12508610042E+03 0.  0.
        -24    2    1    2    0    0  0.47815939866E+01 -0.19735165639E+02  0.12846149485E+03  0.15469452380E+03  0.83759773345E+02 0.  0.
        -13    1    3    3    0    0 -0.29076348981E+02  0.15744468075E+02 -0.23518337716E+03  0.23749640679E+03  0.00000000000E+00 0.  1.
         14    1    3    3    0    0  0.47526491563E+02 -0.16215570553E+02 -0.24856569082E+03  0.25358748940E+03  0.00000000000E+00 0. -1.
         11    1    5    5    0    0  0.98132322308E+01 -0.23092704179E+02 -0.98130243466E+00  0.25110465300E+02  0.00000000000E+00 0. -1.
        -12    1    5    5    0    0 -0.50316382442E+01  0.33575385398E+01  0.12944279729E+03  0.12958405850E+03  0.00000000000E+00 0.  1.
          5    1    4    4  501    0  0.48625293969E+02 -0.83174938740E+01  0.16063604658E+02  0.52049127874E+02  0.41800000000E+01 0.  1.
         -5    1    4    4    0  501 -0.71857030537E+02  0.28523761991E+02 -0.26324432576E+01  0.77468961483E+02  0.41800000000E+01 0.  1.
</event>
<event>
11    1  0.8551154E-009  0.1506208E+03  0.7561462E-02  0.1096246E+00
         22   -1    0    0    0    0  0.00000000000E+00  0.00000000000E+00  0.23039914064E+04  0.23039914064E+04  0.00000000000E+00 0. -1.
         22   -1    0    0    0    0 -0.00000000000E+00 -0.00000000000E+00 -0.86987957195E+02  0.86987957195E+02  0.00000000000E+00 0. -1.
         24    2    1    2    0    0 -0.33953046517E+02  0.94096047147E+02  0.11405879127E+02  0.13174932343E+03  0.84975965359E+02 0.  0.
         25    2    1    2    0    0  0.17570859518E+02 -0.41251918339E+02  0.14807915535E+03  0.19896162937E+03  0.12509131802E+03 0.  0.
        -24    2    1    2    0    0  0.16382186999E+02 -0.52844128808E+02  0.20575184147E+04  0.20602684108E+04  0.90901152738E+02 0.  0.
        -13    1    3    3    0    0 -0.16047107844E+02  0.25146661153E+02  0.44201816196E+02  0.53326023594E+02  0.00000000000E+00 0.  1.
         14    1    3    3    0    0 -0.17905938673E+02  0.68949385993E+02 -0.32795937069E+02  0.78423299834E+02  0.00000000000E+00 0. -1.
         13    1    5    5    0    0  0.13167499555E+02  0.97965713252E+01  0.13158837053E+04  0.13159860493E+04  0.00000000000E+00 0. -1.
        -14    1    5    5    0    0  0.32146874434E+01 -0.62640700133E+02  0.74163470935E+03  0.74428236150E+03  0.00000000000E+00 0.  1.
          5    1    4    4  501    0  0.29346803348E+02  0.28360583434E+02  0.76554179618E+01  0.41732905286E+02  0.41800000000E+01 0. -1.
         -5    1    4    4    0  501 -0.11775943830E+02 -0.69612501772E+02  0.14042373739E+03  0.15722872409E+03  0.41800000000E+01 0. -1.
</event>
<event>
11    1  0.8551154E-009  0.1657589E+03  0.7561462E-02  0.1081782E+00
         22   -1    0    0    0    0  0.00000000000E+00  0.00000000000E+00  0.49313646528E+03  0.49313646528E+03  0.00000000000E+00 0. -1.
         22   -1    0    0    0    0 -0.00000000000E+00 -0.00000000000E+00 -0.12880462043E+04  0.12880462043E+04  0.00000000000E+00 0. -1.
         24    2    1    2    0    0  0.11182480146E+03  0.53354137459E+02 -0.12157009860E+04  0.12244651735E+04  0.77682838993E+02 0.  0.
         25    2    1    2    0    0 -0.79602876569E+02  0.66966994172E+02  0.72166035260E+02  0.17798051933E+03  0.12509169576E+03 0.  0.
        -24    2    1    2    0    0 -0.32221924893E+02 -0.12032113163E+03  0.34862521170E+03  0.37873697679E+03  0.79917033178E+02 0.  0.
        -13    1    3    3    0    0  0.97896320703E+01  0.41038829656E+02 -0.43160407958E+03  0.43366127790E+03  0.00000000000E+00 0.  1.
         14    1    3    3    0    0  0.10203516939E+03  0.12315307803E+02 -0.78409690640E+03  0.79080389555E+03  0.00000000000E+00 0. -1.
         13    1    5    5    0    0 -0.26459868306E+01 -0.11786086166E+03  0.28943098428E+03  0.31251956518E+03  0.00000000000E+00 0. -1.
        -14    1    5    5    0    0 -0.29575938062E+02 -0.24602699759E+01  0.59194227424E+02  0.66217411615E+02  0.00000000000E+00 0.  1.
          5    1    4    4  501    0 -0.50221036207E+02 -0.19383055585E+02 -0.10273826073E+02  0.54962525631E+02  0.41800000000E+01 0.  1.
         -5    1    4    4    0  501 -0.29381840362E+02  0.86350049758E+02  0.82439861333E+02  0.12301799370E+03  0.41800000000E+01 0.  1.
</event>
<event>
11    1  0.8551154E-009  0.1326905E+03  0.7561462E-02  0.1116007E+00
         22   -1    0    0    0    0  0.00000000000E+00  0.00000000000E+00  0.83707186297E+03  0.83707186297E+03  0.00000000000E+00 0. -1.
         22   -1    0    0    0    0 -0.00000000000E+00 -0.00000000000E+00 -0.18304077916E+04  0.18304077916E+04  0.00000000000E+00 0. -1.
         24    2    1    2    0    0  0.46981082271E+02 -0.18089184965E+02 -0.15613511470E+04  0.15640762179E+04  0.77347078477E+02 0.  0.
         25    2    1    2    0    0 -0.90191962804E+02  0.25078350776E+02 -0.24201899248E+03  0.28807032997E+03  0.12509120057E+03 0.  0.
        -24    2    1    2    0    0  0.43210880532E+02 -0.69891658107E+01  0.81003421078E+03  0.81533310673E+03  0.81832900885E+02 0.  0.
        -11    1    3    3    0    0 -0.41620703983E+01 -0.16150255337E+02 -0.10576750300E+04  0.10578065148E+04  0.00000000000E+00 0.  1.
         12    1    3    3    0    0  0.51143152670E+02 -0.19389296280E+01 -0.50367611692E+03  0.50626970309E+03  0.00000000000E+00 0. -1.
         11    1    5    5    0    0 -0.17660922351E+02 -0.22739000571E+02  0.19893524489E+03  0.20100796497E+03  0.00000000000E+00 0. -1.
        -12    1    5    5    0    0  0.60871802884E+02  0.15749834760E+02  0.61109896589E+03  0.61432514176E+03  0.00000000000E+00 0.  1.
          5    1    4    4  501    0 -0.12076042572E+03  0.21952626842E+02 -0.21144036686E+03  0.24451891416E+03  0.41800000000E+01 0.  1.
         -5    1    4    4    0  501  0.30568462912E+02  0.31257239334E+01 -0.30578625615E+02  0.43551415814E+02  0.41800000000E+01 0.  1.
</event>
<event>
11    1  0.8551154E-009  0.4671126E+03  0.7561462E-02  0.9470169E-01
         22   -1    0    0    0    0  0.00000000000E+00  0.00000000000E+00  0.98553802174E+03  0.98553802174E+03  0.00000000000E+00 0. -1.
         22   -1    0    0    0    0 -0.00000000000E+00 -0.00000000000E+00 -0.71465800517E+03  0.71465800517E+03  0.00000000000E+00 0.  1.
         24    2    1    2    0    0 -0.18650998504E+03  0.16117651073E+02 -0.35396789949E+03  0.40817011973E+03  0.79144295874E+02 0.  0.
         25    2    1    2    0    0  0.56938948546E+03  0.14053780893E+03  0.82287859312E+02  0.60528825836E+03  0.12508925628E+03 0.  0.
        -24    2    1    2    0    0 -0.38287950042E+03 -0.15665546000E+03  0.54256005675E+03  0.68673764882E+03  0.78099539942E+02 0.  0.
        -11    1    3    3    0    0 -0.16233692595E+03 -0.15782060973E+02 -0.27848621587E+03  0.32273351764E+03  0.00000000000E+00 0.  1.
         12    1    3    3    0    0 -0.24173059095E+02  0.31899712046E+02 -0.75481683622E+02  0.85436602091E+02  0.00000000000E+00 0. -1.
         13    1    5    5    0    0 -0.12406232404E+03 -0.75985400176E+02  0.23852341983E+03  0.27938980492E+03  0.00000000000E+00 0. -1.
        -14    1    5    5    0    0 -0.25881717638E+03 -0.80670059822E+02  0.30403663692E+03  0.40734784390E+03  0.00000000000E+00 0.  1.
          5    1    4    4  501    0  0.38572504993E+03  0.10518644495E+03  0.11347892583E+03  0.41562355726E+03  0.41800000000E+01 0.  1.
         -5    1    4    4    0  501  0.18366443553E+03  0.35351363976E+02 -0.31191066521E+02  0.18966470110E+03  0.41800000000E+01 0.  1.
</event>
<event>
11    1  0.8551154E-009  0.2403346E+03  0.7561462E-02  0.1029178E+00
         22   -1    0    0    0    0  0.00000000000E+00  0.00000000000E+00  0.27513437700E+03  0.27513437700E+03  0.00000000000E+00 0.  1.
         22   -1    0    0    0    0 -0.00000000000E+00 -0.00000000000E+00 -0.14348893774E+04  0.14348893774E+04  0.00000000000E+00 0.  1.
        -24    2    1    2    0    0  0.15800118130E+03  0.12117968093E+03 -0.11261484022E+04  0.11465482470E+04  0.81937602159E+02 0.  0.
         25    2    1    2    0    0 -0.33299473518E+03 -0.64662939059E+02 -0.22418355171E+02  0.36223860027E+03  0.12508969395E+03 0.  0.
         24    2    1    2    0    0  0.17499355388E+03 -0.56516741868E+02 -0.11188243030E+02  0.20123690710E+03  0.80958199018E+02 0.  0.
        -13    1    5    5    0    0  0.11198646826E+03 -0.74815813270E+02 -0.15024616813E+02  0.13551425792E+03  0.00000000000E+00 0.  1.
         14    1    5    5    0    0  0.63007085615E+02  0.18299071402E+02  0.38363737828E+01  0.65722649184E+02  0.00000000000E+00 0. -1.
         13    1    3    3    0    0  0.19452256624E+02  0.58366167075E+02 -0.26325452182E+03  0.27034781857E+03  0.00000000000E+00 0. -1.
        -14    1    3    3    0    0  0.13854892467E+03  0.62813513852E+02 -0.86289388039E+03  0.87620042848E+03  0.00000000000E+00 0.  1.
          5    1    4    4  501    0 -0.27769822699E+03 -0.14864084596E+02  0.15610398186E+02  0.27856489947E+03  0.41800000000E+01 0.  1.
         -5    1    4    4    0  501 -0.55296508184E+02 -0.49798854463E+02 -0.38028753356E+02  0.83673700797E+02  0.41800000000E+01 0.  1.
</event>
<event>
11    1  0.8551154E-009  0.1844110E+03  0.7561462E-02  0.1066130E+00
         22   -1    0    0    0    0  0.00000000000E+00  0.00000000000E+00  0.13259547612E+04  0.13259547612E+04  0.00000000000E+00 0.  1.
         22   -1    0    0    0    0 -0.00000000000E+00 -0.00000000000E+00 -0.16643353098E+03  0.16643353098E+03  0.00000000000E+00 0. -1.
        -24    2    1    2    0    0  0.12489574047E+03  0.30760190876E+02 -0.78446524204E+02  0.17040975330E+03  0.79627203449E+02 0.  0.
         25    2    1    2    0    0 -0.18067679396E+03 -0.31996321987E+02  0.28038460668E+03  0.35767505848E+03  0.12509217122E+03 0.  0.
         24    2    1    2    0    0  0.55781053486E+02  0.12361311108E+01  0.95758314777E+03  0.96430348044E+03  0.99008401329E+02 0.  0.
        -13    1    5    5    0    0  0.12471883706E+02  0.47920874836E+02  0.46189211304E+03  0.46453878440E+03  0.00000000000E+00 0.  1.
         14    1    5    5    0    0  0.43309169780E+02 -0.46684743725E+02  0.49569103474E+03  0.49976469603E+03  0.00000000000E+00 0. -1.
         13    1    3    3    0    0  0.16631608738E+02  0.29982517940E+02 -0.46025768468E+02  0.57392797060E+02  0.00000000000E+00 0. -1.
        -14    1    3    3    0    0  0.10826413173E+03  0.77767293609E+00 -0.32420755736E+02  0.11301695624E+03  0.00000000000E+00 0.  1.
          5    1    4    4  501    0 -0.60329330822E+02 -0.43147286125E+02  0.19764317429E+03  0.21114358433E+03  0.41800000000E+01 0.  1.
         -5    1    4    4    0  501 -0.12034746314E+03  0.11150964138E+02  0.82741432390E+02  0.14653147416E+03  0.41800000000E+01 0.  1.
</event>
<event>
11    1  0.8551154E-009  0.2196626E+03  0.7561462E-02  0.1041429E+00
         22   -1    0    0    0    0  0.00000000000E+00  0.00000000000E+00  0.26543312512E+03  0.26543312512E+03  0.00000000000E+00 0. -1.
         22   -1    0    0    0    0 -0.00000000000E+00 -0.00000000000E+00 -0.16308572273E+04  0.16308572273E+04  0.00000000000E+00 0.  1.
         24    2    1    2    0    0 -0.46069078323E+01 -0.17093528076E+03 -0.11022493982E+04  0.11192839108E+04  0.92750434813E+02 0.  0.
         25    2    1    2    0    0 -0.83509296026E+02  0.21821329928E+03 -0.46256231349E+03  0.53310608578E+03  0.12508940135E+03 0.  0.
        -24    2    1    2    0    0  0.88116203858E+02 -0.47278018515E+02  0.19938760957E+03  0.24390035586E+03  0.98652360960E+02 0.  0.
        -13    1    3    3    0    0  0.19039972012E+01 -0.14731582813E+03 -0.10619523975E+04  0.10721233478E+04  0.00000000000E+00 0.  1.
         14    1    3    3    0    0 -0.65109050335E+01 -0.23619452634E+02 -0.40297000781E+02  0.47160562963E+02  0.00000000000E+00 0. -1.
         11    1    5    5    0    0  0.43474676267E+02  0.25799698020E+02  0.46619530131E+02  0.68768106591E+02  0.00000000000E+00 0. -1.
        -12    1    5    5    0    0  0.44641527591E+02 -0.73077716535E+02  0.15276807944E+03  0.17513224927E+03  0.00000000000E+00 0.  1.
          5    1    4    4  501    0 -0.11633195111E+03  0.18088876650E+03 -0.37898630436E+03  0.43577742024E+03  0.41800000000E+01 0. -1.
         -5    1    4    4    0  501  0.32822655088E+02  0.37324532778E+02 -0.83576009126E+02  0.97328665539E+02  0.41800000000E+01 0. -1.
</event>
<event>
11    1  0.8551154E-009  0.1469281E+03  0.7561462E-02  0.1100060E+00
         22   -1    0    0    0    0  0.00000000000E+00  0.00000000000E+00  0.13484428568E+03  0.13484428568E+03  0.00000000000E+00 0. -1.
         22   -1    0    0    0    0 -0.00000000000E+00 -0.00000000000E+00 -0.17283939670E+04  0.17283939670E+04  0.00000000000E+00 0.  1.
        -24    2    1    2    0    0 -0.38851073915E+02 -0.58218740552E+02 -0.12227594815E+04  0.12273641884E+04  0.79895392745E+02 0.  0.
         25    2    1    2    0    0  0.10035921854E+03  0.90125809902E+02 -0.46132898916E+03  0.49665344178E+03  0.12508225545E+03 0.  0.
         24    2    1    2    0    0 -0.61508144621E+02 -0.31907069350E+02  0.90538789304E+02  0.13922062250E+03  0.79898663513E+02 0.  0.
        -11    1    5    5    0    0  0.17125937745E+02 -0.19742089940E+02  0.24346198239E+02  0.35718135835E+02  0.00000000000E+00 0.  1.
         12    1    5    5    0    0 -0.78634082367E+02 -0.12164979411E+02  0.66192591064E+02  0.10350248666E+03  0.00000000000E+00 0. -1.
         11    1    3    3    0    0  0.17533131725E+02  0.55295800857E+01 -0.12969325492E+03  0.13098979860E+03  0.00000000000E+00 0. -1.
        -12    1    3    3    0    0 -0.56384205639E+02 -0.63748320637E+02 -0.10930662266E+04  0.10963743898E+04  0.00000000000E+00 0.  1.
          5    1    4    4  501    0 -0.21110595212E+02  0.50436716694E+02 -0.16639619460E+03  0.17519898858E+03  0.41800000000E+01 0.  1.
         -5    1    4    4    0  501  0.12146981375E+03  0.39689093208E+02 -0.29493279456E+03  0.32145445319E+03  0.41800000000E+01 0.  1.
</event>
<event>
11    1  0.8551154E-009  0.1844711E+03  0.7561462E-02  0.1066083E+00
         22   -1    0    0    0    0  0.00000000000E+00  0.00000000000E+00  0.41011286906E+03  0.41011286906E+03  0.00000000000E+00 0.  1.
         22   -1    0    0    0    0 -0.00000000000E+00 -0.00000000000E+00 -0.71327951000E+03  0.71327951000E+03  0.00000000000E+00 0.  1.
        -24    2    1    2    0    0 -0.11584940266E+03  0.10830497881E+03 -0.53371647887E+03  0.56262836391E+03  0.80909477319E+02 0.  0.
         25    2    1    2    0    0  0.62655628917E+02 -0.49351348976E+02 -0.12101608623E+03  0.19145173218E+03  0.12509032395E+03 0.  0.
         24    2    1    2    0    0  0.53193773740E+02 -0.58953629832E+02  0.35156592416E+03  0.36931228298E+03  0.80547224021E+02 0.  0.
        -11    1    5    5    0    0  0.55460033675E+01 -0.42072883854E+02  0.27027427073E+03  0.27358557551E+03  0.00000000000E+00 0.  1.
         12    1    5    5    0    0  0.47647770373E+02 -0.16880745978E+02  0.81291653430E+02  0.95726707473E+02  0.00000000000E+00 0. -1.
         13    1    3    3    0    0 -0.19339321539E+02 -0.98133794940E+01 -0.35643158512E+02  0.41722254533E+02  0.00000000000E+00 0. -1.
        -14    1    3    3    0    0 -0.96510081118E+02  0.11811835830E+03 -0.49807332036E+03  0.52090610937E+03  0.00000000000E+00 0.  1.
          5    1    4    4  501    0  0.35437293792E+02  0.63692456968E+01  0.17037897127E+02  0.40051609462E+02  0.41800000000E+01 0. -1.
         -5    1    4    4    0  501  0.27218335125E+02 -0.55720594673E+02 -0.13805398335E+03  0.15140012271E+03  0.41800000000E+01 0. -1.
</event>
<event>
11    1  0.8551154E-009  0.6660742E+03  0.7561462E-02  0.9083849E-01
         22   -1    0    0    0    0  0.00000000000E+00  0.00000000000E+00  0.10968236136E+04  0.10968236136E+04  0.00000000000E+00 0. -1.
         22   -1    0    0    0    0 -0.00000000000E+00 -0.00000000000E+00 -0.49299338367E+03  0.49299338367E+03  0.00000000000E+00 0. -1.
        -24    2    1    2    0    0  0.60987230776E+03  0.23560358019E+03  0.74441249945E+02  0.66233122406E+03  0.75417981269E+02 0.  0.
         25    2    1    2    0    0 -0.61686298784E+03 -0.22036310021E+03  0.41148640006E+03  0.78361240609E+03  0.12508998295E+03 0.  0.
         24    2    1    2    0    0  0.69906800812E+01 -0.15240479981E+02  0.11790257995E+03  0.14387336714E+03  0.80730326257E+02 0.  0.
        -11    1    5    5    0    0  0.39205183682E+02 -0.31371250617E+01  0.94217667815E+02  0.10209729139E+03  0.00000000000E+00 0.  1.
         12    1    5    5    0    0 -0.32214503601E+02 -0.12103354919E+02  0.23684912131E+02  0.41776075752E+02  0.00000000000E+00 0. -1.
         13    1    3    3    0    0  0.17206195746E+03  0.31642837472E+02  0.26995842319E+02  0.17701797048E+03  0.00000000000E+00 0. -1.
        -14    1    3    3    0    0  0.43781035030E+03  0.20396074271E+03  0.47445407626E+02  0.48531325358E+03  0.00000000000E+00 0.  1.
          5    1    4    4  501    0 -0.83213406109E+02  0.64263709166E+01  0.80037134492E+02  0.11571164374E+03  0.41800000000E+01 0. -1.
         -5    1    4    4    0  501 -0.53364958173E+03 -0.22678947112E+03  0.33144926557E+03  0.66790076235E+03  0.41800000000E+01 0. -1.
</event>
<event>
11    1  0.8551154E-009  0.1346650E+03  0.7561462E-02  0.1113666E+00
         22   -1    0    0    0    0  0.00000000000E+00  0.00000000000E+00  0.16363061828E+03  0.16363061828E+03  0.00000000000E+00 0.  1.
         22   -1    0    0    0    0 -0.00000000000E+00 -0.00000000000E+00 -0.18681814199E+04  0.18681814199E+04  0.00000000000E+00 0. -1.
         24    2    1    2    0    0 -0.37132961836E+01 -0.22541587529E+02 -0.16261043085E+04  0.16284805699E+04  0.84922510051E+02 0.  0.
         25    2    1    2    0    0 -0.44245475874E+02  0.35553975638E+02 -0.20443921904E+03  0.24630350554E+03  0.12509306632E+03 0.  0.
        -24    2    1    2    0    0  0.47958772057E+02 -0.13012388110E+02  0.12599272595E+03  0.15702796270E+03  0.79462242699E+02 0.  0.
        -11    1    3    3    0    0 -0.38295956890E+01  0.14863915865E+01 -0.27387570943E+01  0.49372009794E+01  0.00000000000E+00 0.  1.
         12    1    3    3    0    0  0.11629950533E+00 -0.24027979115E+02 -0.16233655514E+04  0.16235433689E+04  0.00000000000E+00 0. -1.
         11    1    5    5    0    0  0.17029592453E+02 -0.12795482207E+02 -0.54565937045E+01  0.21988765288E+02  0.00000000000E+00 0. -1.
        -12    1    5    5    0    0  0.30929179605E+02 -0.21690590264E+00  0.13144931965E+03  0.13503919741E+03  0.00000000000E+00 0.  1.
          5    1    4    4  501    0  0.78173128529E+01  0.68654583213E+02 -0.70628387574E+02  0.98895923616E+02  0.41800000000E+01 0. -1.
         -5    1    4    4    0  501 -0.52062788727E+02 -0.33100607575E+02 -0.13381083147E+03  0.14740758193E+03  0.41800000000E+01 0. -1.
</event>
<event>
11    1  0.8551154E-009  0.1366031E+03  0.7561462E-02  0.1111412E+00
         22   -1    0    0    0    0  0.00000000000E+00  0.00000000000E+00  0.38382985950E+03  0.38382985950E+03  0.00000000000E+00 0.  1.
         22   -1    0    0    0    0 -0.00000000000E+00 -0.00000000000E+00 -0.75104907373E+03  0.75104907373E+03  0.00000000000E+00 0.  1.
        -24    2    1    2    0    0 -0.88158190333E+01 -0.43056942948E+02 -0.58006760802E+03  0.58739398439E+03  0.81373484730E+02 0.  0.
         25    2    1    2    0    0  0.54989353671E+02  0.70243942238E+02 -0.12310761189E+03  0.19687803192E+03  0.12508970744E+03 0.  0.
         24    2    1    2    0    0 -0.46173534638E+02 -0.27186999290E+02  0.33595600568E+03  0.35060691693E+03  0.84779975301E+02 0.  0.
        -13    1    5    5    0    0 -0.73703603080E+00  0.26169957474E+01  0.24239855616E+03  0.24241380306E+03  0.00000000000E+00 0.  1.
         14    1    5    5    0    0 -0.45436498607E+02 -0.29803995037E+02  0.93557449526E+02  0.10819311386E+03  0.00000000000E+00 0. -1.
         11    1    3    3    0    0  0.11187387395E+02 -0.51260895353E+02 -0.20180515649E+03  0.20851416790E+03  0.00000000000E+00 0. -1.
        -12    1    3    3    0    0 -0.20003206428E+02  0.82039524051E+01 -0.37826245153E+03  0.37887981649E+03  0.00000000000E+00 0.  1.
          5    1    4    4  501    0  0.60383501751E+02  0.99680904785E+02 -0.70680180874E+02  0.13636572308E+03  0.41800000000E+01 0. -1.
         -5    1    4    4    0  501 -0.53941480799E+01 -0.29436962547E+02 -0.52427431019E+02  0.60512308836E+02  0.41800000000E+01 0. -1.
</event>
<event>
11    1  0.8551154E-009  0.1122672E+04  0.7561462E-02  0.8570359E-01
         22   -1    0    0    0    0  0.00000000000E+00  0.00000000000E+00  0.15805942861E+04  0.15805942861E+04  0.00000000000E+00 0.  1.
         22   -1    0    0    0    0 -0.00000000000E+00 -0.00000000000E+00 -0.13022530985E+04  0.13022530985E+04  0.00000000000E+00 0.  1.
         24    2    1    2    0    0  0.22435951854E+03  0.56067137234E+03 -0.58347975945E+03  0.84364578439E+03  0.81240374901E+02 0.  0.
         25    2    1    2    0    0 -0.18448220866E+03  0.44007219179E+03 -0.23952718587E+03  0.54837854392E+03  0.12509410602E+03 0.  0.
        -24    2    1    2    0    0 -0.39877309881E+02 -0.10007435641E+04  0.11013481330E+04  0.14908230562E+04  0.80670899664E+02 0.  0.
        -11    1    3    3    0    0  0.12835441180E+02  0.68842571064E+02 -0.10120908374E+03  0.12307447653E+03  0.00000000000E+00 0.  1.
         12    1    3    3    0    0  0.21152407736E+03  0.49182880127E+03 -0.48227067570E+03  0.72057130786E+03  0.00000000000E+00 0. -1.
         13    1    5    5    0    0 -0.69092205606E+01 -0.56208463945E+03  0.56269509727E+03  0.79536950641E+03  0.00000000000E+00 0. -1.
        -14    1    5    5    0    0 -0.32968089320E+02 -0.43865892468E+03  0.53865303569E+03  0.69545354984E+03  0.00000000000E+00 0.  1.
          5    1    4    4  501    0 -0.93325623429E+02  0.14128140811E+03 -0.29487125974E+02  0.17192170097E+03  0.41800000000E+01 0. -1.
         -5    1    4    4    0  501 -0.91156585234E+02  0.29879078369E+03 -0.21004005990E+03  0.37645684296E+03  0.41800000000E+01 0. -1.
</event>
<event>
11    1  0.8551154E-009  0.1416447E+03  0.7561462E-02  0.1105736E+00
         22   -1    0    0    0    0  0.00000000000E+00  0.00000000000E+00  0.10882401300E+03  0.10882401300E+03  0.00000000000E+00 0. -1.
         22   -1    0    0    0    0 -0.00000000000E+00 -0.00000000000E+00 -0.79916080560E+03  0.79916080560E+03  0.00000000000E+00 0. -1.
        -24    2    1    2    0    0  0.14860637045E+02  0.19818729205E+02 -0.60403966162E+03  0.60997542753E+03  0.81194142809E+02 0.  0.
         25    2    1    2    0    0  0.54138051092E+02 -0.88620304938E+01 -0.12424668600E+03  0.18464312054E+03  0.12508548606E+03 0.  0.
         24    2    1    2    0    0 -0.68998688136E+02 -0.10956698711E+02  0.37949555005E+02  0.11336627052E+03  0.80813825277E+02 0.  0.
        -13    1    5    5    0    0 -0.18233279236E+02  0.16481388462E+02 -0.19923773384E+02  0.31639301244E+02  0.00000000000E+00 0.  1.
         14    1    5    5    0    0 -0.50765408900E+02 -0.27438087173E+02  0.57873328390E+02  0.81726969278E+02  0.00000000000E+00 0. -1.
         13    1    3    3    0    0 -0.64820845012E+01  0.34328524484E+02 -0.53707097327E+03  0.53820599713E+03  0.00000000000E+00 0. -1.
        -14    1    3    3    0    0  0.21342721546E+02 -0.14509795279E+02 -0.66968688346E+02  0.71769430406E+02  0.00000000000E+00 0.  1.
          5    1    4    4  501    0  0.90029346552E+01  0.25573216053E+02  0.17058071297E+02  0.32303133100E+02  0.41800000000E+01 0. -1.
         -5    1    4    4    0  501  0.45135116437E+02 -0.34435246547E+02 -0.14130475729E+03  0.15233998744E+03  0.41800000000E+01 0. -1.
</event>
<event>
11    1  0.8551154E-009  0.1375559E+03  0.7561462E-02  0.1110319E+00
         22   -1    0    0    0    0  0.00000000000E+00  0.00000000000E+00  0.52498327818E+02  0.52498327818E+02  0.00000000000E+00 0.  1.
         22   -1    0    0    0    0 -0.00000000000E+00 -0.00000000000E+00 -0.34849407426E+04  0.34849407426E+04  0.00000000000E+00 0. -1.
        -24    2    1    2    0    0 -0.16191912575E+02  0.56538094874E+02 -0.30062696393E+04  0.30078767924E+04  0.78784005773E+02 0.  0.
         25    2    1    2    0    0  0.10177876050E+02 -0.36567647092E+02 -0.43010808197E+03  0.44953477057E+03  0.12509103004E+03 0.  0.
         24    2    1    2    0    0  0.60140365255E+01 -0.19970447782E+02  0.39353065499E+01  0.80027507443E+02  0.77161699631E+02 0.  0.
        -13    1    5    5    0    0  0.38363165803E+02  0.33217428454E+01  0.98051833787E+01  0.39735476429E+02  0.00000000000E+00 0.  1.
         14    1    5    5    0    0 -0.32349129277E+02 -0.23292190628E+02 -0.58698768288E+01  0.40292031014E+02  0.00000000000E+00 0. -1.
         11    1    3    3    0    0 -0.32049182388E+02  0.68541729654E+02 -0.26234183140E+04  0.26245092434E+04  0.00000000000E+00 0. -1.
        -12    1    3    3    0    0  0.15857269813E+02 -0.12003634780E+02 -0.38285132536E+03  0.38336754895E+03  0.00000000000E+00 0.  1.
          5    1    4    4  501    0 -0.32078233761E+02  0.12062272577E+02 -0.34912156399E+02  0.49100331622E+02  0.41800000000E+01 0.  1.
         -5    1    4    4    0  501  0.42256109811E+02 -0.48629919668E+02 -0.39519592557E+03  0.40043443894E+03  0.41800000000E+01 0.  1.
</event>
<event>
11    1  0.8551154E-009  0.1418897E+03  0.7561462E-02  0.1105466E+00
         22   -1    0    0    0    0  0.00000000000E+00  0.00000000000E+00  0.10611376525E+04  0.10611376525E+04  0.00000000000E+00 0.  1.
         22   -1    0    0    0    0 -0.00000000000E+00 -0.00000000000E+00 -0.10224437514E+03  0.10224437514E+03  0.00000000000E+00 0.  1.
        -24    2    1    2    0    0  0.18073392120E+02 -0.30524749317E+02 -0.62824572928E+02  0.10684801434E+03  0.78810934407E+02 0.  0.
         25    2    1    2    0    0 -0.22793075849E+02  0.89061506342E+02  0.45157513666E+03  0.47751318459E+03  0.12508901307E+03 0.  0.
         24    2    1    2    0    0  0.47196837293E+01 -0.58536757025E+02  0.57014271359E+03  0.57902082866E+03  0.82180160814E+02 0.  0.
        -11    1    5    5    0    0 -0.19791912637E+01 -0.78492248550E+02  0.48500683410E+03  0.49132125886E+03  0.00000000000E+00 0.  1.
         12    1    5    5    0    0  0.66988749930E+01  0.19955491525E+02  0.85135879486E+02  0.87699569806E+02  0.00000000000E+00 0. -1.
         11    1    3    3    0    0  0.11387437187E+02  0.13897953379E+02  0.10533744501E+02  0.20827544431E+02  0.00000000000E+00 0. -1.
        -12    1    3    3    0    0  0.66859549332E+01 -0.44422702695E+02 -0.73358317428E+02  0.86020469913E+02  0.00000000000E+00 0.  1.
          5    1    4    4  501    0  0.19023186713E+02  0.94197953511E+02  0.19461880004E+03  0.21709234396E+03  0.41800000000E+01 0. -1.
         -5    1    4    4    0  501 -0.41816262562E+02 -0.51364471694E+01  0.25695633663E+03  0.26042084063E+03  0.41800000000E+01 0. -1.
</event>
<event>
11    1  0.8551154E-009  0.1384533E+03  0.7561462E-02  0.1109298E+00
         22   -1    0    0    0    0  0.00000000000E+00  0.00000000000E+00  0.25606353699E+04  0.25606353699E+04  0.00000000000E+00 0.  1.
         22   -1    0    0    0    0 -0.00000000000E+00 -0.00000000000E+00 -0.19308256162E+03  0.19308256162E+03  0.00000000000E+00 0.  1.
         24    2    1    2    0    0  0.44511685752E+02 -0.15078231712E+02 -0.16415057807E+03  0.18843633814E+03  0.79713223557E+02 0.  0.
         25    2    1    2    0    0 -0.45271444823E+02 -0.45159963340E+02  0.29916423823E+03  0.33050705902E+03  0.12508696424E+03 0.  0.
        -24    2    1    2    0    0  0.75975907062E+00  0.60238195051E+02  0.22325391481E+04  0.22347745344E+04  0.79730509463E+02 0.  0.
        -13    1    3    3    0    0  0.19562882452E+02 -0.12697658084E+02 -0.16156673431E+03  0.16324137504E+03  0.00000000000E+00 0.  1.
         14    1    3    3    0    0  0.24948803300E+02 -0.23805736275E+01 -0.25838437641E+01  0.25194963097E+02  0.00000000000E+00 0. -1.
         11    1    5    5    0    0 -0.25082949460E+02 -0.67426523379E+01  0.82106487459E+03  0.82147559063E+03  0.00000000000E+00 0. -1.
        -12    1    5    5    0    0  0.25842708531E+02  0.66980847389E+02  0.14114742735E+04  0.14132989437E+04  0.00000000000E+00 0.  1.
          5    1    4    4  501    0 -0.11569278844E+02  0.30910185497E+02  0.19154185820E+03  0.19440947411E+03  0.41800000000E+01 0.  1.
         -5    1    4    4    0  501 -0.33702165979E+02 -0.76070148837E+02  0.10762238003E+03  0.13609758491E+03  0.41800000000E+01 0.  1.
</event>
<event>
11    1  0.8551154E-009  0.1470085E+03  0.7561462E-02  0.1099975E+00
         22   -1    0    0    0    0  0.00000000000E+00  0.00000000000E+00  0.99922183900E+03  0.99922183900E+03  0.00000000000E+00 0. -1.
         22   -1    0    0    0    0 -0.00000000000E+00 -0.00000000000E+00 -0.87563373341E+03  0.87563373341E+03  0.00000000000E+00 0.  1.
        -24    2    1    2    0    0  0.84322246940E+01  0.12550510305E+02 -0.83429977752E+03  0.83828526124E+03  0.80233675654E+02 0.  0.
         25    2    1    2    0    0  0.26424793342E+02 -0.80694859284E+02  0.12426168205E+03  0.19569981191E+03  0.12509005052E+03 0.  0.
         24    2    1    2    0    0 -0.34857018036E+02  0.68144348979E+02  0.83362620106E+03  0.84087049926E+03  0.79195261428E+02 0.  0.
        -13    1    5    5    0    0  0.42935210073E+01  0.22297400627E+02  0.49838646912E+02  0.54767683202E+02  0.00000000000E+00 0.  1.
         14    1    5    5    0    0 -0.39150539044E+02  0.45846948352E+02  0.78378755415E+03  0.78610281606E+03  0.00000000000E+00 0. -1.
         13    1    3    3    0    0  0.21726220559E+01  0.22801585104E+02 -0.65458751331E+02  0.69350419579E+02  0.00000000000E+00 0. -1.
        -14    1    3    3    0    0  0.62596026380E+01 -0.10251074799E+02 -0.76884102619E+03  0.76893484166E+03  0.00000000000E+00 0.  1.
          5    1    4    4  501    0  0.58092624806E+02 -0.83061329261E+02  0.46492353176E+02  0.11159278104E+03  0.41800000000E+01 0. -1.
         -5    1    4    4    0  501 -0.31667831464E+02  0.23664699770E+01  0.77769328870E+02  0.84107030875E+02  0.41800000000E+01 0. -1.
</event>
<event>
11    1  0.8551154E-009  0.1313954E+03  0.7561462E-02  0.1117566E+00
         22   -1    0    0    0    0  0.00000000000E+00  0.00000000000E+00  0.13087722171E+04  0.13087722171E+04  0.00000000000E+00 0.  1.
         22   -1    0    0    0    0 -0.00000000000E+00 -0.00000000000E+00 -0.29698703109E+03  0.29698703109E+03  0.00000000000E+00 0. -1.
         24    2    1    2    0    0  0.89962481818E+00  0.19823643918E+02 -0.24529509057E+03  0.25885326877E+03  0.80259249367E+02 0.  0.
         25    2    1    2    0    0  0.17619757460E+02 -0.54743334635E+02  0.66787090100E+02  0.15302140503E+03  0.12509095272E+03 0.  0.
        -24    2    1    2    0    0 -0.18519382278E+02  0.34919690716E+02  0.11902931865E+04  0.11938845744E+04  0.83666928008E+02 0.  0.
        -13    1    3    3    0    0  0.10240918358E+02 -0.71026814523E+01 -0.57187360758E+00  0.12476038315E+02  0.00000000000E+00 0.  1.
         14    1    3    3    0    0 -0.93412935395E+01  0.26926325371E+02 -0.24472321697E+03  0.24637723045E+03  0.00000000000E+00 0. -1.
         13    1    5    5    0    0  0.15458939863E+02 -0.50841998245E+01  0.54461928571E+02  0.56841266464E+02  0.00000000000E+00 0. -1.
        -14    1    5    5    0    0 -0.33978322141E+02  0.40003890541E+02  0.11358312579E+04  0.11370433079E+04  0.00000000000E+00 0.  1.
          5    1    4    4  501    0  0.48814878033E+02  0.22234831933E+02  0.18724885758E+02  0.56968182480E+02  0.41800000000E+01 0.  1.
         -5    1    4    4    0  501 -0.31195120573E+02 -0.76978166567E+02  0.48062204341E+02  0.96053222547E+02  0.41800000000E+01 0.  1.
</event>
<event>
11    1  0.8551154E-009  0.1392151E+03  0.7561462E-02  0.1108438E+00
         22   -1    0    0    0    0  0.00000000000E+00  0.00000000000E+00  0.27866651802E+03  0.27866651802E+03  0.00000000000E+00 0.  1.
         22   -1    0    0    0    0 -0.00000000000E+00 -0.00000000000E+00 -0.20451893141E+04  0.20451893141E+04  0.00000000000E+00 0. -1.
         24    2    1    2    0    0 -0.94847542454E+01  0.46412249366E+02 -0.18456869325E+04  0.18478046752E+04  0.74684719607E+02 0.  0.
         25    2    1    2    0    0 -0.20905862326E+02 -0.97287997903E+02 -0.15413625376E+03  0.22205081526E+03  0.12508625113E+03 0.  0.
        -24    2    1    2    0    0  0.30390616571E+02  0.50875748537E+02  0.23330039022E+03  0.25400034163E+03  0.81087422631E+02 0.  0.
        -11    1    3    3    0    0  0.14799757449E+02  0.68944024742E+00 -0.80089358642E+02  0.81448225985E+02  0.00000000000E+00 0.  1.
         12    1    3    3    0    0 -0.24284511694E+02  0.45722809119E+02 -0.17655975739E+04  0.17663564492E+04  0.00000000000E+00 0. -1.
         11    1    5    5    0    0  0.40193883408E+02  0.37935972616E+02  0.66754653956E+02  0.86665276245E+02  0.00000000000E+00 0. -1.
        -12    1    5    5    0    0 -0.98032668369E+01  0.12939775921E+02  0.16654573626E+03  0.16733506539E+03  0.00000000000E+00 0.  1.
          5    1    4    4  501    0 -0.96007527383E+01 -0.20139152594E+01 -0.11948071198E+03  0.11995558863E+03  0.41800000000E+01 0.  1.
         -5    1    4    4    0  501 -0.11305109587E+02 -0.95274082644E+02 -0.34655541777E+02  0.10209522664E+03  0.41800000000E+01 0.  1.
</event>
<event>
11    1  0.8551154E-009  0.1827752E+03  0.7561462E-02  0.1067420E+00
         22   -1    0    0    0    0  0.00000000000E+00  0.00000000000E+00  0.17885839491E+04  0.17885839491E+04  0.00000000000E+00 0.  1.
         22   -1    0    0    0    0 -0.00000000000E+00 -0.00000000000E+00 -0.21377515260E+03  0.21377515260E+03  0.00000000000E+00 0. -1.
         24    2    1    2    0    0  0.31728305185E+02  0.29040109857E+02 -0.18450857299E+03  0.21009553090E+03  0.90811371900E+02 0.  0.
         25    2    1    2    0    0  0.56870807578E+00  0.11492893447E+03  0.74029773816E+03  0.75953761903E+03  0.12509064790E+03 0.  0.
        -24    2    1    2    0    0 -0.32297013261E+02 -0.14396904432E+03  0.10190196313E+04  0.10327259517E+04  0.79697551107E+02 0.  0.
        -11    1    3    3    0    0  0.10066496768E+02  0.34253628759E+02 -0.14339776164E+02  0.38474337171E+02  0.00000000000E+00 0.  1.
         12    1    3    3    0    0  0.21661808417E+02 -0.52135189022E+01 -0.17016879682E+03  0.17162119372E+03  0.00000000000E+00 0. -1.
         11    1    5    5    0    0  0.93388244601E+01 -0.11005608815E+03  0.57891899835E+03  0.58936131773E+03  0.00000000000E+00 0. -1.
        -12    1    5    5    0    0 -0.41635837721E+02 -0.33912956169E+02  0.44010063293E+03  0.44336463401E+03  0.00000000000E+00 0.  1.
          5    1    4    4  501    0  0.21620085441E+02  0.57733631789E+02  0.10903938251E+03  0.12533020255E+03  0.41800000000E+01 0.  1.
         -5    1    4    4    0  501 -0.21051377365E+02  0.57195302677E+02  0.63125835565E+03  0.63420741648E+03  0.41800000000E+01 0.  1.
</event>
<event>
11    1  0.8551154E-009  0.5176312E+03  0.7561462E-02  0.9354964E-01
         22   -1    0    0    0    0  0.00000000000E+00  0.00000000000E+00  0.17468740399E+04  0.17468740399E+04  0.00000000000E+00 0.  1.
         22   -1    0    0    0    0 -0.00000000000E+00 -0.00000000000E+00 -0.72384022161E+03  0.72384022161E+03  0.00000000000E+00 0.  1.
        -24    2    1    2    0    0  0.53276619397E+03  0.35500027465E+03 -0.25891916074E+03  0.69485489670E+03  0.76936228352E+02 0.  0.
         25    2    1    2    0    0 -0.41165014598E+03  0.22073124935E+01 -0.73036707934E+01  0.43030442459E+03  0.12509132382E+03 0.  0.
         24    2    1    2    0    0 -0.12111604798E+03 -0.35720758714E+03  0.12892566498E+04  0.13455549402E+04  0.77903983420E+02 0.  0.
        -11    1    5    5    0    0 -0.11843566128E+02 -0.94782893133E+02  0.23563681451E+03  0.25426123425E+03  0.00000000000E+00 0.  1.
         12    1    5    5    0    0 -0.10927248185E+03 -0.26242469401E+03  0.10536198353E+04  0.10912937060E+04  0.00000000000E+00 0. -1.
         13    1    3    3    0    0  0.29789353940E+03  0.15258285103E+03 -0.12986897739E+03  0.35900980284E+03  0.00000000000E+00 0. -1.
        -14    1    3    3    0    0  0.23487265456E+03  0.20241742362E+03 -0.12905018335E+03  0.33584509386E+03  0.00000000000E+00 0.  1.
          5    1    4    4  501    0 -0.41617841487E+03 -0.50056069903E+01  0.30780089962E+01  0.41624088656E+03  0.41800000000E+01 0. -1.
         -5    1    4    4    0  501  0.45282688868E+01  0.72129194838E+01 -0.10381679790E+02  0.14063538027E+02  0.41800000000E+01 0. -1.
</event>
<event>
11    1  0.8551154E-009  0.1796024E+03  0.7561462E-02  0.1069965E+00
         22   -1    0    0    0    0  0.00000000000E+00  0.00000000000E+00  0.57108143585E+03  0.57108143585E+03  0.00000000000E+00 0.  1.
         22   -1    0    0    0    0 -0.00000000000E+00 -0.00000000000E+00 -0.45279431061E+03  0.45279431061E+03  0.00000000000E+00 0. -1.
         24    2    1    2    0    0  0.55138446213E+02 -0.12047376739E+03 -0.37206254356E+03  0.40316133433E+03  0.80958929697E+02 0.  0.
         25    2    1    2    0    0 -0.97645177216E+02  0.63479703215E+02  0.65910163590E+02  0.18317457555E+03  0.12507806406E+03 0.  0.
        -24    2    1    2    0    0  0.42506731004E+02  0.56994064179E+02  0.42443950521E+03  0.43753983658E+03  0.78975119344E+02 0.  0.
        -13    1    3    3    0    0  0.44874597487E+02 -0.13224327343E+03 -0.33384135984E+03  0.36187299762E+03  0.00000000000E+00 0.  1.
         14    1    3    3    0    0  0.10263848726E+02  0.11769506041E+02 -0.38221183722E+02  0.41288336710E+02  0.00000000000E+00 0. -1.
         11    1    5    5    0    0  0.43544519063E+02  0.12082817889E+02  0.96725912775E+02  0.10676151849E+03  0.00000000000E+00 0. -1.
        -12    1    5    5    0    0 -0.10377880595E+01  0.44911246289E+02  0.32771359244E+03  0.33077831809E+03  0.00000000000E+00 0.  1.
          5    1    4    4  501    0 -0.79202921930E+02  0.10789899489E+02  0.91545076093E+02  0.12160385738E+03  0.41800000000E+01 0.  1.
         -5    1    4    4    0  501 -0.18442255286E+02  0.52689803726E+02 -0.25634912503E+02  0.61570718168E+02  0.41800000000E+01 0.  1.
</event>
<event>
11    1  0.8551154E-009  0.1379915E+03  0.7561462E-02  0.1109822E+00
         22   -1    0    0    0    0  0.00000000000E+00  0.00000000000E+00  0.10976216317E+04  0.10976216317E+04  0.00000000000E+00 0. -1.
         22   -1    0    0    0    0 -0.00000000000E+00 -0.00000000000E+00 -0.90967718480E+02  0.90967718480E+02  0.00000000000E+00 0. -1.
        -24    2    1    2    0    0 -0.79575733224E+01  0.73825306578E+02 -0.37098812128E+02  0.11523596514E+03  0.79934391445E+02 0.  0.
         25    2    1    2    0    0  0.31358130327E+02  0.43155503366E+01  0.42560313511E+03  0.44473320287E+03  0.12509051444E+03 0.  0.
         24    2    1    2    0    0 -0.23400557005E+02 -0.78140856915E+02  0.61814959020E+03  0.62862018213E+03  0.80005236943E+02 0.  0.
        -11    1    5    5    0    0  0.45125954292E+01 -0.45517146718E+02  0.11682194488E+03  0.12545732728E+03  0.00000000000E+00 0.  1.
         12    1    5    5    0    0 -0.27913152434E+02 -0.32623710197E+02  0.50132764531E+03  0.50316285485E+03  0.00000000000E+00 0. -1.
         11    1    3    3    0    0 -0.28285277171E+02  0.46632118858E+02 -0.54484692406E+02  0.77092108030E+02  0.00000000000E+00 0. -1.
        -12    1    3    3    0    0  0.20327703849E+02  0.27193187720E+02  0.17385880278E+02  0.38143857109E+02  0.00000000000E+00 0.  1.
          5    1    4    4  501    0  0.16399597820E+01  0.40365690670E+02  0.36896298134E+03  0.37119163844E+03  0.41800000000E+01 0.  1.
         -5    1    4    4    0  501  0.29718170545E+02 -0.36050140333E+02  0.56640153773E+02  0.73541564425E+02  0.41800000000E+01 0.  1.
</event>
<event>
11    1  0.8551154E-009  0.4052304E+03  0.7561462E-02  0.9634450E-01
         22   -1    0    0    0    0  0.00000000000E+00  0.00000000000E+00  0.31480633509E+04  0.31480633509E+04  0.00000000000E+00 0.  1.
         22   -1    0    0    0    0 -0.00000000000E+00 -0.00000000000E+00 -0.18544089466E+03  0.18544089466E+03  0.00000000000E+00 0.  1.
        -24    2    1    2    0    0  0.28801468486E+03  0.25904648757E+03  0.70997517773E+02  0.40217163981E+03  0.81509747401E+02 0.  0.
         25    2    1    2    0    0 -0.24639198655E+03 -0.27299102491E+03  0.23696628665E+04  0.24012882182E+04  0.12509954164E+03 0.  0.
         24    2    1    2    0    0 -0.41622698317E+02  0.13944537344E+02  0.52196207201E+03  0.53004438759E+03  0.81090992443E+02 0.  0.
        -11    1    5    5    0    0  0.22302371476E+02 -0.71767042415E+01  0.17997793479E+03  0.18149644037E+03  0.00000000000E+00 0.  1.
         12    1    5    5    0    0 -0.63925069793E+02  0.21121241586E+02  0.34198413722E+03  0.34854794721E+03  0.00000000000E+00 0. -1.
         11    1    3    3    0    0  0.29950136885E+02  0.95062036236E+01  0.25202821656E+02  0.40281023152E+02  0.00000000000E+00 0. -1.
        -12    1    3    3    0    0  0.25806454798E+03  0.24954028394E+03  0.45794696117E+02  0.36189061666E+03  0.00000000000E+00 0.  1.
          5    1    4    4  501    0 -0.18856096397E+03 -0.26859094398E+03  0.19147088514E+04  0.19426332105E+04  0.41800000000E+01 0. -1.
         -5    1    4    4    0  501 -0.57831022577E+02 -0.44000809320E+01  0.45495401503E+03  0.45865500769E+03  0.41800000000E+01 0. -1.
</event>
<event>
11    1  0.8551154E-009  0.1507098E+03  0.7561462E-02  0.1096156E+00
         22   -1    0    0    0    0  0.00000000000E+00  0.00000000000E+00  0.99550678555E+03  0.99550678555E+03  0.00000000000E+00 0.  1.
         22   -1    0    0    0    0 -0.00000000000E+00 -0.00000000000E+00 -0.10179675293E+04  0.10179675293E+04  0.00000000000E+00 0.  1.
         24    2    1    2    0    0  0.19492886710E+02  0.52772822650E+02 -0.74918631085E+03  0.75498788695E+03  0.74576387961E+02 0.  0.
         25    2    1    2    0    0  0.12225016912E+02 -0.13002614066E+03 -0.23121628594E+03  0.29353854435E+03  0.12509059855E+03 0.  0.
        -24    2    1    2    0    0 -0.31717903621E+02  0.77253318009E+02  0.95794185305E+03  0.96494788352E+03  0.80608458266E+02 0.  0.
        -13    1    3    3    0    0  0.32862101279E+02  0.22261592411E+02 -0.62956181846E+03  0.63081184157E+03  0.00000000000E+00 0.  1.
         14    1    3    3    0    0 -0.13369214570E+02  0.30511230239E+02 -0.11962449239E+03  0.12417604539E+03  0.00000000000E+00 0. -1.
         13    1    5    5    0    0 -0.25183926124E+02  0.17291569043E+02  0.92651298158E+02  0.97557631917E+02  0.00000000000E+00 0. -1.
        -14    1    5    5    0    0 -0.65339774969E+01  0.59961748966E+02  0.86529055489E+03  0.86739025161E+03  0.00000000000E+00 0.  1.
          5    1    4    4  501    0  0.31440077566E+02 -0.78485016088E+02 -0.38341190031E+02  0.92929518887E+02  0.41800000000E+01 0.  1.
         -5    1    4    4    0  501 -0.19215060654E+02 -0.51541124572E+02 -0.19287509591E+03  0.20060902547E+03  0.41800000000E+01 0.  1.
</event>
<event>
11    1  0.8551154E-009  0.1472383E+03  0.7561462E-02  0.1099735E+00
         22   -1    0    0    0    0  0.00000000000E+00  0.00000000000E+00  0.45853802526E+03  0.45853802526E+03  0.00000000000E+00 0. -1.
         22   -1    0    0    0    0 -0.00000000000E+00 -0.00000000000E+00 -0.25492216348E+03  0.25492216348E+03  0.00000000000E+00 0.  1.
         24    2    1    2    0    0  0.58173725911E+02  0.71934017017E+01 -0.20184560110E+03  0.22515490584E+03  0.80728913819E+02 0.  0.
         25    2    1    2    0    0 -0.42332611982E+02  0.72784980850E+02  0.17803293743E+03  0.23330839257E+03  0.12508947102E+03 0.  0.
        -24    2    1    2    0    0 -0.15841113929E+02 -0.79978382551E+02  0.22742852545E+03  0.25499689032E+03  0.81561003657E+02 0.  0.
        -13    1    3    3    0    0 -0.14343733930E+02  0.20242917401E+02 -0.67744118818E+02  0.72144189249E+02  0.00000000000E+00 0.  1.
         14    1    3    3    0    0  0.72517459841E+02 -0.13049515700E+02 -0.13410148228E+03  0.15301071659E+03  0.00000000000E+00 0. -1.
         13    1    5    5    0    0 -0.37762383481E+01 -0.95532497276E+02  0.19082785458E+03  0.21343848785E+03  0.00000000000E+00 0. -1.
        -14    1    5    5    0    0 -0.12064875581E+02  0.15554114724E+02  0.36600670875E+02  0.41558402473E+02  0.00000000000E+00 0.  1.
          5    1    4    4  501    0  0.22878097577E+02  0.70059591998E+02  0.13834375028E+03  0.15680631180E+03  0.41800000000E+01 0. -1.
         -5    1    4    4    0  501 -0.65210709559E+02  0.27253888519E+01  0.39689187158E+02  0.76502080774E+02  0.41800000000E+01 0. -1.
</event>
<event>
11    1  0.8551154E-009  0.1340130E+03  0.7561462E-02  0.1114434E+00
         22   -1    0    0    0    0  0.00000000000E+00  0.00000000000E+00  0.72526180091E+02  0.72526180091E+02  0.00000000000E+00 0.  1.
         22   -1    0    0    0    0 -0.00000000000E+00 -0.00000000000E+00 -0.19594927722E+04  0.19594927722E+04  0.00000000000E+00 0. -1.
         24    2    1    2    0    0 -0.57957769712E+01 -0.30333276472E+01 -0.17542314945E+04  0.17558370576E+04  0.74785322058E+02 0.  0.
         25    2    1    2    0    0  0.37613312131E+02  0.36930629951E+02 -0.12073046707E+03  0.18165910825E+03  0.12508218599E+03 0.  0.
        -24    2    1    2    0    0 -0.31817535160E+02 -0.33897302304E+02 -0.12004630461E+02  0.94522786376E+02  0.81419060082E+02 0.  0.
        -11    1    3    3    0    0 -0.26978987778E+02 -0.13174437812E+02 -0.31815024749E+03  0.31956378325E+03  0.00000000000E+00 0.  1.
         12    1    3    3    0    0  0.21183210807E+02  0.10141110165E+02 -0.14360812471E+04  0.14362732744E+04  0.00000000000E+00 0. -1.
         11    1    5    5    0    0 -0.53773094748E+02 -0.57199370780E+01 -0.20454562671E+02  0.57815677225E+02  0.00000000000E+00 0. -1.
        -12    1    5    5    0    0  0.21955559588E+02 -0.28177365226E+02  0.84499322096E+01  0.36707109151E+02  0.00000000000E+00 0.  1.
          5    1    4    4  501    0  0.49185267140E+02  0.16622968984E+02 -0.14107994664E+03  0.15038795612E+03  0.41800000000E+01 0. -1.
         -5    1    4    4    0  501 -0.11571955009E+02  0.20307660968E+02  0.20349479572E+02  0.31271152130E+02  0.41800000000E+01 0. -1.
</event>
<event>
11    1  0.8551154E-009  0.1390609E+03  0.7561462E-02  0.1108612E+00
         22   -1    0    0    0    0  0.00000000000E+00  0.00000000000E+00  0.36948970019E+02  0.36948970019E+02  0.00000000000E+00 0.  1.
         22   -1    0    0    0    0 -0.00000000000E+00 -0.00000000000E+00 -0.10099301516E+04  0.10099301516E+04  0.00000000000E+00 0.  1.
         24    2    1    2    0    0  0.13289441025E+02 -0.43441078534E+02 -0.35856321505E+03  0.37643107862E+03  0.10520951106E+03 0.  0.
         25    2    1    2    0    0 -0.83625547277E+02  0.56248490709E+02 -0.36056257553E+03  0.39472763936E+03  0.12508962200E+03 0.  0.
        -24    2    1    2    0    0  0.70336106252E+02 -0.12807412175E+02 -0.25385539103E+03  0.27572040367E+03  0.80423776316E+02 0.  0.
        -11    1    3    3    0    0 -0.36119438024E+02  0.56249359792E+01 -0.63568412368E+02  0.73329371734E+02  0.00000000000E+00 0.  1.
         12    1    3    3    0    0  0.49408879048E+02 -0.49066014513E+02 -0.29499480268E+03  0.30310170689E+03  0.00000000000E+00 0. -1.
         13    1    5    5    0    0 -0.81164570928E+01 -0.18348683842E+02 -0.10957291844E+03  0.11139468358E+03  0.00000000000E+00 0. -1.
        -14    1    5    5    0    0  0.78452563345E+02  0.55412716662E+01 -0.14428247259E+03  0.16432572009E+03  0.00000000000E+00 0.  1.
          5    1    4    4  501    0  0.25905967929E+02  0.87750004433E+01 -0.20906537378E+02  0.34679612343E+02  0.41800000000E+01 0.  1.
         -5    1    4    4    0  501 -0.10953151521E+03  0.47473490266E+02 -0.33965603815E+03  0.36004802701E+03  0.41800000000E+01 0.  1.
</event>
<event>
11    1  0.8551154E-009  0.1913332E+03  0.7561462E-02  0.1060827E+00
         22   -1    0    0    0    0  0.00000000000E+00  0.00000000000E+00  0.25773687335E+04  0.25773687335E+04  0.00000000000E+00 0. -1.
         22   -1    0    0    0    0 -0.00000000000E+00 -0.00000000000E+00 -0.83278028867E+02  0.83278028867E+02  0.00000000000E+00 0.  1.
        -24    2    1    2    0    0 -0.17624312021E+02  0.21433305196E+01 -0.19162202739E+02  0.84193245100E+02  0.80038130081E+02 0.  0.
         25    2    1    2    0    0 -0.95639362022E+02 -0.94247924183E+02  0.26681125198E+03  0.32382611664E+03  0.12508217642E+03 0.  0.
         24    2    1    2    0    0  0.11326367404E+03  0.92104593664E+02  0.22464416554E+04  0.22526274006E+04  0.80735239647E+02 0.  0.
        -11    1    5    5    0    0  0.14055806389E+01  0.44471511739E+02  0.70129656377E+03  0.70270659693E+03  0.00000000000E+00 0.  1.
         12    1    5    5    0    0  0.11185809340E+03  0.47633081925E+02  0.15451450916E+04  0.15499208037E+04  0.00000000000E+00 0. -1.
         13    1    3    3    0    0 -0.13536815251E+02  0.12157569188E+02  0.29326799276E+02  0.34512505147E+02  0.00000000000E+00 0. -1.
        -14    1    3    3    0    0 -0.40874967705E+01 -0.10014238669E+02 -0.48489002015E+02  0.49680739954E+02  0.00000000000E+00 0.  1.
          5    1    4    4  501    0 -0.54889003590E+02 -0.91744294637E+02  0.26137687460E+03  0.28242726725E+03  0.41800000000E+01 0. -1.
         -5    1    4    4    0  501 -0.40750358433E+02 -0.25036295466E+01  0.54343773801E+01  0.41398849390E+02  0.41800000000E+01 0. -1.
</event>
<event>
11    1  0.8551154E-009  0.1286000E+03  0.7561462E-02  0.1121001E+00
         22   -1    0    0    0    0  0.00000000000E+00  0.00000000000E+00  0.17611322210E+04  0.17611322210E+04  0.00000000000E+00 0.  1.
         22   -1    0    0    0    0 -0.00000000000E+00 -0.00000000000E+00 -0.29015488785E+03  0.29015488785E+03  0.00000000000E+00 0. -1.
        -24    2    1    2    0    0  0.12667250311E+02  0.56499961937E+01 -0.21737195973E+03  0.23282368176E+03  0.82243031458E+02 0.  0.
         25    2    1    2    0    0 -0.12174502615E+02  0.24302686907E+02  0.79548904911E-01  0.12800485571E+03  0.12508556132E+03 0.  0.
         24    2    1    2    0    0 -0.49274769619E+00 -0.29952683100E+02  0.16882697439E+04  0.16904585713E+04  0.80610465436E+02 0.  0.
        -13    1    5    5    0    0  0.12055825046E+02 -0.55831706256E+02  0.10804273925E+04  0.10819361685E+04  0.00000000000E+00 0.  1.
         14    1    5    5    0    0 -0.12548572742E+02  0.25879023155E+02  0.60784235146E+03  0.60852240283E+03  0.00000000000E+00 0. -1.
         13    1    3    3    0    0 -0.72662477740E+01  0.33709999624E+02 -0.17434935058E+03  0.17772692109E+03  0.00000000000E+00 0. -1.
        -14    1    3    3    0    0  0.19933498085E+02 -0.28060003430E+02 -0.43022609145E+02  0.55096760668E+02  0.00000000000E+00 0.  1.
          5    1    4    4  501    0  0.11758580468E+02  0.69005692422E+02 -0.20594106325E+02  0.73086520074E+02  0.41800000000E+01 0.  1.
         -5    1    4    4    0  501 -0.23933083083E+02 -0.44703005515E+02  0.20673655230E+02  0.54918335631E+02  0.41800000000E+01 0.  1.
</event>
<event>
11    1  0.8551154E-009  0.1870245E+03  0.7561462E-02  0.1064098E+00
         22   -1    0    0    0    0  0.00000000000E+00  0.00000000000E+00  0.15481934060E+04  0.15481934060E+04  0.00000000000E+00 0. -1.
         22   -1    0    0    0    0 -0.00000000000E+00 -0.00000000000E+00 -0.14169091869E+03  0.14169091869E+03  0.00000000000E+00 0.  1.
        -24    2    1    2    0    0  0.34952641317E+02 -0.12844249660E+03 -0.58294305056E+02  0.16409257393E+03  0.76216695998E+02 0.  0.
         25    2    1    2    0    0 -0.10247954160E+03  0.17957514338E+03  0.52731287422E+03  0.58004776057E+03  0.12508896295E+03 0.  0.
         24    2    1    2    0    0  0.67526900280E+02 -0.51132646774E+02  0.93748391819E+03  0.94574399025E+03  0.91548721461E+02 0.  0.
        -11    1    5    5    0    0  0.31043397995E+02  0.42834812736E+01  0.83503440960E+02  0.89190052265E+02  0.00000000000E+00 0.  1.
         12    1    5    5    0    0  0.36483502285E+02 -0.55416128048E+02  0.85398047723E+03  0.85655393798E+03  0.00000000000E+00 0. -1.
         13    1    3    3    0    0 -0.22651459438E+02 -0.28788168374E+02 -0.40763591459E+01  0.36857346037E+02  0.00000000000E+00 0. -1.
        -14    1    3    3    0    0  0.57604100756E+02 -0.99654328227E+02 -0.54217945910E+02  0.12723522789E+03  0.00000000000E+00 0.  1.
          5    1    4    4  501    0 -0.97278310594E+02  0.19683169374E+03  0.45235453874E+03  0.50283982190E+03  0.41800000000E+01 0.  1.
         -5    1    4    4    0  501 -0.52012310030E+01 -0.17256550362E+02  0.74958335483E+02  0.77207938664E+02  0.41800000000E+01 0.  1.
</event>
<event>
11    1  0.8551154E-009  0.1367313E+03  0.7561462E-02  0.1111264E+00
         22   -1    0    0    0    0  0.00000000000E+00  0.00000000000E+00  0.14049284879E+03  0.14049284879E+03  0.00000000000E+00 0. -1.
         22   -1    0    0    0    0 -0.00000000000E+00 -0.00000000000E+00 -0.23472370039E+04  0.23472370039E+04  0.00000000000E+00 0. -1.
         24    2    1    2    0    0 -0.42089375358E+02  0.38013440027E+02 -0.20751993450E+04  0.20775439714E+04  0.80747102492E+02 0.  0.
         25    2    1    2    0    0  0.34886600371E+02 -0.11835632039E+02 -0.24026130166E+03  0.27336798644E+03  0.12508959135E+03 0.  0.
        -24    2    1    2    0    0  0.72027749867E+01 -0.26177807988E+02  0.10871649153E+03  0.13681789485E+03  0.78502886708E+02 0.  0.
        -11    1    3    3    0    0  0.12164139568E+01 -0.60037515083E-01  0.29148084189E+00  0.12522893031E+01  0.00000000000E+00 0.  1.
         12    1    3    3    0    0 -0.43305789315E+02  0.38073477542E+02 -0.20754908258E+04  0.20762916821E+04  0.00000000000E+00 0. -1.
         11    1    5    5    0    0  0.12949144733E+02 -0.29635090994E+02  0.11967631635E+03  0.12396910770E+03  0.00000000000E+00 0. -1.
        -12    1    5    5    0    0 -0.57463697459E+01  0.34572830057E+01 -0.10959824824E+02  0.12848787150E+02  0.00000000000E+00 0.  1.
          5    1    4    4  501    0 -0.75832791383E+01  0.46074367209E+02 -0.43828082840E+02  0.64177306594E+02  0.41800000000E+01 0.  1.
         -5    1    4    4    0  501  0.42469879510E+02 -0.57909999247E+02 -0.19643321882E+03  0.20919067985E+03  0.41800000000E+01 0.  1.
</event>
<event>
11    1  0.8551154E-009  0.1850648E+03  0.7561462E-02  0.1065618E+00
         22   -1    0    0    0    0  0.00000000000E+00  0.00000000000E+00  0.46510617189E+04  0.46510617189E+04  0.00000000000E+00 0. -1.
         22   -1    0    0    0    0 -0.00000000000E+00 -0.00000000000E+00 -0.51209711605E+03  0.51209711605E+03  0.00000000000E+00 0.  1.
         24    2    1    2    0    0 -0.46911522665E+02  0.50562920993E+02 -0.38704103698E+03  0.40124646356E+03  0.80253724401E+02 0.  0.
         25    2    1    2    0    0  0.84632117341E+02 -0.18088464787E+03  0.25121341584E+01  0.23565689637E+03  0.12508401523E+03 0.  0.
        -24    2    1    2    0    0 -0.37720594676E+02  0.13032172688E+03  0.45234935056E+04  0.45262554750E+04  0.81169782614E+02 0.  0.
        -11    1    3    3    0    0 -0.42002463174E+02  0.71996371781E+02 -0.28969600844E+03  0.30144893725E+03  0.00000000000E+00 0.  1.
         12    1    3    3    0    0 -0.49090594914E+01 -0.21433450788E+02 -0.97345028535E+02  0.99797526313E+02  0.00000000000E+00 0. -1.
         13    1    5    5    0    0 -0.32690154161E+02  0.13206098645E+03  0.45038303830E+04  0.45058846933E+04  0.00000000000E+00 0. -1.
        -14    1    5    5    0    0 -0.50304405149E+01 -0.17392595693E+01  0.19663122586E+02  0.20370781660E+02  0.00000000000E+00 0.  1.
          5    1    4    4  501    0 -0.29399759185E+02 -0.53074929878E+02 -0.17168070721E+02  0.63194217093E+02  0.41800000000E+01 0. -1.
         -5    1    4    4    0  501  0.11403187653E+03 -0.12780971800E+03  0.19680204880E+02  0.17246267927E+03  0.41800000000E+01 0. -1.
</event>
<event>
11    1  0.8551154E-009  0.1496501E+03  0.7561462E-02  0.1097237E+00
         22   -1    0    0    0    0  0.00000000000E+00  0.00000000000E+00  0.13519901246E+04  0.13519901246E+04  0.00000000000E+00 0. -1.
         22   -1    0    0    0    0 -0.00000000000E+00 -0.00000000000E+00 -0.15579858252E+03  0.15579858252E+03  0.00000000000E+00 0. -1.
         24    2    1    2    0    0  0.30378085625E+02 -0.23797815965E+02 -0.12349749020E+03  0.15149276000E+03  0.78798871287E+02 0.  0.
         25    2    1    2    0    0 -0.85160584482E+02  0.74958644599E+02  0.46415970610E+03  0.49392607459E+03  0.12509041069E+03 0.  0.
        -24    2    1    2    0    0  0.54782498857E+02 -0.51160828634E+02  0.85552932620E+03  0.86236987256E+03  0.78312301315E+02 0.  0.
        -11    1    3    3    0    0  0.32501162622E+02  0.23646642230E+02 -0.53928809370E+02  0.67259242790E+02  0.00000000000E+00 0.  1.
         12    1    3    3    0    0 -0.21230769972E+01 -0.47444458196E+02 -0.69568680827E+02  0.84233517209E+02  0.00000000000E+00 0. -1.
         13    1    5    5    0    0  0.96549121315E+01 -0.45970994682E+02  0.65844209218E+03  0.66011554930E+03  0.00000000000E+00 0. -1.
        -14    1    5    5    0    0  0.45127586726E+02 -0.51898339515E+01  0.19708723403E+03  0.20225432326E+03  0.00000000000E+00 0.  1.
          5    1    4    4  501    0 -0.10525791778E+03  0.86116102965E+02  0.31762713867E+03  0.34554259370E+03  0.41800000000E+01 0. -1.
         -5    1    4    4    0  501  0.20097333295E+02 -0.11157458366E+02  0.14653256743E+03  0.14838348089E+03  0.41800000000E+01 0. -1.
</event>
<event>
11    1  0.8551154E-009  0.1436874E+03  0.7561462E-02  0.1103509E+00
         22   -1    0    0    0    0  0.00000000000E+00  0.00000000000E+00  0.77497440017E+03  0.77497440017E+03  0.00000000000E+00 0. -1.
         22   -1    0    0    0    0 -0.00000000000E+00 -0.00000000000E+00 -0.59794502943E+03  0.59794502943E+03  0.00000000000E+00 0. -1.
         24    2    1    2    0    0  0.61521589183E+02 -0.37424236750E+02 -0.50714167367E+03  0.51942813197E+03  0.86182525383E+02 0.  0.
         25    2    1    2    0    0 -0.35389056072E+02  0.52429301689E+02 -0.22154566615E+02  0.14191354885E+03  0.12508962211E+03 0.  0.
        -24    2    1    2    0    0 -0.26132533111E+02 -0.15005064939E+02  0.70632561102E+03  0.71157774877E+03  0.80863851673E+02 0.  0.
        -13    1    3    3    0    0 -0.13760737485E+02 -0.33750699878E+02 -0.18873486729E+03  0.19222205328E+03  0.00000000000E+00 0.  1.
         14    1    3    3    0    0  0.75282326668E+02 -0.36735368720E+01 -0.31840680638E+03  0.32720607869E+03  0.00000000000E+00 0. -1.
         11    1    5    5    0    0  0.18493538164E+01 -0.44240994477E+02  0.30146344992E+03  0.30469804289E+03  0.00000000000E+00 0. -1.
        -12    1    5    5    0    0 -0.27981886927E+02  0.29235929538E+02  0.40486216110E+03  0.40687970589E+03  0.00000000000E+00 0.  1.
          5    1    4    4  501    0  0.41722545835E+02  0.19138127382E+02 -0.33605550338E+02  0.57042476841E+02  0.41800000000E+01 0. -1.
         -5    1    4    4    0  501 -0.77111601907E+02  0.33291174307E+02  0.11450983723E+02  0.84871072007E+02  0.41800000000E+01 0. -1.
</event>
<event>
11    1  0.8551154E-009  0.1400013E+03  0.7561462E-02  0.1107557E+00
         22   -1    0    0    0    0  0.00000000000E+00  0.00000000000E+00  0.10599466182E+04  0.10599466182E+04  0.00000000000E+00 0. -1.
         22   -1    0    0    0    0 -0.00000000000E+00 -0.00000000000E+00 -0.29810254705E+03  0.29810254705E+03  0.00000000000E+00 0.  1.
         24    2    1    2    0    0 -0.62066790083E+02 -0.97564090218E+01 -0.26173516121E+03  0.28105959027E+03  0.80880929285E+02 0.  0.
         25    2    1    2    0    0  0.65593632215E+02 -0.69259185221E+01  0.17687207289E+03  0.22645391055E+03  0.12508857062E+03 0.  0.
        -24    2    1    2    0    0 -0.35268421323E+01  0.16682327544E+02  0.84670715950E+03  0.85053566446E+03  0.78785556438E+02 0.  0.
        -13    1    3    3    0    0 -0.73932073322E+02 -0.66799810232E+00 -0.25335897764E+03  0.26392644664E+03  0.00000000000E+00 0.  1.
         14    1    3    3    0    0  0.11865283239E+02 -0.90884109194E+01 -0.83761835701E+01  0.17133143628E+02  0.00000000000E+00 0. -1.
         11    1    5    5    0    0 -0.28385544290E+02 -0.21036147265E+02  0.35014669819E+03  0.35192466363E+03  0.00000000000E+00 0. -1.
        -12    1    5    5    0    0  0.24858702158E+02  0.37718474809E+02  0.49656046131E+03  0.49861100083E+03  0.00000000000E+00 0.  1.
          5    1    4    4  501    0  0.39558465072E+02 -0.13837258686E+02  0.19111309208E+03  0.19569882026E+03  0.41800000000E+01 0. -1.
         -5    1    4    4    0  501  0.26035167143E+02  0.69113401635E+01 -0.14241019193E+02  0.30755090289E+02  0.41800000000E+01 0. -1.
</event>
<event>
11    1  0.8551154E-009  0.1410747E+03  0.7561462E-02  0.1106364E+00
         22   -1    0    0    0    0  0.00000000000E+00  0.00000000000E+00  0.37197032222E+03  0.37197032222E+03  0.00000000000E+00 0. -1.
         22   -1    0    0    0    0 -0.00000000000E+00 -0.00000000000E+00 -0.52716823648E+03  0.52716823648E+03  0.00000000000E+00 0. -1.
        -24    2    1    2    0    0 -0.58658958700E+02  0.21798412926E+02 -0.43573372583E+03  0.44758215071E+03  0.80931190322E+02 0.  0.
         25    2    1    2    0    0  0.95873907396E+02 -0.35932566841E+02  0.44387419848E+01  0.16170964351E+03  0.12508937162E+03 0.  0.
         24    2    1    2    0    0 -0.37214948696E+02  0.14134153914E+02  0.27609706958E+03  0.28984676449E+03  0.78719936103E+02 0.  0.
        -13    1    5    5    0    0 -0.97183953749E+01  0.19626284081E+01 -0.20120865343E+01  0.10116699618E+02  0.00000000000E+00 0.  1.
         14    1    5    5    0    0 -0.27496553321E+02  0.12171525506E+02  0.27810915612E+03  0.27973006487E+03  0.00000000000E+00 0. -1.
         11    1    3    3    0    0 -0.24644883040E+02 -0.16316354554E+02 -0.31635006973E+03  0.31772780851E+03  0.00000000000E+00 0. -1.
        -12    1    3    3    0    0 -0.34014075659E+02  0.38114767480E+02 -0.11938365610E+03  0.12985434219E+03  0.00000000000E+00 0.  1.
          5    1    4    4  501    0  0.17554948360E+02  0.44748425269E+02  0.90664281037E+01  0.49094503710E+02  0.41800000000E+01 0.  1.
         -5    1    4    4    0  501  0.78318959036E+02 -0.80680992110E+02 -0.46276861190E+01  0.11261513979E+03  0.41800000000E+01 0.  1.
</event>
<event>
11    1  0.8551154E-009  0.1365049E+03  0.7561462E-02  0.1111525E+00
         22   -1    0    0    0    0  0.00000000000E+00  0.00000000000E+00  0.35960162188E+03  0.35960162188E+03  0.00000000000E+00 0.  1.
         22   -1    0    0    0    0 -0.00000000000E+00 -0.00000000000E+00 -0.27353337489E+04  0.27353337489E+04  0.00000000000E+00 0. -1.
        -24    2    1    2    0    0  0.22013918670E+02 -0.34003341445E+02 -0.24486099716E+04  0.24501962396E+04  0.78294185595E+02 0.  0.
         25    2    1    2    0    0  0.30156996445E+02  0.50743382740E+02 -0.26186203009E+03  0.29616661502E+03  0.12513435068E+03 0.  0.
         24    2    1    2    0    0 -0.52170915115E+02 -0.16740041295E+02  0.33473987471E+03  0.34857251616E+03  0.80311779557E+02 0.  0.
        -13    1    5    5    0    0 -0.32927910350E+02 -0.41807730262E+02  0.28288141900E+03  0.28784376110E+03  0.00000000000E+00 0.  1.
         14    1    5    5    0    0 -0.19243004764E+02  0.25067688967E+02  0.51858455712E+02  0.60728755062E+02  0.00000000000E+00 0. -1.
         13    1    3    3    0    0  0.35597558436E+02 -0.49335362703E+02 -0.21617344924E+04  0.21625903865E+04  0.00000000000E+00 0. -1.
        -14    1    3    3    0    0 -0.13583639766E+02  0.15332021258E+02 -0.28687547920E+03  0.28760585306E+03  0.00000000000E+00 0.  1.
          5    1    4    4  501    0 -0.15780728217E+02  0.78606982937E+02 -0.19063017193E+03  0.20684637778E+03  0.41800000000E+01 0. -1.
         -5    1    4    4    0  501  0.45937724661E+02 -0.27863600198E+02 -0.71231858160E+02  0.89320237237E+02  0.41800000000E+01 0. -1.
</event>
<event>
11    1  0.8551154E-009  0.1322004E+03  0.7561462E-02  0.1116595E+00
         22   -1    0    0    0    0  0.00000000000E+00  0.00000000000E+00  0.47421380458E+03  0.47421380458E+03  0.00000000000E+00 0.  1.
         22   -1    0    0    0    0 -0.00000000000E+00 -0.00000000000E+00 -0.52631089266E+03  0.52631089266E+03  0.00000000000E+00 0. -1.
        -24    2    1    2    0    0  0.77193903969E+01 -0.44304385447E+02 -0.45310894892E+03  0.46257577787E+03  0.81524003327E+02 0.  0.
         25    2    1    2    0    0 -0.33283820029E+02  0.59598372281E+01  0.22365589228E+01  0.12959352335E+03  0.12508455845E+03 0.  0.
         24    2    1    2    0    0  0.25564429632E+02  0.38344548218E+02  0.39877530193E+03  0.40835539602E+03  0.74890210272E+02 0.  0.
        -11    1    5    5    0    0  0.21325113324E+02  0.35504558296E+02  0.40074961218E+03  0.40288408480E+03  0.00000000000E+00 0.  1.
         12    1    5    5    0    0  0.42393163087E+01  0.28399899222E+01 -0.19743102581E+01  0.54713112248E+01  0.00000000000E+00 0. -1.
         13    1    3    3    0    0 -0.13749685758E+02 -0.52448837759E+02 -0.16776593577E+03  0.17631036171E+03  0.00000000000E+00 0. -1.
        -14    1    3    3    0    0  0.21469076155E+02  0.81444523120E+01 -0.28534301315E+03  0.28626541616E+03  0.00000000000E+00 0.  1.
          5    1    4    4  501    0 -0.37418480685E+02 -0.42295542176E+02 -0.36555459265E+02  0.67400516220E+02  0.41800000000E+01 0. -1.
         -5    1    4    4    0  501  0.41346606553E+01  0.48255379404E+02  0.38792018188E+02  0.62193007125E+02  0.41800000000E+01 0. -1.
</event>
<event>
11    1  0.8551154E-009  0.1338906E+03  0.7561462E-02  0.1114579E+00
         22   -1    0    0    0    0  0.00000000000E+00  0.00000000000E+00  0.16431773531E+04  0.16431773531E+04  0.00000000000E+00 0.  1.
         22   -1    0    0    0    0 -0.00000000000E+00 -0.00000000000E+00 -0.20126133513E+03  0.20126133513E+03  0.00000000000E+00 0.  1.
        -24    2    1    2    0    0 -0.46468532513E+02 -0.16773850749E+02 -0.15665703415E+03  0.18252504388E+03  0.79581899407E+02 0.  0.
         25    2    1    2    0    0  0.27294504058E+02  0.13216127945E+02  0.10505222264E+03  0.16614541845E+03  0.12509466256E+03 0.  0.
         24    2    1    2    0    0  0.19174028456E+02  0.35577228047E+01  0.14935208295E+04  0.14957682259E+04  0.79610406151E+02 0.  0.
        -11    1    5    5    0    0 -0.24731284160E+02 -0.86070222402E+01  0.94363595642E+03  0.94399922431E+03  0.00000000000E+00 0.  1.
         12    1    5    5    0    0  0.43905312615E+02  0.12164745045E+02  0.54988487306E+03  0.55176900159E+03  0.00000000000E+00 0. -1.
         11    1    3    3    0    0  0.10269497125E+02  0.18539534158E+02 -0.15215751119E+02  0.26090151017E+02  0.00000000000E+00 0. -1.
        -12    1    3    3    0    0 -0.56738029638E+02 -0.35313384907E+02 -0.14144128303E+03  0.15643489286E+03  0.00000000000E+00 0.  1.
          5    1    4    4  501    0  0.27235860376E+01  0.67623330537E+02  0.66400104139E+02  0.94904051460E+02  0.41800000000E+01 0. -1.
         -5    1    4    4    0  501  0.24570918020E+02 -0.54407202592E+02  0.38652118505E+02  0.71241366994E+02  0.41800000000E+01 0. -1.
</event>
<event>
11    1  0.8551154E-009  0.1291075E+03  0.7561462E-02  0.1120370E+00
         22   -1    0    0    0    0  0.00000000000E+00  0.00000000000E+00  0.60062380782E+03  0.60062380782E+03  0.00000000000E+00 0. -1.
         22   -1    0    0    0    0 -0.00000000000E+00 -0.00000000000E+00 -0.60992124443E+03  0.60992124443E+03  0.00000000000E+00 0. -1.
         24    2    1    2    0    0 -0.31974478098E+02 -0.50871668165E+01 -0.54206782226E+03  0.54900126826E+03  0.80725597589E+02 0.  0.
         25    2    1    2    0    0  0.22832375919E+02  0.96157702837E+01  0.50259435641E+01  0.12761675138E+03  0.12508794784E+03 0.  0.
        -24    2    1    2    0    0  0.91421021796E+01 -0.45286034672E+01  0.52774444209E+03  0.53392703261E+03  0.80372841877E+02 0.  0.
        -11    1    3    3    0    0 -0.23249042213E+01  0.29684921558E+02 -0.93855564438E+02  0.98465561104E+02  0.00000000000E+00 0.  1.
         12    1    3    3    0    0 -0.29649573877E+02 -0.34772088375E+02 -0.44821225782E+03  0.45053570716E+03  0.00000000000E+00 0. -1.
         13    1    5    5    0    0  0.23078624907E+02 -0.26845771457E+02  0.45829874393E+03  0.45966406980E+03  0.00000000000E+00 0. -1.
        -14    1    5    5    0    0 -0.13936522728E+02  0.22317167990E+02  0.69445698156E+02  0.74262962809E+02  0.00000000000E+00 0.  1.
          5    1    4    4  501    0  0.28041171337E+02 -0.47663725062E+02  0.31917874439E+02  0.63987194699E+02  0.41800000000E+01 0.  1.
         -5    1    4    4    0  501 -0.52087954186E+01  0.57279495346E+02 -0.26891930875E+02  0.63629556677E+02  0.41800000000E+01 0.  1.
</event>
<event>
11    1  0.8551154E-009  0.1346841E+03  0.7561462E-02  0.1113644E+00
         22   -1    0    0    0    0  0.00000000000E+00  0.00000000000E+00  0.19248764031E+03  0.19248764031E+03  0.00000000000E+00 0.  1.
         22   -1    0    0    0    0 -0.00000000000E+00 -0.00000000000E+00 -0.52959324632E+03  0.52959324632E+03  0.00000000000E+00 0.  1.
        -24    2    1    2    0    0  0.38179068199E+02 -0.26394811291E+02 -0.24930070347E+03  0.26738736411E+03  0.84798787878E+02 0.  0.
         25    2    1    2    0    0 -0.59666944801E+02  0.10392572843E+02 -0.24183783088E+03  0.27892848643E+03  0.12508962477E+03 0.  0.
         24    2    1    2    0    0  0.21487876601E+02  0.16002238448E+02  0.15403292834E+03  0.17576503609E+03  0.80308184022E+02 0.  0.
        -13    1    5    5    0    0  0.12927326315E+02 -0.13961782052E+02  0.14051346208E+03  0.14179591020E+03  0.00000000000E+00 0.  1.
         14    1    5    5    0    0  0.85605502859E+01  0.29964020499E+02  0.13519466266E+02  0.33969125891E+02  0.00000000000E+00 0. -1.
         11    1    3    3    0    0 -0.17373193025E+02  0.16471800839E+02 -0.93472133662E+02  0.96489314590E+02  0.00000000000E+00 0. -1.
        -12    1    3    3    0    0  0.55552261224E+02 -0.42866612130E+02 -0.15582856981E+03  0.17089804952E+03  0.00000000000E+00 0.  1.
          5    1    4    4  501    0 -0.12512997608E+02 -0.36647593392E+02 -0.19127560857E+03  0.19520105543E+03  0.41800000000E+01 0.  1.
         -5    1    4    4    0  501 -0.47153947193E+02  0.47040166236E+02 -0.50562222313E+02  0.83727430993E+02  0.41800000000E+01 0.  1.
</event>
<event>
11    1  0.8551154E-009  0.1300545E+03  0.7561462E-02  0.1119202E+00
         22   -1    0    0    0    0  0.00000000000E+00  0.00000000000E+00  0.49234662551E+03  0.49234662551E+03  0.00000000000E+00 0. -1.
         22   -1    0    0    0    0 -0.00000000000E+00 -0.00000000000E+00 -0.16571696382E+03  0.16571696382E+03  0.00000000000E+00 0.  1.
        -24    2    1    2    0    0  0.27143464074E+02 -0.18195464695E+02 -0.11502537178E+03  0.14390352795E+03  0.80059644170E+02 0.  0.
         25    2    1    2    0    0 -0.60802856054E+02  0.33666347741E+02  0.13538604537E+03  0.19699306599E+03  0.12508587647E+03 0.  0.
         24    2    1    2    0    0  0.33659391980E+02 -0.15470883046E+02  0.30626898810E+03  0.31716699539E+03  0.73633599663E+02 0.  0.
        -13    1    5    5    0    0 -0.21386628566E+01 -0.37122747120E+02  0.99804325136E+02  0.10650622305E+03  0.00000000000E+00 0.  1.
         14    1    5    5    0    0  0.35798054837E+02  0.21651864074E+02  0.20646466297E+03  0.21066077234E+03  0.00000000000E+00 0. -1.
         11    1    3    3    0    0 -0.28459759823E+02 -0.77965076864E+01 -0.46133011577E+02  0.54763110014E+02  0.00000000000E+00 0. -1.
        -12    1    3    3    0    0  0.55603223897E+02 -0.10398957009E+02 -0.68892360203E+02  0.89140417932E+02  0.00000000000E+00 0.  1.
          5    1    4    4  501    0 -0.23044292768E+02  0.49982659728E+02 -0.24723139882E+00  0.55198181365E+02  0.41800000000E+01 0.  1.
         -5    1    4    4    0  501 -0.37758563286E+02 -0.16316311987E+02  0.13563327677E+03  0.14179488462E+03  0.41800000000E+01 0.  1.
</event>
<event>
11    1  0.8551154E-009  0.1375190E+03  0.7561462E-02  0.1110361E+00
         22   -1    0    0    0    0  0.00000000000E+00  0.00000000000E+00  0.30405142451E+03  0.30405142451E+03  0.00000000000E+00 0.  1.
         22   -1    0    0    0    0 -0.00000000000E+00 -0.00000000000E+00 -0.19344931139E+03  0.19344931139E+03  0.00000000000E+00 0.  1.
         24    2    1    2    0    0 -0.38344402745E+02  0.80618037892E+02 -0.10986075125E+03  0.16228434542E+03  0.79355295009E+02 0.  0.
         25    2    1    2    0    0 -0.32904310407E+02 -0.25885235149E+02  0.10591108600E+03  0.16916502338E+03  0.12508760113E+03 0.  0.
        -24    2    1    2    0    0  0.71248713152E+02 -0.54732802743E+02  0.11455177836E+03  0.16605136710E+03  0.79867939556E+02 0.  0.
        -11    1    3    3    0    0 -0.48674339001E+02  0.52862672170E+02 -0.11147110434E+03  0.13262526339E+03  0.00000000000E+00 0.  1.
         12    1    3    3    0    0  0.10329936256E+02  0.27755365722E+02  0.16103530920E+01  0.29659082024E+02  0.00000000000E+00 0. -1.
         13    1    5    5    0    0  0.15798862088E+02 -0.48108989256E+02  0.16580859247E+02  0.53282302727E+02  0.00000000000E+00 0. -1.
        -14    1    5    5    0    0  0.55449851064E+02 -0.66238134872E+01  0.97970919114E+02  0.11276906438E+03  0.00000000000E+00 0.  1.
          5    1    4    4  501    0  0.35405871006E+02  0.18497070684E+02  0.66880661621E+01  0.40717563220E+02  0.41800000000E+01 0.  1.
         -5    1    4    4    0  501 -0.68310181413E+02 -0.44382305833E+02  0.99223019843E+02  0.12844746016E+03  0.41800000000E+01 0.  1.
</event>
<event>
11    1  0.8551154E-009  0.1500367E+03  0.7561462E-02  0.1096841E+00
         22   -1    0    0    0    0  0.00000000000E+00  0.00000000000E+00  0.64913966516E+03  0.64913966516E+03  0.00000000000E+00 0.  1.
         22   -1    0    0    0    0 -0.00000000000E+00 -0.00000000000E+00 -0.58648922060E+03  0.58648922060E+03  0.00000000000E+00 0.  1.
         24    2    1    2    0    0 -0.84486079471E+02  0.12674746687E+02 -0.50439552288E+03  0.51802850569E+03  0.81487068826E+02 0.  0.
         25    2    1    2    0    0  0.53085687282E+02 -0.30512314504E+02 -0.45039977308E+01  0.13934316745E+03  0.12508853181E+03 0.  0.
        -24    2    1    2    0    0  0.31400392189E+02  0.17837567817E+02  0.57154996517E+03  0.57825721261E+03  0.80049221116E+02 0.  0.
        -11    1    3    3    0    0 -0.87472450535E+02  0.30803722062E+02 -0.46970829056E+03  0.47877570648E+03  0.00000000000E+00 0.  1.
         12    1    3    3    0    0  0.29863710646E+01 -0.18128975375E+02 -0.34687232317E+02  0.39252799213E+02  0.00000000000E+00 0. -1.
         11    1    5    5    0    0  0.20095104549E+02  0.43329394423E+02  0.19845798615E+03  0.20412452551E+03  0.00000000000E+00 0. -1.
        -12    1    5    5    0    0  0.11305287640E+02 -0.25491826606E+02  0.37309197901E+03  0.37413268710E+03  0.00000000000E+00 0.  1.
          5    1    4    4  501    0  0.11948820440E+02 -0.70625963644E+02 -0.28142010002E+02  0.77072992530E+02  0.41800000000E+01 0. -1.
         -5    1    4    4    0  501  0.41136866842E+02  0.40113649141E+02  0.23638012271E+02  0.62270174924E+02  0.41800000000E+01 0. -1.
</event>
<event>
11    1  0.8551154E-009  0.1452358E+03  0.7561462E-02  0.1101849E+00
         22   -1    0    0    0    0  0.00000000000E+00  0.00000000000E+00  0.34654495111E+03  0.34654495111E+03  0.00000000000E+00 0. -1.
         22   -1    0    0    0    0 -0.00000000000E+00 -0.00000000000E+00 -0.74782133805E+03  0.74782133805E+03  0.00000000000E+00 0.  1.
        -24    2    1    2    0    0  0.56298183530E+02  0.10427886490E+02 -0.68969340690E+03  0.69707969518E+03  0.83455854300E+02 0.  0.
         25    2    1    2    0    0  0.13628274788E+02 -0.58095365082E+02  0.85652889793E+02  0.16293758884E+03  0.12510571133E+03 0.  0.
         24    2    1    2    0    0 -0.69926458318E+02  0.47667478593E+02  0.20276413017E+03  0.23434900514E+03  0.81512364950E+02 0.  0.
        -11    1    5    5    0    0 -0.34841377455E+02  0.47964717068E+02  0.49836748280E+02  0.77448286912E+02  0.00000000000E+00 0.  1.
         12    1    5    5    0    0 -0.35085080863E+02 -0.29723847570E+00  0.15292738189E+03  0.15690071823E+03  0.00000000000E+00 0. -1.
         11    1    3    3    0    0  0.28089892842E+02 -0.34268429868E+02 -0.21969600989E+03  0.22411984323E+03  0.00000000000E+00 0. -1.
        -12    1    3    3    0    0  0.28208290688E+02  0.44696316358E+02 -0.46999739701E+03  0.47295985195E+03  0.00000000000E+00 0.  1.
          5    1    4    4  501    0  0.37720428277E+02 -0.16441387721E+02 -0.20611558557E+02  0.46211023423E+02  0.41800000000E+01 0.  1.
         -5    1    4    4    0  501 -0.24092153489E+02 -0.41653977361E+02  0.10626444835E+03  0.11672656541E+03  0.41800000000E+01 0.  1.
</event>
<event>
11    1  0.8551154E-009  0.1571125E+03  0.7561462E-02  0.1089825E+00
         22   -1    0    0    0    0  0.00000000000E+00  0.00000000000E+00  0.92624930083E+03  0.92624930083E+03  0.00000000000E+00 0. -1.
         22   -1    0    0    0    0 -0.00000000000E+00 -0.00000000000E+00 -0.12918936130E+03  0.12918936130E+03  0.00000000000E+00 0.  1.
         24    2    1    2    0    0 -0.10114494898E+02 -0.10788275778E+02 -0.50074881661E+02  0.95832282400E+02  0.80359459152E+02 0.  0.
         25    2    1    2    0    0  0.41534952774E+02 -0.79554565009E+02  0.63988487248E+02  0.16672123080E+03  0.12508941275E+03 0.  0.
        -24    2    1    2    0    0 -0.31420457876E+02  0.90342840787E+02  0.78314633394E+03  0.79288514894E+03  0.78737570351E+02 0.  0.
        -11    1    3    3    0    0 -0.38074455318E+02 -0.29249924037E+02 -0.32694812710E+02  0.58087631920E+02  0.00000000000E+00 0.  1.
         12    1    3    3    0    0  0.27959960419E+02  0.18461648259E+02 -0.17380068951E+02  0.37744650480E+02  0.00000000000E+00 0. -1.
         13    1    5    5    0    0  0.36380725211E+01  0.62018030170E+02  0.63507148170E+03  0.63810285888E+03  0.00000000000E+00 0. -1.
        -14    1    5    5    0    0 -0.35058530397E+02  0.28324810617E+02  0.14807485224E+03  0.15478229006E+03  0.00000000000E+00 0.  1.
          5    1    4    4  501    0 -0.18397722871E+02 -0.32389125305E+02 -0.28269427616E+02  0.46948531208E+02  0.41800000000E+01 0.  1.
         -5    1    4    4    0  501  0.59932675645E+02 -0.47165439705E+02  0.92257914864E+02  0.11977269959E+03  0.41800000000E+01 0.  1.
</event>
<event>
11    1  0.8551154E-009  0.1444962E+03  0.7561462E-02  0.1102639E+00
         22   -1    0    0    0    0  0.00000000000E+00  0.00000000000E+00  0.14643093657E+04  0.14643093657E+04  0.00000000000E+00 0.  1.
         22   -1    0    0    0    0 -0.00000000000E+00 -0.00000000000E+00 -0.23676544540E+04  0.23676544540E+04  0.00000000000E+00 0. -1.
         24    2    1    2    0    0  0.28081318239E+02 -0.11191925769E+02 -0.23367100871E+04  0.23382891280E+04  0.80425092865E+02 0.  0.
         25    2    1    2    0    0 -0.97730942841E+02  0.17152871124E+01  0.19858732876E+03  0.25424085231E+03  0.12508878624E+03 0.  0.
        -24    2    1    2    0    0  0.69649624602E+02  0.94766386566E+01  0.12347776700E+04  0.12394338394E+04  0.81113938687E+02 0.  0.
        -11    1    3    3    0    0 -0.17497786957E+02  0.22736459156E+02 -0.68012045008E+03  0.68072530858E+03  0.00000000000E+00 0.  1.
         12    1    3    3    0    0  0.45579105197E+02 -0.33928384925E+02 -0.16565896370E+04  0.16575638195E+04  0.00000000000E+00 0. -1.
         13    1    5    5    0    0  0.49745126346E+02 -0.82146176483E+01  0.29490079184E+03  0.29917976965E+03  0.00000000000E+00 0. -1.
        -14    1    5    5    0    0  0.19904498256E+02  0.17691256305E+02  0.93987687812E+03  0.94025406972E+03  0.00000000000E+00 0.  1.
          5    1    4    4  501    0 -0.11911879964E+02  0.22779353701E+02  0.15208378579E+03  0.15429757659E+03  0.41800000000E+01 0. -1.
         -5    1    4    4    0  501 -0.85819062878E+02 -0.21064066589E+02  0.46503542964E+02  0.99943275725E+02  0.41800000000E+01 0. -1.
</event>
<event>
11    1  0.8551154E-009  0.1409306E+03  0.7561462E-02  0.1106524E+00
         22   -1    0    0    0    0  0.00000000000E+00  0.00000000000E+00  0.65233788924E+03  0.65233788924E+03  0.00000000000E+00 0.  1.
         22   -1    0    0    0    0 -0.00000000000E+00 -0.00000000000E+00 -0.41517900194E+03  0.41517900194E+03  0.00000000000E+00 0. -1.
         24    2    1    2    0    0 -0.21825848020E+02  0.57848059143E+02 -0.28086200395E+03  0.29724089931E+03  0.75139346367E+02 0.  0.
         25    2    1    2    0    0 -0.11707197071E+02 -0.91663920489E+02 -0.73085864940E+02  0.17182915398E+03  0.12507750286E+03 0.  0.
        -24    2    1    2    0    0  0.33533045091E+02  0.33815861347E+02  0.59110675619E+03  0.59844683789E+03  0.80395540776E+02 0.  0.
        -13    1    3    3    0    0 -0.34462881159E+02 -0.12318785035E+01 -0.72275963897E+02  0.80081350261E+02  0.00000000000E+00 0.  1.
         14    1    3    3    0    0  0.12637033139E+02  0.59079937646E+02 -0.20858604005E+03  0.21715954905E+03  0.00000000000E+00 0. -1.
         13    1    5    5    0    0  0.13933155407E+02 -0.13443958373E+02  0.40421632297E+03  0.40467976054E+03  0.00000000000E+00 0. -1.
        -14    1    5    5    0    0  0.19599889684E+02  0.47259819719E+02  0.18689043322E+03  0.19376707735E+03  0.00000000000E+00 0.  1.
          5    1    4    4  501    0  0.52804070206E+02 -0.49204875023E+02 -0.58773762232E+02  0.93173049125E+02  0.41800000000E+01 0. -1.
         -5    1    4    4    0  501 -0.64511267277E+02 -0.42459045467E+02 -0.14312102709E+02  0.78656104859E+02  0.41800000000E+01 0. -1.
</event>
<event>
11    1  0.8551154E-009  0.1541345E+03  0.7561462E-02  0.1092727E+00
         22   -1    0    0    0    0  0.00000000000E+00  0.00000000000E+00  0.97860391993E+03  0.97860391993E+03  0.00000000000E+00 0. -1.
         22   -1    0    0    0    0 -0.00000000000E+00 -0.00000000000E+00 -0.25866143025E+03  0.25866143025E+03  0.00000000000E+00 0. -1.
        -24    2    1    2    0    0  0.87778519714E+02 -0.40522554096E+02 -0.20249496753E+03  0.23817206844E+03  0.79840944364E+02 0.  0.
         25    2    1    2    0    0 -0.30274437014E+02  0.36590585121E+02  0.91124939460E+02  0.16188181695E+03  0.12508619273E+03 0.  0.
         24    2    1    2    0    0 -0.57504082700E+02  0.39319689745E+01  0.83131251775E+03  0.83721146478E+03  0.80748713145E+02 0.  0.
        -13    1    5    5    0    0 -0.50491916889E+02 -0.14898534796E+02  0.24673209257E+03  0.25228580126E+03  0.00000000000E+00 0.  1.
         14    1    5    5    0    0 -0.70121658111E+01  0.18830503771E+02  0.58458042518E+03  0.58492566352E+03  0.00000000000E+00 0. -1.
         13    1    3    3    0    0  0.98998934240E+02 -0.29632956097E+02 -0.19531173047E+03  0.22096509482E+03  0.00000000000E+00 0. -1.
        -14    1    3    3    0    0 -0.11220414526E+02 -0.10889597999E+02 -0.71832370621E+01  0.17206973627E+02  0.00000000000E+00 0.  1.
          5    1    4    4  501    0 -0.32005182001E+02 -0.62049660386E+01 -0.22865168458E+02  0.40039001075E+02  0.41800000000E+01 0.  1.
         -5    1    4    4    0  501  0.17307449875E+01  0.42795551160E+02  0.11399010792E+03  0.12184281588E+03  0.41800000000E+01 0.  1.
</event>
<event>
11    1  0.8551154E-009  0.2024296E+03  0.7561462E-02  0.1052819E+00
         22   -1    0    0    0    0  0.00000000000E+00  0.00000000000E+00  0.89842959161E+02  0.89842959161E+02  0.00000000000E+00 0. -1.
         22   -1    0    0    0    0 -0.00000000000E+00 -0.00000000000E+00 -0.92757347350E+03  0.92757347350E+03  0.00000000000E+00 0. -1.
        -24    2    1    2    0    0 -0.72812766433E+02  0.11601824625E+02 -0.35526345588E+03  0.37149925417E+03  0.79770116400E+02 0.  0.
         25    2    1    2    0    0 -0.36044162682E+02 -0.13967712847E+03 -0.39913676009E+03  0.44245476753E+03  0.12508871325E+03 0.  0.
         24    2    1    2    0    0  0.10885692911E+03  0.12807530384E+03 -0.83330298374E+02  0.20346241096E+03  0.78739441056E+02 0.  0.
        -13    1    5    5    0    0  0.78477465831E+01  0.63701703995E+02 -0.16369315324E+02  0.66237819276E+02  0.00000000000E+00 0.  1.
         14    1    5    5    0    0  0.10100918253E+03  0.64373599847E+02 -0.66960983050E+02  0.13722459169E+03  0.00000000000E+00 0. -1.
         11    1    3    3    0    0 -0.11305692942E+02  0.26310556748E+02 -0.35840306822E+02  0.45875828956E+02  0.00000000000E+00 0. -1.
        -12    1    3    3    0    0 -0.61507073491E+02 -0.14708732124E+02 -0.31942314906E+03  0.32562342521E+03  0.00000000000E+00 0.  1.
          5    1    4    4  501    0 -0.16526480335E+02 -0.10466671264E+03 -0.38563880119E+03  0.39995375066E+03  0.41800000000E+01 0. -1.
         -5    1    4    4    0  501 -0.19517682346E+02 -0.35010415829E+02 -0.13497958896E+02  0.42501016871E+02  0.41800000000E+01 0. -1.
</event>
<event>
11    1  0.8551154E-009  0.1369062E+03  0.7561462E-02  0.1111063E+00
         22   -1    0    0    0    0  0.00000000000E+00  0.00000000000E+00  0.27414529623E+03  0.27414529623E+03  0.00000000000E+00 0. -1.
         22   -1    0    0    0    0 -0.00000000000E+00 -0.00000000000E+00 -0.81130196391E+03  0.81130196391E+03  0.00000000000E+00 0. -1.
         24    2    1    2    0    0 -0.56831735067E+02  0.34354840625E+01 -0.71937937416E+03  0.72614207500E+03  0.80833040588E+02 0.  0.
         25    2    1    2    0    0  0.34429571281E+02 -0.66140222271E+01 -0.25661896120E+02  0.13243069128E+03  0.12510081699E+03 0.  0.
        -24    2    1    2    0    0  0.22402163786E+02  0.31785381646E+01  0.20788460261E+03  0.22687449387E+03  0.88000385910E+02 0.  0.
        -13    1    3    3    0    0  0.71016856344E+01  0.15720781162E+02 -0.38873329124E+02  0.42528962089E+02  0.00000000000E+00 0.  1.
         14    1    3    3    0    0 -0.63933420701E+02 -0.12285297099E+02 -0.68050604504E+03  0.68361311291E+03  0.00000000000E+00 0. -1.
         13    1    5    5    0    0  0.40938364803E+02 -0.21934363730E+02  0.17689475662E+03  0.18289018822E+03  0.00000000000E+00 0. -1.
        -14    1    5    5    0    0 -0.18536201017E+02  0.25112901894E+02  0.30989845984E+02  0.43984305653E+02  0.00000000000E+00 0.  1.
          5    1    4    4  501    0  0.14118380897E+01  0.47581261500E+02 -0.45324896627E+02  0.65861888730E+02  0.41800000000E+01 0.  1.
         -5    1    4    4    0  501  0.33017733191E+02 -0.54195283728E+02  0.19663000507E+02  0.66568802546E+02  0.41800000000E+01 0.  1.
</event>
<event>
11    1  0.8551154E-009  0.1316507E+03  0.7561462E-02  0.1117257E+00
         22   -1    0    0    0    0  0.00000000000E+00  0.00000000000E+00  0.55908605280E+03  0.55908605280E+03  0.00000000000E+00 0. -1.
         22   -1    0    0    0    0 -0.00000000000E+00 -0.00000000000E+00 -0.17211500974E+04  0.17211500974E+04  0.00000000000E+00 0. -1.
         24    2    1    2    0    0  0.36990999745E+02  0.17969050959E+02 -0.16972325388E+04  0.16996528494E+04  0.80810252528E+02 0.  0.
         25    2    1    2    0    0 -0.36501090279E+02  0.26411822519E+02  0.25777084618E+03  0.29004061660E+03  0.12509131135E+03 0.  0.
        -24    2    1    2    0    0 -0.48990946668E+00 -0.44380873478E+02  0.27739764799E+03  0.29054268423E+03  0.74132950214E+02 0.  0.
        -13    1    3    3    0    0  0.50032102786E+01 -0.25060752051E+02 -0.22540670814E+03  0.22685073833E+03  0.00000000000E+00 0.  1.
         14    1    3    3    0    0  0.31987789467E+02  0.43029803010E+02 -0.14718258307E+04  0.14728021111E+04  0.00000000000E+00 0. -1.
         11    1    5    5    0    0 -0.25408075395E+01 -0.59460783773E+02  0.13760278760E+03  0.14992187187E+03  0.00000000000E+00 0. -1.
        -12    1    5    5    0    0  0.20508980728E+01  0.15079910295E+02  0.13979486038E+03  0.14062081235E+03  0.00000000000E+00 0.  1.
          5    1    4    4  501    0 -0.81158509610E+02  0.24443426378E+02  0.19685527430E+03  0.21436803912E+03  0.41800000000E+01 0.  1.
         -5    1    4    4    0  501  0.44657419332E+02  0.19683961410E+01  0.60915571875E+02  0.75672577474E+02  0.41800000000E+01 0.  1.
</event>
<event>
11    1  0.8551154E-009  0.2923251E+03  0.7561462E-02  0.1003493E+00
         22   -1    0    0    0    0  0.00000000000E+00  0.00000000000E+00  0.14429891689E+04  0.14429891689E+04  0.00000000000E+00 0. -1.
         22   -1    0    0    0    0 -0.00000000000E+00 -0.00000000000E+00 -0.91154588657E+03  0.91154588657E+03  0.00000000000E+00 0. -1.
         24    2    1    2    0    0  0.10105866775E+03  0.12619387709E+03 -0.81971561534E+03  0.83924637553E+03  0.79139369880E+02 0.  0.
         25    2    1    2    0    0 -0.23817865837E+03 -0.30733354520E+03  0.59597725509E+03  0.72250916829E+03  0.12509048071E+03 0.  0.
        -24    2    1    2    0    0  0.13711999062E+03  0.18113966811E+03  0.75518164254E+03  0.79277951162E+03  0.81157683750E+02 0.  0.
        -11    1    3    3    0    0  0.50758493502E+01 -0.13883945094E+01 -0.13230855189E+01  0.54260889442E+01  0.00000000000E+00 0.  1.
         12    1    3    3    0    0  0.95982818400E+02  0.12758227160E+03 -0.81839252982E+03  0.83382028658E+03  0.00000000000E+00 0. -1.
         13    1    5    5    0    0  0.17506219419E+02  0.78281517085E+02  0.19623576510E+03  0.21199749796E+03  0.00000000000E+00 0. -1.
        -14    1    5    5    0    0  0.11961377120E+03  0.10285815103E+03  0.55894587744E+03  0.58078201367E+03  0.00000000000E+00 0.  1.
          5    1    4    4  501    0 -0.22626186526E+03 -0.31624675958E+03  0.54694491283E+03  0.67109809617E+03  0.41800000000E+01 0. -1.
         -5    1    4    4    0  501 -0.11916793108E+02  0.89132143733E+01  0.49032342267E+02  0.51411072121E+02  0.41800000000E+01 0. -1.
</event>
<event>
11    1  0.8551154E-009  0.1486358E+03  0.7561462E-02  0.1098281E+00
         22   -1    0    0    0    0  0.00000000000E+00  0.00000000000E+00  0.81456498161E+03  0.81456498161E+03  0.00000000000E+00 0. -1.
         22   -1    0    0    0    0 -0.00000000000E+00 -0.00000000000E+00 -0.81727397913E+02  0.81727397913E+02  0.00000000000E+00 0.  1.
        -24    2    1    2    0    0  0.19378234787E+02 -0.79288209738E+02 -0.18143714710E+02  0.10516647731E+03  0.63786028086E+02 0.  0.
         25    2    1    2    0    0 -0.35352387997E+00  0.72019262258E+02  0.30853346622E+03  0.34062865714E+03  0.12509229862E+03 0.  0.
         24    2    1    2    0    0 -0.19024710907E+02  0.72689474801E+01  0.44244783219E+03  0.45049724508E+03  0.82297669401E+02 0.  0.
        -11    1    5    5    0    0  0.71871657610E+01  0.26057941622E+02  0.50977809413E+02  0.57701028810E+02  0.00000000000E+00 0.  1.
         12    1    5    5    0    0 -0.26211876668E+02 -0.18788994142E+02  0.39147002278E+03  0.39279621627E+03  0.00000000000E+00 0. -1.
         11    1    3    3    0    0  0.32284191817E+02 -0.23735816437E+02  0.10388850078E+02  0.41395485613E+02  0.00000000000E+00 0. -1.
        -12    1    3    3    0    0 -0.12905957030E+02 -0.55552393302E+02 -0.28532564788E+02  0.63770991695E+02  0.00000000000E+00 0.  1.
          5    1    4    4  501    0  0.60970626340E+02  0.29926692802E+02  0.12068907561E+03  0.13855089170E+03  0.41800000000E+01 0. -1.
         -5    1    4    4    0  501 -0.61324150220E+02  0.42092569456E+02  0.18784439061E+03  0.20207776544E+03  0.41800000000E+01 0. -1.
</event>
<event>
11    1  0.8551154E-009  0.2664923E+03  0.7561462E-02  0.1015463E+00
         22   -1    0    0    0    0  0.00000000000E+00  0.00000000000E+00  0.22774374070E+04  0.22774374070E+04  0.00000000000E+00 0.  1.
         22   -1    0    0    0    0 -0.00000000000E+00 -0.00000000000E+00 -0.33283473505E+03  0.33283473505E+03  0.00000000000E+00 0.  1.
         24    2    1    2    0    0  0.15598543367E+03  0.29323147756E+02 -0.69720182888E+02  0.18718085092E+03  0.70600740347E+02 0.  0.
         25    2    1    2    0    0 -0.56500271054E+02  0.18751131093E+03 -0.12849423168E+03  0.26554014243E+03  0.12509207533E+03 0.  0.
        -24    2    1    2    0    0 -0.99485162616E+02 -0.21683445869E+03  0.21428170866E+04  0.21575511487E+04  0.80295784231E+02 0.  0.
        -11    1    3    3    0    0  0.13246940126E+03 -0.24607921425E+01 -0.64308800258E+02  0.14727463990E+03  0.00000000000E+00 0.  1.
         12    1    3    3    0    0  0.23516032414E+02  0.31783939899E+02 -0.54113826302E+01  0.39906211020E+02  0.00000000000E+00 0. -1.
         13    1    5    5    0    0 -0.27332054903E+02 -0.10457599920E+03  0.12700184942E+04  0.12746098056E+04  0.00000000000E+00 0. -1.
        -14    1    5    5    0    0 -0.72153107712E+02 -0.11225845948E+03  0.87279859233E+03  0.88294134316E+03  0.00000000000E+00 0.  1.
          5    1    4    4  501    0  0.15730767795E+02  0.11197300856E+03 -0.11280003463E+03  0.15977087318E+03  0.41800000000E+01 0. -1.
         -5    1    4    4    0  501 -0.72231038849E+02  0.75538302367E+02 -0.15694197050E+02  0.10576926925E+03  0.41800000000E+01 0. -1.
</event>
<event>
11    1  0.8551154E-009  0.3949860E+03  0.7561462E-02  0.9664669E-01
         22   -1    0    0    0    0  0.00000000000E+00  0.00000000000E+00  0.11449757668E+04  0.11449757668E+04  0.00000000000E+00 0.  1.
         22   -1    0    0    0    0 -0.00000000000E+00 -0.00000000000E+00 -0.21446651229E+03  0.21446651229E+03  0.00000000000E+00 0.  1.
        -24    2    1    2    0    0  0.10104353636E+03 -0.40660226726E+02 -0.19136929839E+01  0.13571332023E+03  0.80940674508E+02 0.  0.
         25    2    1    2    0    0  0.23219321652E+03 -0.21371345722E+03  0.26134522386E+03  0.42841058940E+03  0.12508867046E+03 0.  0.
         24    2    1    2    0    0 -0.33323675289E+03  0.25437368395E+03  0.67107772362E+03  0.79531836945E+03  0.80207811861E+02 0.  0.
        -13    1    5    5    0    0 -0.30500058336E+03  0.20053972221E+03  0.59340227914E+03  0.69668342948E+03  0.00000000000E+00 0.  1.
         14    1    5    5    0    0 -0.28236169524E+02  0.53833961739E+02  0.77675444487E+02  0.98634939966E+02  0.00000000000E+00 0. -1.
         13    1    3    3    0    0  0.32521938659E+02  0.49969782060E+01 -0.34026455634E+02  0.47333349430E+02  0.00000000000E+00 0. -1.
        -14    1    3    3    0    0  0.68521597706E+02 -0.45657204932E+02  0.32112762650E+02  0.88379970804E+02  0.00000000000E+00 0.  1.
          5    1    4    4  501    0  0.76449624901E+01 -0.61792626994E+02  0.83111834048E+02  0.10393182170E+03  0.41800000000E+01 0.  1.
         -5    1    4    4    0  501  0.22454825403E+03 -0.15192083023E+03  0.17823338981E+03  0.32447876770E+03  0.41800000000E+01 0.  1.
</event>
<event>
11    1  0.8551154E-009  0.8934942E+03  0.7561462E-02  0.8787487E-01
         22   -1    0    0    0    0  0.00000000000E+00  0.00000000000E+00  0.93370509298E+03  0.93370509298E+03  0.00000000000E+00 0.  1.
         22   -1    0    0    0    0 -0.00000000000E+00 -0.00000000000E+00 -0.22095650999E+04  0.22095650999E+04  0.00000000000E+00 0.  1.
         24    2    1    2    0    0  0.80326624438E+03  0.25225686107E+03 -0.77091561936E+03  0.11447214349E+04  0.84888680771E+02 0.  0.
         25    2    1    2    0    0 -0.10861300457E+04  0.43959700500E+03 -0.24892665307E+03  0.12043818111E+04  0.12508823022E+03 0.  0.
        -24    2    1    2    0    0  0.28286380128E+03 -0.69185386607E+03 -0.25601773454E+03  0.79416694692E+03  0.80513086570E+02 0.  0.
        -13    1    3    3    0    0  0.26329777462E+03  0.73867262479E+02 -0.19904434356E+03  0.33823178634E+03  0.00000000000E+00 0.  1.
         14    1    3    3    0    0  0.53996846976E+03  0.17838959860E+03 -0.57187127579E+03  0.80648964860E+03  0.00000000000E+00 0. -1.
         13    1    5    5    0    0  0.66413535254E+02 -0.22922800714E+03 -0.52539353695E+02  0.24436984391E+03  0.00000000000E+00 0. -1.
        -14    1    5    5    0    0  0.21645026603E+03 -0.46262585893E+03 -0.20347838085E+03  0.54979710302E+03  0.00000000000E+00 0.  1.
          5    1    4    4  501    0 -0.18907613691E+03  0.11470597942E+03 -0.13060957765E+02  0.22157461109E+03  0.41800000000E+01 0. -1.
         -5    1    4    4    0  501 -0.89705390875E+03  0.32489102558E+03 -0.23586569531E+03  0.98280719998E+03  0.41800000000E+01 0. -1.
</event>
<event>
11    1  0.8551154E-009  0.1699570E+03  0.7561462E-02  0.1078069E+00
         22   -1    0    0    0    0  0.00000000000E+00  0.00000000000E+00  0.12567797636E+04  0.12567797636E+04  0.00000000000E+00 0.  1.
         22   -1    0    0    0    0 -0.00000000000E+00 -0.00000000000E+00 -0.20059130776E+03  0.20059130776E+03  0.00000000000E+00 0. -1.
         24    2    1    2    0    0  0.25010024906E+02 -0.38057783244E+01 -0.16314642720E+03  0.18498874802E+03  0.83451152724E+02 0.  0.
         25    2    1    2    0    0 -0.12370001377E+02 -0.11180234819E+03  0.31643669674E+03  0.35837677391E+03  0.12509575148E+03 0.  0.
        -24    2    1    2    0    0 -0.12640023529E+02  0.11560812651E+03  0.90289818629E+03  0.91400554943E+03  0.81584315102E+02 0.  0.
        -11    1    3    3    0    0 -0.31004597642E+02 -0.56169027832E+00 -0.61985472777E+02  0.69309446732E+02  0.00000000000E+00 0.  1.
         12    1    3    3    0    0  0.56014622548E+02 -0.32440880461E+01 -0.10116095442E+03  0.11567930128E+03  0.00000000000E+00 0. -1.
         11    1    5    5    0    0 -0.30607858913E+02  0.14022562437E+02  0.13157226964E+03  0.13581139651E+03  0.00000000000E+00 0. -1.
        -12    1    5    5    0    0  0.17967835384E+02  0.10158556407E+03  0.77132591666E+03  0.77819415292E+03  0.00000000000E+00 0.  1.
          5    1    4    4  501    0 -0.23351391122E+02 -0.12806216025E+01  0.18379899770E+03  0.18532801033E+03  0.41800000000E+01 0.  1.
         -5    1    4    4    0  501  0.10981389745E+02 -0.11052172659E+03  0.13263769904E+03  0.17304876357E+03  0.41800000000E+01 0.  1.
</event>
<event>
11    1  0.8551154E-009  0.1893005E+03  0.7561462E-02  0.1062359E+00
         22   -1    0    0    0    0  0.00000000000E+00  0.00000000000E+00  0.10780108658E+04  0.10780108658E+04  0.00000000000E+00 0. -1.
         22   -1    0    0    0    0 -0.00000000000E+00 -0.00000000000E+00 -0.73791042123E+02  0.73791042123E+02  0.00000000000E+00 0. -1.
         24    2    1    2    0    0 -0.12512284437E+03 -0.88118303432E+02  0.11036047471E+03  0.20525893842E+03  0.80816061767E+02 0.  0.
         25    2    1    2    0    0  0.88068723026E+02  0.81452797498E+02  0.30692855577E+03  0.35248151302E+03  0.12508964977E+03 0.  0.
        -24    2    1    2    0    0  0.37054121341E+02  0.66655059345E+01  0.58693079324E+03  0.59406145652E+03  0.83688835563E+02 0.  0.
        -13    1    3    3    0    0 -0.17580942371E+02 -0.57904745369E+02  0.29259453085E+02  0.67217294395E+02  0.00000000000E+00 0.  1.
         14    1    3    3    0    0 -0.10754190200E+03 -0.30213558063E+02  0.81101021623E+02  0.13804164402E+03  0.00000000000E+00 0. -1.
         13    1    5    5    0    0  0.10143075129E+02  0.34763888582E+02  0.11588112487E+03  0.12140776344E+03  0.00000000000E+00 0. -1.
        -14    1    5    5    0    0  0.26911046212E+02 -0.28098382647E+02  0.47104966837E+03  0.47265369308E+03  0.00000000000E+00 0.  1.
          5    1    4    4  501    0  0.10761359909E+03  0.21122255000E+02  0.19646781800E+03  0.22504202335E+03  0.41800000000E+01 0.  1.
         -5    1    4    4    0  501 -0.19544876065E+02  0.60330542498E+02  0.11046073777E+03  0.12743948967E+03  0.41800000000E+01 0.  1.
</event>
<event>
11    1  0.8551154E-009  0.1525412E+03  0.7561462E-02  0.1094310E+00
         22   -1    0    0    0    0  0.00000000000E+00  0.00000000000E+00  0.11164388322E+04  0.11164388322E+04  0.00000000000E+00 0. -1.
         22   -1    0    0    0    0 -0.00000000000E+00 -0.00000000000E+00 -0.11668432138E+03  0.11668432138E+03  0.00000000000E+00 0.  1.
        -24    2    1    2    0    0  0.40776286250E+02 -0.29058183130E+02 -0.75191734616E+02  0.12032133349E+03  0.79475422681E+02 0.  0.
         25    2    1    2    0    0 -0.38179241970E+02 -0.64918840294E+02  0.35596349974E+03  0.38474464699E+03  0.12508525052E+03 0.  0.
         24    2    1    2    0    0 -0.25970442809E+01  0.93977023423E+02  0.71898274567E+03  0.72805717309E+03  0.65518189388E+02 0.  0.
        -13    1    5    5    0    0 -0.23638436421E+02  0.90581994103E+01  0.11366240911E+03  0.11644728377E+03  0.00000000000E+00 0.  1.
         14    1    5    5    0    0  0.21041392140E+02  0.84918824013E+02  0.60532033656E+03  0.61160988932E+03  0.00000000000E+00 0. -1.
         11    1    3    3    0    0  0.17635938708E+02 -0.72121037205E+01  0.15274970132E+02  0.24420595544E+02  0.00000000000E+00 0. -1.
        -12    1    3    3    0    0  0.23140347542E+02 -0.21846079409E+02 -0.90466704748E+02  0.95900737942E+02  0.00000000000E+00 0.  1.
          5    1    4    4  501    0 -0.59689313778E+02 -0.72480223908E+01  0.70786161829E+02  0.92970431398E+02  0.41800000000E+01 0.  1.
         -5    1    4    4    0  501  0.21510071808E+02 -0.57670817903E+02  0.28517733791E+03  0.29177421559E+03  0.41800000000E+01 0.  1.
</event>
<event>
11    1  0.8551154E-009  0.1604605E+03  0.7561462E-02  0.1086645E+00
         22   -1    0    0    0    0  0.00000000000E+00  0.00000000000E+00  0.57009716456E+03  0.57009716456E+03  0.00000000000E+00 0.  1.
         22   -1    0    0    0    0 -0.00000000000E+00 -0.00000000000E+00 -0.21930837426E+04  0.21930837426E+04  0.00000000000E+00 0. -1.
         24    2    1    2    0    0 -0.97461440296E+01 -0.23669142652E+02 -0.20104337710E+04  0.20123450274E+04  0.83865046935E+02 0.  0.
         25    2    1    2    0    0  0.10540533041E+03  0.52126920323E+02 -0.13149431923E+03  0.21625414083E+03  0.12509035908E+03 0.  0.
        -24    2    1    2    0    0 -0.95659186379E+02 -0.28457777671E+02  0.51894151227E+03  0.53458173885E+03  0.80726806672E+02 0.  0.
        -11    1    3    3    0    0 -0.14611523621E+02 -0.26193007987E+02 -0.23543002687E+03  0.23733282083E+03  0.00000000000E+00 0.  1.
         12    1    3    3    0    0  0.48653795910E+01  0.25238653356E+01 -0.17750037442E+04  0.17750122066E+04  0.00000000000E+00 0. -1.
         11    1    5    5    0    0  0.24567005849E+01 -0.16885183426E+02  0.19908559369E+03  0.19981546089E+03  0.00000000000E+00 0. -1.
        -12    1    5    5    0    0 -0.98115886963E+02 -0.11572594245E+02  0.31985591858E+03  0.33476627797E+03  0.00000000000E+00 0.  1.
          5    1    4    4  501    0 -0.26903465698E+02  0.14544851681E+00 -0.93549553043E+01  0.28788977241E+02  0.41800000000E+01 0.  1.
         -5    1    4    4    0  501  0.13230879611E+03  0.51981471806E+02 -0.12213936393E+03  0.18746516359E+03  0.41800000000E+01 0.  1.
</event>
<event>
11    1  0.8551154E-009  0.1696010E+03  0.7561462E-02  0.1078379E+00
         22   -1    0    0    0    0  0.00000000000E+00  0.00000000000E+00  0.29522581554E+04  0.29522581554E+04  0.00000000000E+00 0. -1.
         22   -1    0    0    0    0 -0.00000000000E+00 -0.00000000000E+00 -0.78296182647E+02  0.78296182647E+02  0.00000000000E+00 0. -1.
        -24    2    1    2    0    0  0.46734364682E+02  0.10438590906E+03 -0.34919699705E+01  0.13989767049E+03  0.80490033561E+02 0.  0.
         25    2    1    2    0    0 -0.58065511502E+01 -0.12669098258E+03  0.16669384901E+04  0.16764296331E+04  0.12509222110E+03 0.  0.
         24    2    1    2    0    0 -0.40927813532E+02  0.22305073515E+02  0.12105154526E+04  0.12142270344E+04  0.82625831215E+02 0.  0.
        -13    1    5    5    0    0 -0.41539560195E+02  0.22925484271E+02  0.30143372237E+03  0.30514488669E+03  0.00000000000E+00 0.  1.
         14    1    5    5    0    0  0.61174666294E+00 -0.62041075595E+00  0.90908173019E+03  0.90908214773E+03  0.00000000000E+00 0. -1.
         11    1    3    3    0    0  0.65404446694E+02  0.10062785603E+03 -0.81496631043E+01  0.12029182876E+03  0.00000000000E+00 0. -1.
        -12    1    3    3    0    0 -0.18670082012E+02  0.37580530288E+01  0.46576931337E+01  0.19605841737E+02  0.00000000000E+00 0.  1.
          5    1    4    4  501    0  0.45924883107E+02 -0.95224093341E+02  0.74243029366E+03  0.74993128765E+03  0.41800000000E+01 0.  1.
         -5    1    4    4    0  501 -0.51731434258E+02 -0.31466889236E+02  0.92450819646E+03  0.92649834546E+03  0.41800000000E+01 0.  1.
</event>
<event>
11    1  0.8551154E-009  0.1348961E+03  0.7561462E-02  0.1113395E+00
         22   -1    0    0    0    0  0.00000000000E+00  0.00000000000E+00  0.41032265585E+03  0.41032265585E+03  0.00000000000E+00 0.  1.
         22   -1    0    0    0    0 -0.00000000000E+00 -0.00000000000E+00 -0.25519297697E+03  0.25519297697E+03  0.00000000000E+00 0. -1.
         24    2    1    2    0    0 -0.16590888222E+02 -0.32474243433E+02 -0.18806160287E+03  0.20827538844E+03  0.81741280271E+02 0.  0.
         25    2    1    2    0    0  0.63025728473E+02  0.41824018505E+02  0.58383651184E+02  0.15740850756E+03  0.12508915442E+03 0.  0.
        -24    2    1    2    0    0 -0.46434840250E+02 -0.93497750727E+01  0.28480763056E+03  0.29983173682E+03  0.80870707255E+02 0.  0.
        -11    1    3    3    0    0 -0.31153513170E+02  0.17016821055E+02 -0.53925278968E+02  0.64560431330E+02  0.00000000000E+00 0.  1.
         12    1    3    3    0    0  0.14562624948E+02 -0.49491064487E+02 -0.13413632390E+03  0.14371495711E+03  0.00000000000E+00 0. -1.
         13    1    5    5    0    0  0.20645208317E+02  0.93189000287E+01  0.49460559626E+02  0.54400491567E+02  0.00000000000E+00 0. -1.
        -14    1    5    5    0    0 -0.67080048567E+02 -0.18668675101E+02  0.23534707094E+03  0.24543124525E+03  0.00000000000E+00 0.  1.
          5    1    4    4  501    0  0.49956915878E+02  0.22396600291E+02 -0.32269310752E+02  0.63687376811E+02  0.41800000000E+01 0.  1.
         -5    1    4    4    0  501  0.13068812594E+02  0.19427418214E+02  0.90652961936E+02  0.93721130749E+02  0.41800000000E+01 0.  1.
</event>
<event>
11    1  0.1350994E-008  0.2129399E+03  0.7561462E-02  0.1045732E+00
         22   -1    0    0    0    0  0.00000000000E+00  0.00000000000E+00  0.13772822081E+04  0.13772822081E+04  0.00000000000E+00 0. -1.
         22   -1    0    0    0    0 -0.00000000000E+00 -0.00000000000E+00 -0.13066568784E+04  0.13066568784E+04  0.00000000000E+00 0. -1.
        -24    2    1    2    0    0 -0.36978904785E+02  0.16287879417E+03 -0.11206027963E+04  0.11357965448E+04  0.79913849058E+02 0.  0.
         25    2    1    2    0    0 -0.34599148499E+02 -0.28385434684E+03 -0.32501157807E+02  0.31380425087E+03  0.12508553597E+03 0.  0.
         24    2    1    2    0    0  0.71578053285E+02  0.12097555267E+03  0.12237292838E+04  0.12343382907E+04  0.79493105433E+02 0.  0.
        -11    1    5    5    0    0  0.15239810946E+02 -0.10146612656E+02  0.17166607653E+03  0.17263964613E+03  0.00000000000E+00 0.  1.
         12    1    5    5    0    0  0.56338242339E+02  0.13112216533E+03  0.10520632073E+04  0.10616986446E+04  0.00000000000E+00 0. -1.
         11    1    3    3    0    0 -0.31388093753E+02  0.14696264716E+03 -0.10941548507E+04  0.11044265794E+04  0.00000000000E+00 0. -1.
        -12    1    3    3    0    0 -0.55908110321E+01  0.15916147012E+02 -0.26447945587E+02  0.31369965404E+02  0.00000000000E+00 0.  1.
          5    1    4    4  501    0  0.22829342747E+02 -0.32655314202E+02 -0.39134856216E+02  0.56004980197E+02  0.41800000000E+01 0. -1.
         -5    1    4    4    0  501 -0.57428491247E+02 -0.25119903264E+03  0.66336984084E+01  0.25779927067E+03  0.41800000000E+01 0. -1.
</event>
<event>
11    1  0.8551154E-009  0.1868251E+03  0.7561462E-02  0.1064252E+00
         22   -1    0    0    0    0  0.00000000000E+00  0.00000000000E+00  0.10572740176E+03  0.10572740176E+03  0.00000000000E+00 0. -1.
         22   -1    0    0    0    0 -0.00000000000E+00 -0.00000000000E+00 -0.20833456132E+04  0.20833456132E+04  0.00000000000E+00 0. -1.
        -24    2    1    2    0    0 -0.68816590206E+02  0.95134932921E+02 -0.14461236539E+04  0.14530634227E+04  0.79582092921E+02 0.  0.
         25    2    1    2    0    0  0.19854741408E+03 -0.91954059869E+02 -0.52451241036E+03  0.58192669059E+03  0.12509508319E+03 0.  0.
         24    2    1    2    0    0 -0.12973082387E+03 -0.31808730515E+01 -0.69821472325E+01  0.15408290171E+03  0.82780345517E+02 0.  0.
        -13    1    5    5    0    0  0.12389090146E+01 -0.21555406696E+02  0.75720391358E+00  0.21604254469E+02  0.00000000000E+00 0.  1.
         14    1    5    5    0    0 -0.13096973289E+03  0.18374533645E+02 -0.77393511460E+01  0.13247864724E+03  0.00000000000E+00 0. -1.
         11    1    3    3    0    0 -0.41284217096E+02  0.96717663307E+02 -0.13075679123E+04  0.13117898225E+04  0.00000000000E+00 0. -1.
        -12    1    3    3    0    0 -0.27532373110E+02 -0.15827303865E+01 -0.13855574155E+03  0.14127360023E+03  0.00000000000E+00 0.  1.
          5    1    4    4  501    0  0.49648517686E+02 -0.89015500848E+02 -0.23958525688E+03  0.26039835332E+03  0.41800000000E+01 0.  1.
         -5    1    4    4    0  501  0.14889889639E+03 -0.29385590212E+01 -0.28492715348E+03  0.32152833727E+03  0.41800000000E+01 0.  1.
</event>
<event>
11    1  0.8551154E-009  0.1732560E+03  0.7561462E-02  0.1075232E+00
         22   -1    0    0    0    0  0.00000000000E+00  0.00000000000E+00  0.38826206937E+03  0.38826206937E+03  0.00000000000E+00 0. -1.
         22   -1    0    0    0    0 -0.00000000000E+00 -0.00000000000E+00 -0.24457776093E+03  0.24457776093E+03  0.00000000000E+00 0. -1.
        -24    2    1    2    0    0  0.10037198809E+03 -0.85375388019E+02 -0.15679169082E+03  0.21996794497E+03  0.80241944333E+02 0.  0.
         25    2    1    2    0    0 -0.49323970734E+02  0.58677238844E+02  0.71291614236E+02  0.16311433752E+03  0.12509164799E+03 0.  0.
         24    2    1    2    0    0 -0.51048017353E+02  0.26698149175E+02  0.22918438503E+03  0.24975754782E+03  0.80837238373E+02 0.  0.
        -13    1    5    5    0    0 -0.53128205025E+02 -0.25118501384E+01  0.70065492892E+02  0.87966407535E+02  0.00000000000E+00 0.  1.
         14    1    5    5    0    0  0.20801876718E+01  0.29209999313E+02  0.15911889213E+03  0.16179114028E+03  0.00000000000E+00 0. -1.
         13    1    3    3    0    0  0.63286970843E+02 -0.74234974808E+02 -0.15246909839E+03  0.18100524337E+03  0.00000000000E+00 0. -1.
        -14    1    3    3    0    0  0.37085017245E+02 -0.11140413211E+02 -0.43225924332E+01  0.38962701599E+02  0.00000000000E+00 0.  1.
          5    1    4    4  501    0 -0.43397747424E+02  0.76596792194E+02 -0.11443979657E+01  0.88143151196E+02  0.41800000000E+01 0.  1.
         -5    1    4    4    0  501 -0.59262233092E+01 -0.17919553350E+02  0.72436012202E+02  0.74971186323E+02  0.41800000000E+01 0.  1.
</event>
<event>
11    1  0.8551154E-009  0.2125963E+03  0.7561462E-02  0.1045957E+00
         22   -1    0    0    0    0  0.00000000000E+00  0.00000000000E+00  0.27159198154E+03  0.27159198154E+03  0.00000000000E+00 0. -1.
         22   -1    0    0    0    0 -0.00000000000E+00 -0.00000000000E+00 -0.87619542124E+03  0.87619542124E+03  0.00000000000E+00 0.  1.
        -24    2    1    2    0    0 -0.18625344693E+01 -0.12321011123E+03 -0.38127726922E+03  0.40869077101E+03  0.80446191571E+02 0.  0.
         25    2    1    2    0    0  0.15113040864E+03  0.19799737130E+03 -0.39738436770E+03  0.48539235618E+03  0.12509214322E+03 0.  0.
         24    2    1    2    0    0 -0.14926787417E+03 -0.74787260066E+02  0.17405819722E+03  0.25370427558E+03  0.78711948925E+02 0.  0.
        -13    1    5    5    0    0 -0.11924746339E+02  0.33916515400E+01  0.53546168150E+02  0.54962669140E+02  0.00000000000E+00 0.  1.
         14    1    5    5    0    0 -0.13734312783E+03 -0.78178911606E+02  0.12051202907E+03  0.19874160644E+03  0.00000000000E+00 0. -1.
         13    1    3    3    0    0  0.35625049153E+02 -0.30057668384E+02 -0.12915610766E+03  0.13730953245E+03  0.00000000000E+00 0. -1.
        -14    1    3    3    0    0 -0.37487583623E+02 -0.93152442851E+02 -0.25212116157E+03  0.27138123857E+03  0.00000000000E+00 0.  1.
          5    1    4    4  501    0  0.12896195719E+02  0.19645197028E+02  0.46731711124E+01  0.24321935748E+02  0.41800000000E+01 0.  1.
         -5    1    4    4    0  501  0.13823421292E+03  0.17835217427E+03 -0.40205753881E+03  0.46107042044E+03  0.41800000000E+01 0.  1.
</event>
<event>
11    1  0.8551154E-009  0.1354779E+03  0.7561462E-02  0.1112716E+00
         22   -1    0    0    0    0  0.00000000000E+00  0.00000000000E+00  0.11562794851E+04  0.11562794851E+04  0.00000000000E+00 0.  1.
         22   -1    0    0    0    0 -0.00000000000E+00 -0.00000000000E+00 -0.72706367153E+03  0.72706367153E+03  0.00000000000E+00 0. -1.
         24    2    1    2    0    0  0.39384935326E+02 -0.33890079457E+02 -0.67738546936E+03  0.68406334145E+03  0.79949173874E+02 0.  0.
         25    2    1    2    0    0 -0.49326877604E+02  0.25301969745E+02  0.59731889600E+02  0.14929631355E+03  0.12509260600E+03 0.  0.
        -24    2    1    2    0    0  0.99419422780E+01  0.85881097118E+01  0.10468693933E+04  0.10499835016E+04  0.79732234170E+02 0.  0.
        -13    1    3    3    0    0  0.42867874863E+02 -0.21180563769E+02 -0.17245359871E+03  0.17895953365E+03  0.00000000000E+00 0.  1.
         14    1    3    3    0    0 -0.34829395360E+01 -0.12709515689E+02 -0.50493187066E+03  0.50510380781E+03  0.00000000000E+00 0. -1.
         13    1    5    5    0    0  0.16839673892E+02 -0.13246724721E+02  0.79306512976E+02  0.82149700748E+02  0.00000000000E+00 0. -1.
        -14    1    5    5    0    0 -0.68977316137E+01  0.21834834433E+02  0.96756288035E+03  0.96783380088E+03  0.00000000000E+00 0.  1.
          5    1    4    4  501    0 -0.68372339095E+02  0.20372574399E+02 -0.14040512163E+02  0.72831496777E+02  0.41800000000E+01 0. -1.
         -5    1    4    4    0  501  0.19045461491E+02  0.49293953465E+01  0.73772401763E+02  0.76464816770E+02  0.41800000000E+01 0. -1.
</event>
<event>
11    1  0.8551154E-009  0.1415282E+03  0.7561462E-02  0.1105864E+00
         22   -1    0    0    0    0  0.00000000000E+00  0.00000000000E+00  0.72014754732E+03  0.72014754732E+03  0.00000000000E+00 0. -1.
         22   -1    0    0    0    0 -0.00000000000E+00 -0.00000000000E+00 -0.41109096110E+03  0.41109096110E+03  0.00000000000E+00 0.  1.
         24    2    1    2    0    0 -0.55586459303E+02  0.37586015365E+02 -0.37122121500E+03  0.38937591288E+03  0.96466823612E+02 0.  0.
         25    2    1    2    0    0  0.78649301049E+02  0.47326973824E+02  0.23674305105E+03  0.28305578064E+03  0.12509095781E+03 0.  0.
        -24    2    1    2    0    0 -0.23062841746E+02 -0.84912989189E+02  0.44353475017E+03  0.45880681490E+03  0.77707839922E+02 0.  0.
        -11    1    3    3    0    0 -0.19136203593E+02  0.62726899285E+02 -0.14911984676E+03  0.16290361224E+03  0.00000000000E+00 0.  1.
         12    1    3    3    0    0 -0.36450255711E+02 -0.25140883921E+02 -0.22210136824E+03  0.22647230065E+03  0.00000000000E+00 0. -1.
         11    1    5    5    0    0 -0.11528233444E+02 -0.97029789318E+02  0.33391745559E+03  0.34792031750E+03  0.00000000000E+00 0. -1.
        -12    1    5    5    0    0 -0.11534608301E+02  0.12116800129E+02  0.10961729459E+03  0.11088649740E+03  0.00000000000E+00 0.  1.
          5    1    4    4  501    0  0.15719039028E+02 -0.39296132895E+02  0.36929284001E+02  0.56325115759E+02  0.41800000000E+01 0.  1.
         -5    1    4    4    0  501  0.62930262021E+02  0.86623106719E+02  0.19981376704E+03  0.22673066488E+03  0.41800000000E+01 0.  1.
</event>
<event>
11    1  0.8551154E-009  0.1953424E+03  0.7561462E-02  0.1057867E+00
         22   -1    0    0    0    0  0.00000000000E+00  0.00000000000E+00  0.51147424148E+03  0.51147424148E+03  0.00000000000E+00 0. -1.
         22   -1    0    0    0    0 -0.00000000000E+00 -0.00000000000E+00 -0.26691776283E+04  0.26691776283E+04  0.00000000000E+00 0. -1.
         24    2    1    2    0    0  0.64164963582E+02  0.13187350621E+03 -0.19611351882E+04  0.19681900851E+04  0.78823984174E+02 0.  0.
         25    2    1    2    0    0 -0.12785741762E+03 -0.11976582716E+03 -0.68263449415E+03  0.71577118786E+03  0.12508864127E+03 0.  0.
        -24    2    1    2    0    0  0.63692454041E+02 -0.12107679048E+02  0.48606629555E+03  0.49669059680E+03  0.78979621935E+02 0.  0.
        -11    1    3    3    0    0  0.23361946005E+01 -0.10774491935E+02 -0.12894901825E+03  0.12941946063E+03  0.00000000000E+00 0.  1.
         12    1    3    3    0    0  0.61828768982E+02  0.14264799814E+03 -0.18321861700E+04  0.18387706245E+04  0.00000000000E+00 0. -1.
         13    1    5    5    0    0 -0.51427203802E+01 -0.10475733754E+01  0.26146294864E+03  0.26151561807E+03  0.00000000000E+00 0. -1.
        -14    1    5    5    0    0  0.68835174421E+02 -0.11060105673E+02  0.22460334691E+03  0.23517497872E+03  0.00000000000E+00 0.  1.
          5    1    4    4  501    0 -0.59006142218E+02 -0.12491541162E+03 -0.35590693824E+03  0.38180205077E+03  0.41800000000E+01 0.  1.
         -5    1    4    4    0  501 -0.68851275405E+02  0.51495844544E+01 -0.32672755590E+03  0.33396913709E+03  0.41800000000E+01 0.  1.
</event>
<event>
11    1  0.8551154E-009  0.1596317E+03  0.7561462E-02  0.1087424E+00
         22   -1    0    0    0    0  0.00000000000E+00  0.00000000000E+00  0.44641232182E+03  0.44641232182E+03  0.00000000000E+00 0.  1.
         22   -1    0    0    0    0 -0.00000000000E+00 -0.00000000000E+00 -0.20391004980E+03  0.20391004980E+03  0.00000000000E+00 0. -1.
        -24    2    1    2    0    0  0.56107111487E+02 -0.11622038536E+02 -0.48057807361E+00  0.98505556399E+02  0.80125114334E+02 0.  0.
         25    2    1    2    0    0 -0.12954208090E+03  0.72514329941E+02 -0.77047070607E+02  0.20886011489E+03  0.12508724049E+03 0.  0.
         24    2    1    2    0    0  0.73434969415E+02 -0.60892291405E+02  0.32002992070E+03  0.34295670032E+03  0.78099822445E+02 0.  0.
        -11    1    5    5    0    0  0.73063361287E+02 -0.21142758935E+02  0.14808406617E+03  0.16647570896E+03  0.00000000000E+00 0.  1.
         12    1    5    5    0    0  0.37160812801E+00 -0.39749532470E+02  0.17194585453E+03  0.17648099137E+03  0.00000000000E+00 0. -1.
         11    1    3    3    0    0  0.40460172255E+02 -0.38441378360E+02 -0.22777491596E+02  0.60279177437E+02  0.00000000000E+00 0. -1.
        -12    1    3    3    0    0  0.15646939232E+02  0.26819339824E+02  0.22296913522E+02  0.38226378962E+02  0.00000000000E+00 0.  1.
          5    1    4    4  501    0 -0.14549173017E+03  0.85582676787E+02 -0.53138220288E+02  0.17701237518E+03  0.41800000000E+01 0. -1.
         -5    1    4    4    0  501  0.15949649265E+02 -0.13068346846E+02 -0.23908850319E+02  0.31847739708E+02  0.41800000000E+01 0. -1.
</event>
<event>
11    1  0.8551154E-009  0.1397626E+03  0.7561462E-02  0.1107824E+00
         22   -1    0    0    0    0  0.00000000000E+00  0.00000000000E+00  0.23546045826E+03  0.23546045826E+03  0.00000000000E+00 0. -1.
         22   -1    0    0    0    0 -0.00000000000E+00 -0.00000000000E+00 -0.17936913049E+04  0.17936913049E+04  0.00000000000E+00 0. -1.
         24    2    1    2    0    0  0.21074205105E+02 -0.54217041038E+02 -0.14110710921E+04  0.14153904839E+04  0.93941392364E+02 0.  0.
         25    2    1    2    0    0 -0.69799643802E+02  0.75024456699E+02 -0.35219796072E+03  0.38754540905E+03  0.12508949262E+03 0.  0.
        -24    2    1    2    0    0  0.48725438696E+02 -0.20807415662E+02  0.20503820621E+03  0.22621587021E+03  0.79535130629E+02 0.  0.
        -11    1    3    3    0    0 -0.17311214455E+02 -0.16941622765E+02 -0.89002149758E+02  0.92239250806E+02  0.00000000000E+00 0.  1.
         12    1    3    3    0    0  0.38385419560E+02 -0.37275418273E+02 -0.13220689424E+04  0.13231512331E+04  0.00000000000E+00 0. -1.
         11    1    5    5    0    0 -0.20682160594E+02 -0.48319071079E+01  0.75015775133E+02  0.77964515082E+02  0.00000000000E+00 0. -1.
        -12    1    5    5    0    0  0.69407599290E+02 -0.15975508554E+02  0.13002243108E+03  0.14825135513E+03  0.00000000000E+00 0.  1.
          5    1    4    4  501    0  0.24992959076E+01 -0.19476563740E+02 -0.52697789516E+01  0.20756348073E+02  0.41800000000E+01 0.  1.
         -5    1    4    4    0  501 -0.72298939709E+02  0.94501020439E+02 -0.34692818177E+03  0.36678906098E+03  0.41800000000E+01 0.  1.
</event>
<event>
11    1  0.8551154E-009  0.2074791E+03  0.7561462E-02  0.1049357E+00
         22   -1    0    0    0    0  0.00000000000E+00  0.00000000000E+00  0.10707887791E+04  0.10707887791E+04  0.00000000000E+00 0. -1.
         22   -1    0    0    0    0 -0.00000000000E+00 -0.00000000000E+00 -0.89953252440E+03  0.89953252440E+03  0.00000000000E+00 0.  1.
        -24    2    1    2    0    0  0.30137366899E+02 -0.85302395735E+01 -0.82632929525E+03  0.83053533416E+03  0.77380948688E+02 0.  0.
         25    2    1    2    0    0  0.13572200768E+03  0.42056574585E+02  0.83528735961E+02  0.20690777049E+03  0.12507820323E+03 0.  0.
         24    2    1    2    0    0 -0.16585937458E+03 -0.33526335011E+02  0.91405681395E+03  0.93287819881E+03  0.78284911750E+02 0.  0.
        -13    1    5    5    0    0 -0.91237483255E+00  0.12757966385E+02  0.34554199102E+02  0.36845499178E+02  0.00000000000E+00 0.  1.
         14    1    5    5    0    0 -0.16494699975E+03 -0.46284301396E+02  0.87950261485E+03  0.89603269963E+03  0.00000000000E+00 0. -1.
         13    1    3    3    0    0 -0.25044810922E+02  0.64575740381E+01 -0.21975858029E+03  0.22127534076E+03  0.00000000000E+00 0. -1.
        -14    1    3    3    0    0  0.55182177822E+02 -0.14987813612E+02 -0.60657071496E+03  0.60925999339E+03  0.00000000000E+00 0.  1.
          5    1    4    4  501    0  0.73098231260E+02 -0.40090535182E+02  0.20952863776E+02  0.86064495147E+02  0.41800000000E+01 0. -1.
         -5    1    4    4    0  501  0.62623776420E+02  0.82147109767E+02  0.62575872184E+02  0.12084327534E+03  0.41800000000E+01 0. -1.
</event>
<event>
11    1  0.8551154E-009  0.1522293E+03  0.7561462E-02  0.1094622E+00
         22   -1    0    0    0    0  0.00000000000E+00  0.00000000000E+00  0.31494921979E+04  0.31494921979E+04  0.00000000000E+00 0.  1.
         22   -1    0    0    0    0 -0.00000000000E+00 -0.00000000000E+00 -0.35385421986E+02  0.35385421986E+02  0.00000000000E+00 0.  1.
        -24    2    1    2    0    0 -0.16450496724E+02  0.98538391049E+01  0.28728726664E+02  0.86495966745E+02  0.79300034930E+02 0.  0.
         25    2    1    2    0    0  0.33949405266E+02 -0.90702253036E+02  0.13704891928E+04  0.13795894075E+04  0.12508734903E+03 0.  0.
         24    2    1    2    0    0 -0.17498908543E+02  0.80848413931E+02  0.17148888565E+04  0.17187922457E+04  0.80995776772E+02 0.  0.
        -11    1    5    5    0    0 -0.26275260878E+02  0.81987746728E+02  0.16929197434E+04  0.16951075593E+04  0.00000000000E+00 0.  1.
         12    1    5    5    0    0  0.87763523350E+01 -0.11393327968E+01  0.21969113056E+02  0.23684686361E+02  0.00000000000E+00 0. -1.
         11    1    3    3    0    0 -0.13628969015E+02  0.33588074049E+02  0.44849550840E+02  0.57666192221E+02  0.00000000000E+00 0. -1.
        -12    1    3    3    0    0 -0.28215277085E+01 -0.23734234944E+02 -0.16120824176E+02  0.28829774524E+02  0.00000000000E+00 0.  1.
          5    1    4    4  501    0  0.67576460687E+02 -0.10199584844E+03  0.10760975055E+04  0.10830388012E+04  0.41800000000E+01 0. -1.
         -5    1    4    4    0  501 -0.33627055421E+02  0.11293595405E+02  0.29439168733E+03  0.29655060634E+03  0.41800000000E+01 0. -1.
</event>
<event>
11    1  0.8551154E-009  0.1654329E+03  0.7561462E-02  0.1082076E+00
         22   -1    0    0    0    0  0.00000000000E+00  0.00000000000E+00  0.30490505664E+03  0.30490505664E+03  0.00000000000E+00 0.  1.
         22   -1    0    0    0    0 -0.00000000000E+00 -0.00000000000E+00 -0.46332341239E+03  0.46332341239E+03  0.00000000000E+00 0.  1.
         24    2    1    2    0    0  0.67303617735E+02 -0.85334770541E+02 -0.34782668396E+03  0.37537150685E+03  0.90047576591E+02 0.  0.
         25    2    1    2    0    0 -0.90754578180E+02  0.62422111945E+02 -0.18557062360E+02  0.16770486399E+03  0.12509054050E+03 0.  0.
        -24    2    1    2    0    0  0.23450960445E+02  0.22912658596E+02  0.20796539058E+03  0.22515209819E+03  0.79805552257E+02 0.  0.
        -13    1    3    3    0    0  0.53160149279E+02 -0.14922811863E+02 -0.23672026910E+03  0.24307442808E+03  0.00000000000E+00 0.  1.
         14    1    3    3    0    0  0.14143468456E+02 -0.70411958678E+02 -0.11110641487E+03  0.13229707876E+03  0.00000000000E+00 0. -1.
         13    1    5    5    0    0  0.25750357249E+02  0.30803389243E+02  0.38952524261E+02  0.55939510488E+02  0.00000000000E+00 0. -1.
        -14    1    5    5    0    0 -0.22993968043E+01 -0.78907306476E+01  0.16901286632E+03  0.16921258771E+03  0.00000000000E+00 0.  1.
          5    1    4    4  501    0 -0.10735963067E+03  0.61935537840E+02 -0.48538423087E+02  0.13317489276E+03  0.41800000000E+01 0.  1.
         -5    1    4    4    0  501  0.16605052488E+02  0.48657410577E+00  0.29981360727E+02  0.34529971236E+02  0.41800000000E+01 0.  1.
</event>
<event>
11    1  0.8551154E-009  0.2134426E+03  0.7561462E-02  0.1045405E+00
         22   -1    0    0    0    0  0.00000000000E+00  0.00000000000E+00  0.56937912533E+03  0.56937912533E+03  0.00000000000E+00 0. -1.
         22   -1    0    0    0    0 -0.00000000000E+00 -0.00000000000E+00 -0.43923496493E+03  0.43923496493E+03  0.00000000000E+00 0. -1.
        -24    2    1    2    0    0 -0.15987498602E+03 -0.80807597011E+02 -0.32108094851E+03  0.37642785522E+03  0.80716019488E+02 0.  0.
         25    2    1    2    0    0  0.12317097629E+03  0.84457708357E+02  0.24545285203E+02  0.19634947480E+03  0.12508577589E+03 0.  0.
         24    2    1    2    0    0  0.36704009738E+02 -0.36501113458E+01  0.42667982370E+03  0.43583676023E+03  0.80854820357E+02 0.  0.
        -13    1    5    5    0    0  0.57645701975E+02 -0.18890691586E+02  0.24920708933E+03  0.25648403178E+03  0.00000000000E+00 0.  1.
         14    1    5    5    0    0 -0.20941692237E+02  0.15240580241E+02  0.17747273437E+03  0.17935272846E+03  0.00000000000E+00 0. -1.
         11    1    3    3    0    0 -0.11007535615E+03 -0.93204200267E+02 -0.25219569357E+03  0.29052758016E+03  0.00000000000E+00 0. -1.
        -12    1    3    3    0    0 -0.49799629872E+02  0.12396603256E+02 -0.68885254935E+02  0.85900275059E+02  0.00000000000E+00 0.  1.
          5    1    4    4  501    0  0.12474804587E+03  0.10154880330E+03 -0.60475659062E+01  0.16102260665E+03  0.41800000000E+01 0.  1.
         -5    1    4    4    0  501 -0.15770695801E+01 -0.17091094940E+02  0.30592851109E+02  0.35326868156E+02  0.41800000000E+01 0.  1.
</event>
<event>
11    1  0.8551154E-009  0.1417924E+03  0.7561462E-02  0.1105573E+00
         22   -1    0    0    0    0  0.00000000000E+00  0.00000000000E+00  0.14155026483E+03  0.14155026483E+03  0.00000000000E+00 0. -1.
         22   -1    0    0    0    0 -0.00000000000E+00 -0.00000000000E+00 -0.11395507281E+04  0.11395507281E+04  0.00000000000E+00 0.  1.
         24    2    1    2    0    0 -0.26335682837E+02 -0.56216935610E+02 -0.85665319923E+03  0.86267371746E+03  0.80605998552E+02 0.  0.
         25    2    1    2    0    0  0.49925627850E+02  0.94979490623E+02 -0.23523665842E+03  0.28722403774E+03  0.12509072882E+03 0.  0.
        -24    2    1    2    0    0 -0.23589945013E+02 -0.38762555013E+02  0.93889394390E+02  0.13120323772E+03  0.79624431132E+02 0.  0.
        -11    1    3    3    0    0 -0.74581537677E+01 -0.73678849725E+02 -0.70222813523E+03  0.70612219259E+03  0.00000000000E+00 0.  1.
         12    1    3    3    0    0 -0.18877529069E+02  0.17461914115E+02 -0.15442506400E+03  0.15655152487E+03  0.00000000000E+00 0. -1.
         13    1    5    5    0    0  0.92360963191E+01 -0.19165116355E+02  0.90336158353E+02  0.92807481736E+02  0.00000000000E+00 0. -1.
        -14    1    5    5    0    0 -0.32826041332E+02 -0.19597438658E+02  0.35532360367E+01  0.38395755987E+02  0.00000000000E+00 0.  1.
          5    1    4    4  501    0  0.90641764344E+02  0.73433364275E+02 -0.14810631234E+03  0.18857714758E+03  0.41800000000E+01 0.  1.
         -5    1    4    4    0  501 -0.40716136494E+02  0.21546126347E+02 -0.87130346074E+02  0.98646890162E+02  0.41800000000E+01 0.  1.
</event>
<event>
11    1  0.8551154E-009  0.2039974E+03  0.7561462E-02  0.1051732E+00
         22   -1    0    0    0    0  0.00000000000E+00  0.00000000000E+00  0.31308743511E+03  0.31308743511E+03  0.00000000000E+00 0.  1.
         22   -1    0    0    0    0 -0.00000000000E+00 -0.00000000000E+00 -0.85407613325E+03  0.85407613325E+03  0.00000000000E+00 0.  1.
         24    2    1    2    0    0  0.39981195406E+01  0.72913629236E+01 -0.33284836056E+03  0.34220498899E+03  0.79038436378E+02 0.  0.
         25    2    1    2    0    0  0.71186704750E+02  0.13575111683E+03 -0.46822586207E+03  0.50831026191E+03  0.12509177349E+03 0.  0.
        -24    2    1    2    0    0 -0.75184824290E+02 -0.14304247976E+03  0.26008552450E+03  0.31664831747E+03  0.80670738708E+02 0.  0.
        -13    1    3    3    0    0 -0.19456220986E+02  0.22410916792E+02 -0.51215998545E+02  0.59193515130E+02  0.00000000000E+00 0.  1.
         14    1    3    3    0    0  0.23454340527E+02 -0.15119553868E+02 -0.28163236202E+03  0.28301147386E+03  0.00000000000E+00 0. -1.
         11    1    5    5    0    0 -0.74491550849E+02 -0.56729636358E+02  0.12172431340E+03  0.15357099747E+03  0.00000000000E+00 0. -1.
        -12    1    5    5    0    0 -0.69327344100E+00 -0.86312843397E+02  0.13836121109E+03  0.16307732000E+03  0.00000000000E+00 0.  1.
          5    1    4    4  501    0  0.54176381949E+02  0.31297728159E+02 -0.32028474787E+03  0.32636547040E+03  0.41800000000E+01 0.  1.
         -5    1    4    4    0  501  0.17010322801E+02  0.10445338867E+03 -0.14794111420E+03  0.18194479151E+03  0.41800000000E+01 0.  1.
</event>
<event>
11    1  0.8551154E-009  0.1354371E+03  0.7561462E-02  0.1112763E+00
         22   -1    0    0    0    0  0.00000000000E+00  0.00000000000E+00  0.15059805416E+04  0.15059805416E+04  0.00000000000E+00 0.  1.
         22   -1    0    0    0    0 -0.00000000000E+00 -0.00000000000E+00 -0.15658959138E+03  0.15658959138E+03  0.00000000000E+00 0. -1.
        -24    2    1    2    0    0 -0.29822400486E+02 -0.42034230295E+02 -0.12876798946E+03  0.16066244093E+03  0.81086205555E+02 0.  0.
         25    2    1    2    0    0  0.86700402756E+01  0.72677543327E+02  0.52722162640E+03  0.54677941672E+03  0.12509153567E+03 0.  0.
         24    2    1    2    0    0  0.21152360210E+02 -0.30643313033E+02  0.95093731325E+03  0.95512827532E+03  0.81251545189E+02 0.  0.
        -13    1    5    5    0    0  0.11460153528E+02 -0.58064543423E+02  0.70421771897E+03  0.70670037642E+03  0.00000000000E+00 0.  1.
         14    1    5    5    0    0  0.96922066819E+01  0.27421230390E+02  0.24671959428E+03  0.24842789890E+03  0.00000000000E+00 0. -1.
         13    1    3    3    0    0 -0.52071570254E+02 -0.21916168233E+02 -0.11399326265E+03  0.12722511854E+03  0.00000000000E+00 0. -1.
        -14    1    3    3    0    0  0.22249169768E+02 -0.20118062062E+02 -0.14774726804E+02  0.33437322390E+02  0.00000000000E+00 0.  1.
          5    1    4    4  501    0  0.75984544515E+01  0.13640491597E+02  0.44591175147E+03  0.44620461901E+03  0.41800000000E+01 0.  1.
         -5    1    4    4    0  501  0.10715858241E+01  0.59037051730E+02  0.81309874930E+02  0.10057479771E+03  0.41800000000E+01 0.  1.
</event>
<event>
11    1  0.8551154E-009  0.1450713E+03  0.7561462E-02  0.1102024E+00
         22   -1    0    0    0    0  0.00000000000E+00  0.00000000000E+00  0.23367320368E+03  0.23367320368E+03  0.00000000000E+00 0.  1.
         22   -1    0    0    0    0 -0.00000000000E+00 -0.00000000000E+00 -0.15503387752E+04  0.15503387752E+04  0.00000000000E+00 0.  1.
        -24    2    1    2    0    0  0.28524847368E+02  0.68140688820E+02 -0.14136466249E+04  0.14194145188E+04  0.10432629451E+03 0.  0.
         25    2    1    2    0    0 -0.25919542200E+02 -0.62565671099E+02 -0.79282513921E+02  0.16284766529E+03  0.12508940486E+03 0.  0.
         24    2    1    2    0    0 -0.26053051687E+01 -0.55750177209E+01  0.17626356731E+03  0.20174979478E+03  0.97960533368E+02 0.  0.
        -11    1    5    5    0    0 -0.49767990885E+02 -0.86324505088E+01  0.99910750852E+02  0.11195325031E+03  0.00000000000E+00 0.  1.
         12    1    5    5    0    0  0.47162685717E+02  0.30574327878E+01  0.76352816453E+02  0.89796544474E+02  0.00000000000E+00 0. -1.
         11    1    3    3    0    0 -0.19373854571E+02 -0.19282266597E+02 -0.24345993784E+03  0.24498957810E+03  0.00000000000E+00 0. -1.
        -12    1    3    3    0    0  0.47898701939E+02  0.87422955417E+02 -0.11701866871E+04  0.11744249407E+04  0.00000000000E+00 0.  1.
          5    1    4    4  501    0 -0.29197173282E+02 -0.61939941022E+02  0.13492862106E+02  0.69918244752E+02  0.41800000000E+01 0.  1.
         -5    1    4    4    0  501  0.32776310823E+01 -0.62573007701E+00 -0.92775376027E+02  0.92929420533E+02  0.41800000000E+01 0.  1.
</event>
<event>
11    1  0.8551154E-009  0.1485365E+03  0.7561462E-02  0.1098384E+00
         22   -1    0    0    0    0  0.00000000000E+00  0.00000000000E+00  0.74073510365E+03  0.74073510365E+03  0.00000000000E+00 0.  1.
         22   -1    0    0    0    0 -0.00000000000E+00 -0.00000000000E+00 -0.46667882758E+03  0.46667882758E+03  0.00000000000E+00 0. -1.
         24    2    1    2    0    0  0.61319626856E+02  0.47484889684E+02 -0.39933908987E+03  0.41439158861E+03  0.78954218538E+02 0.  0.
         25    2    1    2    0    0 -0.10518540700E+03 -0.74455771247E+02  0.87943529178E+02  0.19997199284E+03  0.12508837628E+03 0.  0.
        -24    2    1    2    0    0  0.43865780146E+02  0.26970881562E+02  0.58545183676E+03  0.59305034978E+03  0.79392878019E+02 0.  0.
        -13    1    3    3    0    0 -0.71942414586E+01 -0.14925237496E+02 -0.40049092032E+02  0.43341084401E+02  0.00000000000E+00 0.  1.
         14    1    3    3    0    0  0.68513868315E+02  0.62410127180E+02 -0.35928999784E+03  0.37105050421E+03  0.00000000000E+00 0. -1.
         11    1    5    5    0    0 -0.59055962873E+01 -0.18023688473E+02  0.51166614424E+02  0.54568780867E+02  0.00000000000E+00 0. -1.
        -12    1    5    5    0    0  0.49771376433E+02  0.44994570036E+02  0.53428522234E+03  0.53848156891E+03  0.00000000000E+00 0.  1.
          5    1    4    4  501    0 -0.12906026802E+03 -0.36675321561E+02  0.72085624055E+02  0.15236614318E+03  0.41800000000E+01 0.  1.
         -5    1    4    4    0  501  0.23874861019E+02 -0.37780449685E+02  0.15857905123E+02  0.47605849661E+02  0.41800000000E+01 0.  1.
</event>
<event>
11    1  0.8551154E-009  0.1387497E+03  0.7561462E-02  0.1108963E+00
         22   -1    0    0    0    0  0.00000000000E+00  0.00000000000E+00  0.78620551696E+03  0.78620551696E+03  0.00000000000E+00 0. -1.
         22   -1    0    0    0    0 -0.00000000000E+00 -0.00000000000E+00 -0.19419877218E+04  0.19419877218E+04  0.00000000000E+00 0.  1.
        -24    2    1    2    0    0 -0.21121985405E+02  0.16712973250E+02 -0.18698394039E+04  0.18717674526E+04  0.80551464439E+02 0.  0.
         25    2    1    2    0    0 -0.21134633470E+02 -0.59531351358E+02  0.50262927636E+01  0.14022959213E+03  0.12509364638E+03 0.  0.
         24    2    1    2    0    0  0.42256618876E+02  0.42818378107E+02  0.70903090629E+03  0.71619619404E+03  0.81198072303E+02 0.  0.
        -13    1    5    5    0    0  0.44236670435E+02 -0.20109038105E+00  0.53841341236E+03  0.54022766132E+03  0.00000000000E+00 0.  1.
         14    1    5    5    0    0 -0.19800515594E+01  0.43019468488E+02  0.17061749393E+03  0.17596853272E+03  0.00000000000E+00 0. -1.
         11    1    3    3    0    0 -0.41655345823E+02 -0.51195089837E+01 -0.55425241397E+03  0.55583910945E+03  0.00000000000E+00 0. -1.
        -12    1    3    3    0    0  0.20533360418E+02  0.21832482234E+02 -0.13155869900E+04  0.13159283432E+04  0.00000000000E+00 0.  1.
          5    1    4    4  501    0  0.25466936967E+02  0.28298557193E+02 -0.10007349040E+02  0.39585258020E+02  0.41800000000E+01 0.  1.
         -5    1    4    4    0  501 -0.46601570437E+02 -0.87829908551E+02  0.15033641803E+02  0.10064433411E+03  0.41800000000E+01 0.  1.
</event>
<event>
11    1  0.8551154E-009  0.1301211E+03  0.7561462E-02  0.1119120E+00
         22   -1    0    0    0    0  0.00000000000E+00  0.00000000000E+00  0.17607953303E+04  0.17607953303E+04  0.00000000000E+00 0. -1.
         22   -1    0    0    0    0 -0.00000000000E+00 -0.00000000000E+00 -0.21540413367E+03  0.21540413367E+03  0.00000000000E+00 0. -1.
         24    2    1    2    0    0 -0.47865316210E+02  0.23176140345E+02 -0.19166183901E+03  0.20506858638E+03  0.49906338382E+02 0.  0.
         25    2    1    2    0    0  0.11839694047E+02 -0.36907891277E+02  0.25636233565E+03  0.28786380036E+03  0.12506618097E+03 0.  0.
        -24    2    1    2    0    0  0.36025622163E+02  0.13731750931E+02  0.14806907000E+04  0.14832670772E+04  0.78421087163E+02 0.  0.
        -13    1    3    3    0    0 -0.50702450180E+02  0.27174500387E+02 -0.11831899819E+03  0.13156206618E+03  0.00000000000E+00 0.  1.
         14    1    3    3    0    0  0.28371339702E+01 -0.39983600417E+01 -0.73342840822E+02  0.73506520200E+02  0.00000000000E+00 0. -1.
         13    1    5    5    0    0  0.37813772729E+02 -0.13058345747E+02  0.12977584922E+04  0.12983749481E+04  0.00000000000E+00 0. -1.
        -14    1    5    5    0    0 -0.17881505661E+01  0.26790096678E+02  0.18293220778E+03  0.18489212911E+03  0.00000000000E+00 0.  1.
          5    1    4    4  501    0  0.67656955173E+02 -0.30740601288E+02  0.15360643168E+03  0.17068935644E+03  0.41800000000E+01 0. -1.
         -5    1    4    4    0  501 -0.55817261126E+02 -0.61672899886E+01  0.10275590398E+03  0.11717444392E+03  0.41800000000E+01 0. -1.
</event>
<event>
11    1  0.8551154E-009  0.2020738E+03  0.7561462E-02  0.1053067E+00
         22   -1    0    0    0    0  0.00000000000E+00  0.00000000000E+00  0.15350265169E+04  0.15350265169E+04  0.00000000000E+00 0. -1.
         22   -1    0    0    0    0 -0.00000000000E+00 -0.00000000000E+00 -0.15359935753E+03  0.15359935753E+03  0.00000000000E+00 0. -1.
         24    2    1    2    0    0  0.12775024660E+03  0.89301460456E+02 -0.53563061220E+02  0.18338951688E+03  0.80422863833E+02 0.  0.
         25    2    1    2    0    0 -0.14349290492E+03 -0.97693870491E+02  0.30664483556E+03  0.37391395631E+03  0.12508511282E+03 0.  0.
        -24    2    1    2    0    0  0.15742658321E+02  0.83924100351E+01  0.11283453851E+04  0.11313224013E+04  0.80055005074E+02 0.  0.
        -13    1    3    3    0    0  0.11160982370E+02 -0.13727303337E+02 -0.14745532586E+02  0.23031220454E+02  0.00000000000E+00 0.  1.
         14    1    3    3    0    0  0.11658926423E+03  0.10302876379E+03 -0.38817528634E+02  0.16035829642E+03  0.00000000000E+00 0. -1.
         13    1    5    5    0    0  0.37321274931E+02 -0.13125625088E+02  0.91012816289E+03  0.91098761379E+03  0.00000000000E+00 0. -1.
        -14    1    5    5    0    0 -0.21578616610E+02  0.21518035123E+02  0.21821722218E+03  0.22033478751E+03  0.00000000000E+00 0.  1.
          5    1    4    4  501    0 -0.25423843719E+02 -0.70588334271E+02  0.50498578544E+02  0.90535427317E+02  0.41800000000E+01 0.  1.
         -5    1    4    4    0  501 -0.11806906120E+03 -0.27105536220E+02  0.25614625702E+03  0.28337852899E+03  0.41800000000E+01 0.  1.
</event>
<event>
11    1  0.8551154E-009  0.1328460E+03  0.7561462E-02  0.1115821E+00
         22   -1    0    0    0    0  0.00000000000E+00  0.00000000000E+00  0.47751906246E+03  0.47751906246E+03  0.00000000000E+00 0. -1.
         22   -1    0    0    0    0 -0.00000000000E+00 -0.00000000000E+00 -0.17619937769E+04  0.17619937769E+04  0.00000000000E+00 0.  1.
        -24    2    1    2    0    0  0.28016212318E+02  0.35129733080E+02 -0.17049421021E+04  0.17073273234E+04  0.78230502433E+02 0.  0.
         25    2    1    2    0    0 -0.37448513625E+02 -0.86690437374E+01  0.31945829553E+02  0.13470615928E+03  0.12509064645E+03 0.  0.
         24    2    1    2    0    0  0.94323013066E+01 -0.26460689342E+02  0.38852155810E+03  0.39747935665E+03  0.79067701771E+02 0.  0.
        -11    1    5    5    0    0  0.29338682986E+02  0.15320450133E+02  0.10176616761E+03  0.10701321125E+03  0.00000000000E+00 0.  1.
         12    1    5    5    0    0 -0.19906381680E+02 -0.41781139475E+02  0.28675539050E+03  0.29046614540E+03  0.00000000000E+00 0. -1.
         11    1    3    3    0    0 -0.23382943569E+02 -0.43418141610E+01 -0.32806213894E+03  0.32892306153E+03  0.00000000000E+00 0. -1.
        -12    1    3    3    0    0  0.51399155887E+02  0.39471547241E+02 -0.13768799632E+04  0.13784042619E+04  0.00000000000E+00 0.  1.
          5    1    4    4  501    0 -0.38408278614E+02 -0.52935862690E+02  0.54136134241E+02  0.85003499077E+02  0.41800000000E+01 0. -1.
         -5    1    4    4    0  501  0.95976498892E+00  0.44266818953E+02 -0.22190304687E+02  0.49702660202E+02  0.41800000000E+01 0. -1.
</event>
<event>
11    1  0.8551154E-009  0.1434715E+03  0.7561462E-02  0.1103743E+00
         22   -1    0    0    0    0  0.00000000000E+00  0.00000000000E+00  0.72467426799E+03  0.72467426799E+03  0.00000000000E+00 0. -1.
         22   -1    0    0    0    0 -0.00000000000E+00 -0.00000000000E+00 -0.22685553044E+03  0.22685553044E+03  0.00000000000E+00 0. -1.
        -24    2    1    2    0    0  0.32099803518E+01  0.16476925949E+02 -0.15798928551E+03  0.17797069420E+03  0.80194517240E+02 0.  0.
         25    2    1    2    0    0 -0.72092180957E+02 -0.27668560915E+02  0.45467535859E+02  0.15387684071E+03  0.12509178020E+03 0.  0.
         24    2    1    2    0    0  0.68882200605E+02  0.11191634966E+02  0.61034048720E+03  0.61968226352E+03  0.81366990509E+02 0.  0.
        -13    1    5    5    0    0  0.14682647699E+02  0.37010297254E+02  0.14087321090E+03  0.14639195263E+03  0.00000000000E+00 0.  1.
         14    1    5    5    0    0  0.54199552906E+02 -0.25818662288E+02  0.46946727630E+03  0.47329031088E+03  0.00000000000E+00 0. -1.
         11    1    3    3    0    0  0.18584628592E+02  0.19713946247E+02 -0.15986761115E+03  0.16214709738E+03  0.00000000000E+00 0. -1.
        -12    1    3    3    0    0 -0.15374648241E+02 -0.32370202982E+01  0.18783256374E+01  0.15823596814E+02  0.00000000000E+00 0.  1.
          5    1    4    4  501    0  0.18130450135E+02 -0.50420738253E+02  0.19651036200E+02  0.57224118096E+02  0.41800000000E+01 0.  1.
         -5    1    4    4    0  501 -0.90222631092E+02  0.22752177338E+02  0.25816499660E+02  0.96652722618E+02  0.41800000000E+01 0.  1.
</event>
<event>
11    1  0.8551154E-009  0.2438982E+03  0.7561462E-02  0.1027201E+00
         22   -1    0    0    0    0  0.00000000000E+00  0.00000000000E+00  0.33435624579E+04  0.33435624579E+04  0.00000000000E+00 0. -1.
         22   -1    0    0    0    0 -0.00000000000E+00 -0.00000000000E+00 -0.14639809129E+03  0.14639809129E+03  0.00000000000E+00 0.  1.
         24    2    1    2    0    0 -0.17976379145E+03  0.11005317929E+03  0.12001731296E+02  0.22572034373E+03  0.79868072656E+02 0.  0.
         25    2    1    2    0    0  0.16213377527E+03 -0.12708521760E+03  0.33427511801E+03  0.41210191964E+03  0.12510045581E+03 0.  0.
        -24    2    1    2    0    0  0.17630016187E+02  0.17032038308E+02  0.28508875173E+04  0.28521382858E+04  0.80822381359E+02 0.  0.
        -11    1    3    3    0    0 -0.16862787763E+03  0.11726303082E+03 -0.33644989748E+01  0.20541981249E+03  0.00000000000E+00 0.  1.
         12    1    3    3    0    0 -0.11135913822E+02 -0.72098515302E+01  0.15366230271E+02  0.20300531236E+02  0.00000000000E+00 0. -1.
         13    1    5    5    0    0  0.47596976751E+02  0.22839998821E+01  0.20514825363E+04  0.20520358880E+04  0.00000000000E+00 0. -1.
        -14    1    5    5    0    0 -0.29966960565E+02  0.14748038426E+02  0.79940498099E+03  0.80010239782E+03  0.00000000000E+00 0.  1.
          5    1    4    4  501    0  0.72911058204E+02 -0.78530616658E+02  0.67758778939E+02  0.12685347723E+03  0.41800000000E+01 0. -1.
         -5    1    4    4    0  501  0.89222717064E+02 -0.48554600937E+02  0.26651633907E+03  0.28524844242E+03  0.41800000000E+01 0. -1.
</event>
<event>
11    1  0.8551154E-009  0.2331659E+03  0.7561462E-02  0.1033270E+00
         22   -1    0    0    0    0  0.00000000000E+00  0.00000000000E+00  0.22721534526E+04  0.22721534526E+04  0.00000000000E+00 0. -1.
         22   -1    0    0    0    0 -0.00000000000E+00 -0.00000000000E+00 -0.55583952433E+03  0.55583952433E+03  0.00000000000E+00 0.  1.
        -24    2    1    2    0    0  0.67664887299E+02  0.18236905350E+03 -0.44403277105E+03  0.49155335584E+03  0.81379304681E+02 0.  0.
         25    2    1    2    0    0 -0.11563207600E+03 -0.18473292883E+03  0.94521960230E+02  0.26847464442E+03  0.12508877541E+03 0.  0.
         24    2    1    2    0    0  0.47967188697E+02  0.23638753347E+01  0.20658247391E+04  0.20679649767E+04  0.80875540310E+02 0.  0.
        -13    1    5    5    0    0  0.56151646780E+01  0.20582037087E+02  0.14254055400E+03  0.14412827572E+03  0.00000000000E+00 0.  1.
         14    1    5    5    0    0  0.42352024019E+02 -0.18218161753E+02  0.19232841851E+04  0.19238367009E+04  0.00000000000E+00 0. -1.
         11    1    3    3    0    0 -0.32548810069E+01 -0.67359287870E+01 -0.76513925877E+01  0.10700971709E+02  0.00000000000E+00 0. -1.
        -12    1    3    3    0    0  0.70919768306E+02  0.18910498228E+03 -0.43638137846E+03  0.48085238414E+03  0.00000000000E+00 0.  1.
          5    1    4    4  501    0 -0.82337932804E+02 -0.16681786033E+03  0.12115039694E+03  0.22204194374E+03  0.41800000000E+01 0.  1.
         -5    1    4    4    0  501 -0.33294143193E+02 -0.17915068503E+02 -0.26628436706E+02  0.46432700673E+02  0.41800000000E+01 0.  1.
</event>
<event>
11    1  0.8551154E-009  0.1905879E+03  0.7561462E-02  0.1061386E+00
         22   -1    0    0    0    0  0.00000000000E+00  0.00000000000E+00  0.19737800583E+04  0.19737800583E+04  0.00000000000E+00 0.  1.
         22   -1    0    0    0    0 -0.00000000000E+00 -0.00000000000E+00 -0.79339499938E+03  0.79339499938E+03  0.00000000000E+00 0. -1.
         24    2    1    2    0    0  0.55548929502E+02  0.12950864785E+03 -0.69547450324E+03  0.71415596431E+03  0.80472251502E+02 0.  0.
         25    2    1    2    0    0 -0.50159239440E+02 -0.18500635178E+03  0.62823246721E+02  0.23735597363E+03  0.12509116032E+03 0.  0.
        -24    2    1    2    0    0 -0.53896900624E+01  0.55497703929E+02  0.18130363155E+04  0.18156631198E+04  0.80142619102E+02 0.  0.
        -13    1    3    3    0    0  0.51627348947E+01  0.16924462998E+02 -0.28502470019E+03  0.28557340737E+03  0.00000000000E+00 0.  1.
         14    1    3    3    0    0  0.50386194608E+02  0.11258418485E+03 -0.41044980305E+03  0.42858255694E+03  0.00000000000E+00 0. -1.
         11    1    5    5    0    0  0.23958829860E+02  0.59952064196E+01  0.18891641689E+03  0.19052396332E+03  0.00000000000E+00 0. -1.
        -12    1    5    5    0    0 -0.29348519923E+02  0.49502497509E+02  0.16241198986E+04  0.16251391565E+04  0.00000000000E+00 0.  1.
          5    1    4    4  501    0  0.16045045218E+02 -0.10499539108E+03  0.78642039404E+02  0.13222525623E+03  0.41800000000E+01 0. -1.
         -5    1    4    4    0  501 -0.66204284658E+02 -0.80010960697E+02 -0.15818792683E+02  0.10513071740E+03  0.41800000000E+01 0. -1.
</event>
<event>
11    1  0.8551154E-009  0.1751071E+03  0.7561462E-02  0.1073671E+00
         22   -1    0    0    0    0  0.00000000000E+00  0.00000000000E+00  0.10242942014E+04  0.10242942014E+04  0.00000000000E+00 0. -1.
         22   -1    0    0    0    0 -0.00000000000E+00 -0.00000000000E+00 -0.76738034973E+03  0.76738034973E+03  0.00000000000E+00 0. -1.
        -24    2    1    2    0    0 -0.58711587198E+02 -0.65373868774E+02 -0.73232361031E+03  0.74176270731E+03  0.78697207984E+02 0.  0.
         25    2    1    2    0    0  0.14542870345E+03  0.10755474028E+03  0.56125434779E+03  0.60280365145E+03  0.12509304275E+03 0.  0.
         24    2    1    2    0    0 -0.86717116253E+02 -0.42180871504E+02  0.42798311422E+03  0.44710819240E+03  0.86238654223E+02 0.  0.
        -11    1    5    5    0    0  0.46662810276E+01 -0.22140277939E+01  0.17639114809E+03  0.17646674821E+03  0.00000000000E+00 0.  1.
         12    1    5    5    0    0 -0.91383397280E+02 -0.39966843710E+02  0.25159196612E+03  0.27064144419E+03  0.00000000000E+00 0. -1.
         11    1    3    3    0    0 -0.63567442756E+02 -0.78486877458E+02 -0.68534269795E+03  0.69274499157E+03  0.00000000000E+00 0. -1.
        -12    1    3    3    0    0  0.48558555586E+01  0.13113008684E+02 -0.46980912362E+02  0.49017715739E+02  0.00000000000E+00 0.  1.
          5    1    4    4  501    0  0.94563215526E+02  0.70507294772E+02  0.17279546153E+03  0.20925874957E+03  0.41800000000E+01 0.  1.
         -5    1    4    4    0  501  0.50865487925E+02  0.37047445506E+02  0.38845888626E+03  0.39354490188E+03  0.41800000000E+01 0.  1.
</event>
<event>
11    1  0.8551154E-009  0.1688518E+03  0.7561462E-02  0.1079035E+00
         22   -1    0    0    0    0  0.00000000000E+00  0.00000000000E+00  0.20775665361E+03  0.20775665361E+03  0.00000000000E+00 0. -1.
         22   -1    0    0    0    0 -0.00000000000E+00 -0.00000000000E+00 -0.93084691207E+03  0.93084691207E+03  0.00000000000E+00 0. -1.
        -24    2    1    2    0    0 -0.69511262179E+02  0.89317242877E+02 -0.66687360619E+03  0.68179646074E+03  0.85537253814E+02 0.  0.
         25    2    1    2    0    0  0.38415216652E+02 -0.11335919723E+03 -0.21424128223E+03  0.27545073278E+03  0.12509093776E+03 0.  0.
         24    2    1    2    0    0  0.31096045527E+02  0.24041954349E+02  0.15802462996E+03  0.18135637216E+03  0.79833391719E+02 0.  0.
        -11    1    5    5    0    0  0.17620798826E+02  0.14644197949E+02  0.43816869855E+00  0.22915869537E+02  0.00000000000E+00 0.  1.
         12    1    5    5    0    0  0.13475246701E+02  0.93977563997E+01  0.15758646126E+03  0.15844050263E+03  0.00000000000E+00 0. -1.
         11    1    3    3    0    0 -0.57450288693E+02  0.42631608944E+02 -0.55997252470E+03  0.56452388627E+03  0.00000000000E+00 0. -1.
        -12    1    3    3    0    0 -0.12060973485E+02  0.46685633934E+02 -0.10690108150E+03  0.11727257447E+03  0.00000000000E+00 0.  1.
          5    1    4    4  501    0  0.54655953342E+02 -0.13438050538E+03 -0.19117353939E+03  0.24002122411E+03  0.41800000000E+01 0.  1.
         -5    1    4    4    0  501 -0.16240736690E+02  0.21021308152E+02 -0.23067742841E+02  0.35429508668E+02  0.41800000000E+01 0.  1.
</event>
<event>
11    1  0.8551154E-009  0.1384330E+03  0.7561462E-02  0.1109321E+00
         22   -1    0    0    0    0  0.00000000000E+00  0.00000000000E+00  0.20118474323E+04  0.20118474323E+04  0.00000000000E+00 0. -1.
         22   -1    0    0    0    0 -0.00000000000E+00 -0.00000000000E+00 -0.11206881690E+04  0.11206881690E+04  0.00000000000E+00 0. -1.
        -24    2    1    2    0    0  0.42322347931E+02 -0.93814221712E+01 -0.89450202332E+03  0.89925732698E+03  0.81551690192E+02 0.  0.
         25    2    1    2    0    0 -0.21802468435E+01 -0.34522199467E+02 -0.20340400539E+03  0.24129230143E+03  0.12510895087E+03 0.  0.
         24    2    1    2    0    0 -0.40142101088E+02  0.43903621638E+02  0.19890652920E+04  0.19919859728E+04  0.89935887353E+02 0.  0.
        -13    1    5    5    0    0  0.12939216877E+02  0.64954104849E+00  0.48127742544E+02  0.49840995569E+02  0.00000000000E+00 0.  1.
         14    1    5    5    0    0 -0.53081317965E+02  0.43254080590E+02  0.19409375494E+04  0.19421449773E+04  0.00000000000E+00 0. -1.
         13    1    3    3    0    0 -0.20048522552E+02 -0.84734074798E+01 -0.43456116178E+03  0.43510590115E+03  0.00000000000E+00 0. -1.
        -14    1    3    3    0    0  0.62370870484E+02 -0.90801469135E+00 -0.45994086155E+03  0.46415142582E+03  0.00000000000E+00 0.  1.
          5    1    4    4  501    0  0.46545340873E+02 -0.33838345224E+02 -0.38686039229E+02  0.69466426392E+02  0.41800000000E+01 0. -1.
         -5    1    4    4    0  501 -0.48725587717E+02 -0.68385424328E+00 -0.16471796617E+03  0.17182587504E+03  0.41800000000E+01 0. -1.
</event>
<event>
11    1  0.8551154E-009  0.1642207E+03  0.7561462E-02  0.1083173E+00
         22   -1    0    0    0    0  0.00000000000E+00  0.00000000000E+00  0.13732071506E+04  0.13732071506E+04  0.00000000000E+00 0.  1.
         22   -1    0    0    0    0 -0.00000000000E+00 -0.00000000000E+00 -0.21872068056E+04  0.21872068056E+04  0.00000000000E+00 0. -1.
         24    2    1    2    0    0 -0.99960703568E+02  0.13580845909E+02 -0.21431032720E+04  0.21470057403E+04  0.81027359704E+02 0.  0.
         25    2    1    2    0    0  0.24503239979E+02 -0.95737533065E+02  0.12838598840E+03  0.20469768182E+03  0.12510833273E+03 0.  0.
        -24    2    1    2    0    0  0.75457463589E+02  0.82156687156E+02  0.12007176285E+04  0.12087105340E+04  0.82551689712E+02 0.  0.
        -13    1    3    3    0    0  0.52031283894E+01 -0.65700568049E+01 -0.28847871103E+02  0.30040603499E+02  0.00000000000E+00 0.  1.
         14    1    3    3    0    0 -0.10516383196E+03  0.20150902714E+02 -0.21142554009E+04  0.21169651368E+04  0.00000000000E+00 0. -1.
         13    1    5    5    0    0  0.87696201348E+02  0.43239885129E+02  0.87620580289E+03  0.88164444104E+03  0.00000000000E+00 0. -1.
        -14    1    5    5    0    0 -0.12238737759E+02  0.38916802027E+02  0.32451182566E+03  0.32706609298E+03  0.00000000000E+00 0.  1.
          5    1    4    4  501    0  0.37060211495E+02 -0.81659552317E+02  0.16650898765E+02  0.91304252860E+02  0.41800000000E+01 0.  1.
         -5    1    4    4    0  501 -0.12556971516E+02 -0.14077980748E+02  0.11173508963E+03  0.11339342895E+03  0.41800000000E+01 0.  1.
</event>
<event>
11    1  0.8551154E-009  0.1486144E+03  0.7561462E-02  0.1098303E+00
         22   -1    0    0    0    0  0.00000000000E+00  0.00000000000E+00  0.43943891594E+03  0.43943891594E+03  0.00000000000E+00 0.  1.
         22   -1    0    0    0    0 -0.00000000000E+00 -0.00000000000E+00 -0.34490572285E+03  0.34490572285E+03  0.00000000000E+00 0.  1.
         24    2    1    2    0    0  0.43470213983E+02  0.12479037475E+02 -0.18839605774E+03  0.21053856767E+03  0.82389489775E+02 0.  0.
         25    2    1    2    0    0 -0.10160375593E+03  0.40822762662E+02 -0.86811376071E+02  0.18754631606E+03  0.12509030530E+03 0.  0.
        -24    2    1    2    0    0  0.58133541948E+02 -0.53301800137E+02  0.36974062691E+03  0.38625975506E+03  0.79169922298E+02 0.  0.
        -11    1    3    3    0    0  0.34242099008E+02 -0.50022012671E+01 -0.18758945200E+03  0.19075467456E+03  0.00000000000E+00 0.  1.
         12    1    3    3    0    0  0.92281149742E+01  0.17481238742E+02 -0.80660573482E+00  0.19783893114E+02  0.00000000000E+00 0. -1.
         13    1    5    5    0    0  0.28046639220E+02 -0.35005903695E+02  0.62074394130E+02  0.76584970273E+02  0.00000000000E+00 0. -1.
        -14    1    5    5    0    0  0.30086902729E+02 -0.18295896442E+02  0.30766623278E+03  0.30967478479E+03  0.00000000000E+00 0.  1.
          5    1    4    4  501    0 -0.75088453505E+02 -0.13204128968E+02 -0.99976236856E+02  0.12579882832E+03  0.41800000000E+01 0.  1.
         -5    1    4    4    0  501 -0.26515302426E+02  0.54026891630E+02  0.13164860785E+02  0.61747487734E+02  0.41800000000E+01 0.  1.
</event>
<event>
11    1  0.8551154E-009  0.1800196E+03  0.7561462E-02  0.1069627E+00
         22   -1    0    0    0    0  0.00000000000E+00  0.00000000000E+00  0.16670099473E+04  0.16670099473E+04  0.00000000000E+00 0. -1.
         22   -1    0    0    0    0 -0.00000000000E+00 -0.00000000000E+00 -0.12237169959E+03  0.12237169959E+03  0.00000000000E+00 0.  1.
        -24    2    1    2    0    0 -0.94734588230E+02 -0.69896569006E+02  0.22206289767E+00  0.14283025822E+03  0.80871878836E+02 0.  0.
         25    2    1    2    0    0  0.12661978038E+03  0.10618673738E+03  0.16734433960E+03  0.26638146120E+03  0.12508702130E+03 0.  0.
         24    2    1    2    0    0 -0.31885192147E+02 -0.36290168375E+02  0.13770718452E+04  0.13801699275E+04  0.78794162139E+02 0.  0.
        -13    1    5    5    0    0  0.15344357756E+02  0.15788930867E+02  0.35676208932E+03  0.35744080353E+03  0.00000000000E+00 0.  1.
         14    1    5    5    0    0 -0.47229549903E+02 -0.52079099242E+02  0.10203097559E+04  0.10227291240E+04  0.00000000000E+00 0. -1.
         13    1    3    3    0    0 -0.21026883714E+02  0.88226619620E+00  0.29768193328E+02  0.36456186942E+02  0.00000000000E+00 0. -1.
        -14    1    3    3    0    0 -0.73707704516E+02 -0.70778835202E+02 -0.29546130430E+02  0.10637407128E+03  0.00000000000E+00 0.  1.
          5    1    4    4  501    0  0.39562509494E+01  0.19011124002E+02  0.99136447304E+02  0.10110678682E+03  0.41800000000E+01 0.  1.
         -5    1    4    4    0  501  0.12266352943E+03  0.87175613379E+02  0.68207892294E+02  0.16527467438E+03  0.41800000000E+01 0.  1.
</event>
<event>
11    1  0.8551154E-009  0.1866811E+03  0.7561462E-02  0.1064363E+00
         22   -1    0    0    0    0  0.00000000000E+00  0.00000000000E+00  0.67740786357E+03  0.67740786357E+03  0.00000000000E+00 0.  1.
         22   -1    0    0    0    0 -0.00000000000E+00 -0.00000000000E+00 -0.11817992469E+04  0.11817992469E+04  0.00000000000E+00 0. -1.
        -24    2    1    2    0    0 -0.13635476237E+03 -0.67501785093E+01 -0.10545618830E+04  0.10662776216E+04  0.78797304857E+02 0.  0.
         25    2    1    2    0    0  0.17119150476E+03  0.40333511995E+02 -0.18535135320E+02  0.21662265152E+03  0.12509395835E+03 0.  0.
         24    2    1    2    0    0 -0.34836742397E+02 -0.33583333486E+02  0.56870563496E+03  0.57630683731E+03  0.79762350717E+02 0.  0.
        -13    1    5    5    0    0 -0.29143462225E+02  0.46269635787E+00  0.48345509447E+03  0.48433292666E+03  0.00000000000E+00 0.  1.
         14    1    5    5    0    0 -0.56932801728E+01 -0.34046029843E+02  0.85250540485E+02  0.91973910650E+02  0.00000000000E+00 0. -1.
         13    1    3    3    0    0 -0.14661942699E+03 -0.62312196513E+01 -0.10053184418E+04  0.10159730576E+04  0.00000000000E+00 0. -1.
        -14    1    3    3    0    0  0.10264664627E+02 -0.51895885798E+00 -0.49243441227E+02  0.50304564028E+02  0.00000000000E+00 0.  1.
          5    1    4    4  501    0  0.15402410326E+03  0.15590155634E+02  0.31533614527E+02  0.15804530547E+03  0.41800000000E+01 0.  1.
         -5    1    4    4    0  501  0.17167401506E+02  0.24743356360E+02 -0.50068749847E+02  0.58577346045E+02  0.41800000000E+01 0.  1.
</event>
<event>
11    1  0.8551154E-009  0.1291184E+03  0.7561462E-02  0.1120357E+00
         22   -1    0    0    0    0  0.00000000000E+00  0.00000000000E+00  0.22740342262E+04  0.22740342262E+04  0.00000000000E+00 0. -1.
         22   -1    0    0    0    0 -0.00000000000E+00 -0.00000000000E+00 -0.47739284631E+03  0.47739284631E+03  0.00000000000E+00 0.  1.
        -24    2    1    2    0    0  0.25373781763E+02  0.21528469260E+02 -0.43718222220E+03  0.44589709331E+03  0.81170306307E+02 0.  0.
         25    2    1    2    0    0 -0.64715627111E+01  0.90854383217E+01  0.77808704114E+02  0.14773557632E+03  0.12508868758E+03 0.  0.
         24    2    1    2    0    0 -0.18902219052E+02 -0.30613907582E+02  0.21560148980E+04  0.21577944029E+04  0.79887043004E+02 0.  0.
        -13    1    5    5    0    0  0.39221208505E+00  0.22969114449E+02  0.28918674582E+03  0.29009775594E+03  0.00000000000E+00 0.  1.
         14    1    5    5    0    0 -0.19294431137E+02 -0.53583022031E+02  0.18668281521E+04  0.18676966469E+04  0.00000000000E+00 0. -1.
         13    1    3    3    0    0  0.47032064102E+02  0.52971381232E+01 -0.14645545908E+03  0.15391321002E+03  0.00000000000E+00 0. -1.
        -14    1    3    3    0    0 -0.21658282339E+02  0.16231331137E+02 -0.29072676312E+03  0.29198388329E+03  0.00000000000E+00 0.  1.
          5    1    4    4  501    0  0.34523997713E+02  0.50799063748E+02  0.61169083778E+02  0.86784678982E+02  0.41800000000E+01 0. -1.
         -5    1    4    4    0  501 -0.40995560425E+02 -0.41713625427E+02  0.16639620336E+02  0.60950897333E+02  0.41800000000E+01 0. -1.
</event>
<event>
11    1  0.8551154E-009  0.1818134E+03  0.7561462E-02  0.1068185E+00
         22   -1    0    0    0    0  0.00000000000E+00  0.00000000000E+00  0.20963870650E+04  0.20963870650E+04  0.00000000000E+00 0.  1.
         22   -1    0    0    0    0 -0.00000000000E+00 -0.00000000000E+00 -0.19547686205E+04  0.19547686205E+04  0.00000000000E+00 0. -1.
         24    2    1    2    0    0 -0.11400281910E+03  0.39643949730E+02 -0.17969802445E+04  0.18029628441E+04  0.83478934539E+02 0.  0.
         25    2    1    2    0    0  0.17169784139E+03  0.78685068022E+02 -0.67299785025E+02  0.23632221428E+03  0.12508972473E+03 0.  0.
        -24    2    1    2    0    0 -0.57695022290E+02 -0.11832901775E+03  0.20058984741E+04  0.20118706272E+04  0.81634919697E+02 0.  0.
        -13    1    3    3    0    0 -0.75106024500E+02  0.54456301575E+02 -0.84582485834E+03  0.85089722921E+03  0.00000000000E+00 0.  1.
         14    1    3    3    0    0 -0.38896794598E+02 -0.14812351846E+02 -0.95115538621E+03  0.95206561492E+03  0.00000000000E+00 0. -1.
         11    1    5    5    0    0 -0.47869790540E+02 -0.37722931116E+02  0.48633364777E+03  0.49013768813E+03  0.00000000000E+00 0. -1.
        -12    1    5    5    0    0 -0.98252317501E+01 -0.80606086636E+02  0.15195648263E+04  0.15217329390E+04  0.00000000000E+00 0.  1.
          5    1    4    4  501    0  0.66119286191E+02  0.89608961256E+02 -0.16590319956E+01  0.11145290813E+03  0.41800000000E+01 0. -1.
         -5    1    4    4    0  501  0.10557855520E+03 -0.10923893234E+02 -0.65640753029E+02  0.12486930615E+03  0.41800000000E+01 0. -1.
</event>
<event>
11    1  0.8551154E-009  0.1596547E+03  0.7561462E-02  0.1087403E+00
         22   -1    0    0    0    0  0.00000000000E+00  0.00000000000E+00  0.13480531090E+03  0.13480531090E+03  0.00000000000E+00 0. -1.
         22   -1    0    0    0    0 -0.00000000000E+00 -0.00000000000E+00 -0.82959308212E+03  0.82959308212E+03  0.00000000000E+00 0. -1.
         24    2    1    2    0    0  0.39224934495E+02 -0.15163536330E+02 -0.58527569135E+03  0.59225578989E+03  0.80316607523E+02 0.  0.
         25    2    1    2    0    0 -0.13011338526E+03 -0.51264885220E+01 -0.15866680023E+03  0.24037189334E+03  0.12509084581E+03 0.  0.
        -24    2    1    2    0    0  0.90888450764E+02  0.20290024852E+02  0.49154720357E+02  0.13177070980E+03  0.79214505211E+02 0.  0.
        -11    1    3    3    0    0 -0.19908153935E+02 -0.12085330112E+02 -0.74398309466E+02  0.77958310965E+02  0.00000000000E+00 0.  1.
         12    1    3    3    0    0  0.59133088431E+02 -0.30782062175E+01 -0.51087738189E+03  0.51429747892E+03  0.00000000000E+00 0. -1.
         11    1    5    5    0    0  0.10496608159E+03  0.22206795478E+02  0.47935443330E+02  0.11751096450E+03  0.00000000000E+00 0. -1.
        -12    1    5    5    0    0 -0.14077630830E+02 -0.19167706268E+01  0.12192770276E+01  0.14259745295E+02  0.00000000000E+00 0.  1.
          5    1    4    4  501    0 -0.13871783621E+03 -0.13790288548E+02 -0.80259558168E+02  0.16090953738E+03  0.41800000000E+01 0.  1.
         -5    1    4    4    0  501  0.86044509559E+01  0.86638000262E+01 -0.78407242061E+02  0.79462355961E+02  0.41800000000E+01 0.  1.
</event>
<event>
11    1  0.8551154E-009  0.1576336E+03  0.7561462E-02  0.1089324E+00
         22   -1    0    0    0    0  0.00000000000E+00  0.00000000000E+00  0.94841571012E+03  0.94841571012E+03  0.00000000000E+00 0. -1.
         22   -1    0    0    0    0 -0.00000000000E+00 -0.00000000000E+00 -0.60097200718E+03  0.60097200718E+03  0.00000000000E+00 0.  1.
        -24    2    1    2    0    0  0.95886008590E+02 -0.25317100617E+02 -0.56244778975E+03  0.57655335758E+03  0.78937796485E+02 0.  0.
         25    2    1    2    0    0 -0.28023604681E+02  0.12898436691E+01  0.12119098548E+03  0.17641110193E+03  0.12508651330E+03 0.  0.
         24    2    1    2    0    0 -0.67862403909E+02  0.24027256948E+02  0.78870050721E+03  0.79642325779E+03  0.84017263224E+02 0.  0.
        -13    1    5    5    0    0 -0.32792978536E+02  0.36970843195E+02  0.18254293094E+03  0.18911410398E+03  0.00000000000E+00 0.  1.
         14    1    5    5    0    0 -0.35069425373E+02 -0.12943586247E+02  0.60615757627E+03  0.60730915380E+03  0.00000000000E+00 0. -1.
         11    1    3    3    0    0  0.20421050228E+02 -0.40148127381E+02 -0.13713803832E+03  0.14434587967E+03  0.00000000000E+00 0. -1.
        -12    1    3    3    0    0  0.75464958362E+02  0.14831026764E+02 -0.42530975143E+03  0.43220747790E+03  0.00000000000E+00 0.  1.
          5    1    4    4  501    0 -0.43388507049E+02  0.34365375565E+02  0.63775888434E+01  0.55872064766E+02  0.41800000000E+01 0.  1.
         -5    1    4    4    0  501  0.15364902369E+02 -0.33075531896E+02  0.11481339663E+03  0.12053903717E+03  0.41800000000E+01 0.  1.
</event>
<event>
11    1  0.8551154E-009  0.1389771E+03  0.7561462E-02  0.1108706E+00
         22   -1    0    0    0    0  0.00000000000E+00  0.00000000000E+00  0.29831297079E+04  0.29831297079E+04  0.00000000000E+00 0. -1.
         22   -1    0    0    0    0 -0.00000000000E+00 -0.00000000000E+00 -0.71827445725E+02  0.71827445725E+02  0.00000000000E+00 0.  1.
         24    2    1    2    0    0  0.15784367285E+02 -0.62769526350E+02  0.20979158635E+01  0.10358323985E+03  0.80845078005E+02 0.  0.
         25    2    1    2    0    0  0.12684185244E+02  0.46837352050E+02  0.19974804847E+03  0.24062530031E+03  0.12508647482E+03 0.  0.
        -24    2    1    2    0    0 -0.28468552529E+02  0.15932174300E+02  0.27094562978E+04  0.27107486135E+04  0.77073489603E+02 0.  0.
        -11    1    3    3    0    0 -0.29273185056E+02 -0.14574973586E+02 -0.14157023336E+02  0.35633839649E+02  0.00000000000E+00 0.  1.
         12    1    3    3    0    0  0.45057552341E+02 -0.48194552764E+02  0.16254939199E+02  0.67949400199E+02  0.00000000000E+00 0. -1.
         13    1    5    5    0    0 -0.55427756342E+01  0.14697743805E+02  0.24980320700E+04  0.24980814576E+04  0.00000000000E+00 0. -1.
        -14    1    5    5    0    0 -0.22925776894E+02  0.12344304949E+01  0.21142422781E+03  0.21266715584E+03  0.00000000000E+00 0.  1.
          5    1    4    4  501    0  0.37763415299E+02  0.80867540961E+02  0.11318614659E+03  0.14420197952E+03  0.41800000000E+01 0. -1.
         -5    1    4    4    0  501 -0.25079230056E+02 -0.34030188911E+02  0.86561901871E+02  0.96423320794E+02  0.41800000000E+01 0. -1.
</event>
<event>
11    1  0.8551154E-009  0.1338864E+03  0.7561462E-02  0.1114584E+00
         22   -1    0    0    0    0  0.00000000000E+00  0.00000000000E+00  0.12045953581E+04  0.12045953581E+04  0.00000000000E+00 0.  1.
         22   -1    0    0    0    0 -0.00000000000E+00 -0.00000000000E+00 -0.68090340291E+03  0.68090340291E+03  0.00000000000E+00 0.  1.
        -24    2    1    2    0    0 -0.38791950568E+02 -0.28071699778E+02 -0.65240849589E+03  0.65950913192E+03  0.83801037125E+02 0.  0.
         25    2    1    2    0    0  0.25955286299E+02  0.31093247285E+02  0.16186540685E+03  0.20854037038E+03  0.12509280247E+03 0.  0.
         24    2    1    2    0    0  0.12836664270E+02 -0.30215475064E+01  0.10142350443E+04  0.10174492587E+04  0.79726779915E+02 0.  0.
        -11    1    5    5    0    0 -0.29931284565E+02 -0.77333325850E+01  0.64050034044E+03  0.64124595307E+03  0.00000000000E+00 0.  1.
         12    1    5    5    0    0  0.42767948835E+02  0.47117850786E+01  0.37373470382E+03  0.37620330568E+03  0.00000000000E+00 0. -1.
         11    1    3    3    0    0 -0.21250972632E+02 -0.28200383690E+02 -0.87889006295E+02  0.94717173235E+02  0.00000000000E+00 0. -1.
        -12    1    3    3    0    0 -0.17540977936E+02  0.12868391104E+00 -0.56451948959E+03  0.56479195869E+03  0.00000000000E+00 0.  1.
          5    1    4    4  501    0  0.29537332580E+02  0.72372807555E+02  0.14256066333E+03  0.16263853301E+03  0.41800000000E+01 0. -1.
         -5    1    4    4    0  501 -0.35820462813E+01 -0.41279560270E+02  0.19304743520E+02  0.45901837371E+02  0.41800000000E+01 0. -1.
</event>
<event>
11    1  0.8551154E-009  0.2285741E+03  0.7561462E-02  0.1035976E+00
         22   -1    0    0    0    0  0.00000000000E+00  0.00000000000E+00  0.14845790975E+04  0.14845790975E+04  0.00000000000E+00 0.  1.
         22   -1    0    0    0    0 -0.00000000000E+00 -0.00000000000E+00 -0.42801059792E+03  0.42801059792E+03  0.00000000000E+00 0. -1.
         24    2    1    2    0    0 -0.18985655280E+03 -0.15379224560E+02 -0.37164614952E+03  0.42633066772E+03  0.85760985305E+02 0.  0.
         25    2    1    2    0    0  0.20490164757E+03  0.71760411948E+02  0.60295754763E+03  0.65294676290E+03  0.12508968395E+03 0.  0.
        -24    2    1    2    0    0 -0.15045094778E+02 -0.56381187388E+02  0.82525710149E+03  0.83331226481E+03  0.99774014466E+02 0.  0.
        -13    1    3    3    0    0 -0.26290872795E+02  0.21010507439E+02 -0.27139219275E+02  0.43234114285E+02  0.00000000000E+00 0.  1.
         14    1    3    3    0    0 -0.16356568000E+03 -0.36389731999E+02 -0.34450693025E+03  0.38309655344E+03  0.00000000000E+00 0. -1.
         11    1    5    5    0    0  0.17067577466E+02 -0.49329686995E+02  0.18531857293E+03  0.19252972158E+03  0.00000000000E+00 0. -1.
        -12    1    5    5    0    0 -0.32112672244E+02 -0.70515003935E+01  0.63993852856E+03  0.64078254323E+03  0.00000000000E+00 0.  1.
          5    1    4    4  501    0  0.22054745507E+03  0.72706111475E+02  0.53799325208E+03  0.58598768781E+03  0.41800000000E+01 0.  1.
         -5    1    4    4    0  501 -0.15645807497E+02 -0.94569952711E+00  0.64964295554E+02  0.66959075088E+02  0.41800000000E+01 0.  1.
</event>
<event>
11    1  0.8551154E-009  0.1730428E+03  0.7561462E-02  0.1075414E+00
         22   -1    0    0    0    0  0.00000000000E+00  0.00000000000E+00  0.63484193243E+03  0.63484193243E+03  0.00000000000E+00 0. -1.
         22   -1    0    0    0    0 -0.00000000000E+00 -0.00000000000E+00 -0.36709806218E+03  0.36709806218E+03  0.00000000000E+00 0. -1.
         24    2    1    2    0    0 -0.11493346738E+03 -0.16774039975E+02 -0.29193594004E+03  0.32386558064E+03  0.78557309618E+02 0.  0.
         25    2    1    2    0    0  0.15878313506E+03  0.85469831656E+02  0.18724192176E+03  0.28848614501E+03  0.12509013750E+03 0.  0.
        -24    2    1    2    0    0 -0.43849667680E+02 -0.68695791680E+02  0.37243788854E+03  0.38958826897E+03  0.80169404067E+02 0.  0.
        -13    1    3    3    0    0 -0.52256566540E+02  0.35826617645E+01 -0.47525017343E+02  0.70726313953E+02  0.00000000000E+00 0.  1.
         14    1    3    3    0    0 -0.62676900836E+02 -0.20356701740E+02 -0.24441092270E+03  0.25313926669E+03  0.00000000000E+00 0. -1.
         11    1    5    5    0    0 -0.49807200960E+02 -0.60667148233E+02  0.17384836958E+03  0.19074725620E+03  0.00000000000E+00 0. -1.
        -12    1    5    5    0    0  0.59575332801E+01 -0.80286434467E+01  0.19858951896E+03  0.19884101277E+03  0.00000000000E+00 0.  1.
          5    1    4    4  501    0  0.80649656998E+01  0.54791088346E+02  0.15003014408E+02  0.57529730359E+02  0.41800000000E+01 0.  1.
         -5    1    4    4    0  501  0.15071816936E+03  0.30678743310E+02  0.17223890735E+03  0.23095641465E+03  0.41800000000E+01 0.  1.
</event>
<event>
11    1  0.8551154E-009  0.1268579E+03  0.7561462E-02  0.1123191E+00
         22   -1    0    0    0    0  0.00000000000E+00  0.00000000000E+00  0.60868677492E+03  0.60868677492E+03  0.00000000000E+00 0. -1.
         22   -1    0    0    0    0 -0.00000000000E+00 -0.00000000000E+00 -0.60251221606E+03  0.60251221606E+03  0.00000000000E+00 0. -1.
        -24    2    1    2    0    0  0.53015761468E+01 -0.19250504244E+02 -0.52235460016E+03  0.52932376203E+03  0.83250394121E+02 0.  0.
         25    2    1    2    0    0 -0.14187900558E+02  0.37396422134E+02 -0.15132893309E+02  0.13220132965E+03  0.12509355775E+03 0.  0.
         24    2    1    2    0    0  0.88863244112E+01 -0.18145917889E+02  0.54366205233E+03  0.54967389930E+03  0.78515777618E+02 0.  0.
        -11    1    5    5    0    0  0.24545337390E+02  0.23560483874E+02  0.17045495061E+03  0.17381731839E+03  0.00000000000E+00 0.  1.
         12    1    5    5    0    0 -0.15659012979E+02 -0.41706401763E+02  0.37320710172E+03  0.37585658091E+03  0.00000000000E+00 0. -1.
         11    1    3    3    0    0  0.20780875138E+02 -0.18948355590E+02 -0.50608186177E+03  0.50686263994E+03  0.00000000000E+00 0. -1.
        -12    1    3    3    0    0 -0.15479298991E+02 -0.30214865417E+00 -0.16272738386E+02  0.22461122093E+02  0.00000000000E+00 0.  1.
          5    1    4    4  501    0 -0.43760510386E+02 -0.54267803547E+00 -0.54415568095E+02  0.69955723282E+02  0.41800000000E+01 0.  1.
         -5    1    4    4    0  501  0.29572609828E+02  0.37939100169E+02  0.39282674786E+02  0.62245606367E+02  0.41800000000E+01 0.  1.
</event>
<event>
11    1  0.8551154E-009  0.1588117E+03  0.7561462E-02  0.1088200E+00
         22   -1    0    0    0    0  0.00000000000E+00  0.00000000000E+00  0.49906561884E+03  0.49906561884E+03  0.00000000000E+00 0.  1.
         22   -1    0    0    0    0 -0.00000000000E+00 -0.00000000000E+00 -0.26843358427E+04  0.26843358427E+04  0.00000000000E+00 0.  1.
         24    2    1    2    0    0  0.60428576242E+01 -0.55731858375E+02 -0.74987998557E+03  0.75633897127E+03  0.81154732065E+02 0.  0.
         25    2    1    2    0    0  0.22847819255E+02  0.14898473241E+03 -0.19180596201E+04  0.19280349990E+04  0.12509107857E+03 0.  0.
        -24    2    1    2    0    0 -0.28890676879E+02 -0.93252874031E+02  0.48266938174E+03  0.49902749129E+03  0.80795638903E+02 0.  0.
        -13    1    3    3    0    0 -0.23057533916E+02 -0.39996984720E+02 -0.63805774774E+03  0.63972579915E+03  0.00000000000E+00 0.  1.
         14    1    3    3    0    0  0.29100391540E+02 -0.15734873655E+02 -0.11182223783E+03  0.11661317211E+03  0.00000000000E+00 0. -1.
         13    1    5    5    0    0 -0.54443216030E+02 -0.39909708179E+02  0.26557529053E+03  0.27402022465E+03  0.00000000000E+00 0. -1.
        -14    1    5    5    0    0  0.25552539150E+02 -0.53343165852E+02  0.21709409121E+03  0.22500726664E+03  0.00000000000E+00 0.  1.
          5    1    4    4  501    0 -0.26125172035E+02 -0.20916285422E+01 -0.11654196094E+03  0.11952573189E+03  0.41800000000E+01 0.  1.
         -5    1    4    4    0  501  0.48972991290E+02  0.15107636095E+03 -0.18015176591E+04  0.18085092671E+04  0.41800000000E+01 0.  1.
</event>
<event>
11    1  0.8551154E-009  0.1660525E+03  0.7561462E-02  0.1081519E+00
         22   -1    0    0    0    0  0.00000000000E+00  0.00000000000E+00  0.13462362235E+04  0.13462362235E+04  0.00000000000E+00 0. -1.
         22   -1    0    0    0    0 -0.00000000000E+00 -0.00000000000E+00 -0.29895240371E+03  0.29895240371E+03  0.00000000000E+00 0. -1.
         24    2    1    2    0    0  0.67057867820E+02 -0.86921646974E+02 -0.24236876926E+03  0.27812679879E+03  0.80992379529E+02 0.  0.
         25    2    1    2    0    0 -0.78048539041E+02  0.70024559890E+02  0.14491228317E+03  0.21827458735E+03  0.12509681144E+03 0.  0.
        -24    2    1    2    0    0  0.10990671221E+02  0.16897087084E+02  0.11447403059E+04  0.11487872411E+04  0.94209611725E+02 0.  0.
        -13    1    3    3    0    0  0.24075613205E+02 -0.53586003816E+02 -0.46724686157E+02  0.75061916127E+02  0.00000000000E+00 0.  1.
         14    1    3    3    0    0  0.42982254615E+02 -0.33335643158E+02 -0.19564408311E+03  0.20306488266E+03  0.00000000000E+00 0. -1.
         13    1    5    5    0    0  0.38792184400E+02 -0.24243287076E+02  0.62951751919E+03  0.63117737405E+03  0.00000000000E+00 0. -1.
        -14    1    5    5    0    0 -0.27801513178E+02  0.41140374160E+02  0.51522278667E+03  0.51760986701E+03  0.00000000000E+00 0.  1.
          5    1    4    4  501    0  0.29711383158E+02  0.12430564614E+02  0.56547423999E+01  0.32965644805E+02  0.41800000000E+01 0. -1.
         -5    1    4    4    0  501 -0.10775992220E+03  0.57593995276E+02  0.13925754077E+03  0.18530894254E+03  0.41800000000E+01 0. -1.
</event>
<event>
11    1  0.8551154E-009  0.1600090E+03  0.7561462E-02  0.1087069E+00
         22   -1    0    0    0    0  0.00000000000E+00  0.00000000000E+00  0.22707430380E+04  0.22707430380E+04  0.00000000000E+00 0. -1.
         22   -1    0    0    0    0 -0.00000000000E+00 -0.00000000000E+00 -0.19932256417E+04  0.19932256417E+04  0.00000000000E+00 0. -1.
         24    2    1    2    0    0 -0.44967792192E+02 -0.54758804255E+02 -0.18941815938E+04  0.18971155090E+04  0.78119876247E+02 0.  0.
         25    2    1    2    0    0  0.58471874668E+02 -0.45047540635E+02 -0.40551663408E+02  0.15079622058E+03  0.12508725631E+03 0.  0.
        -24    2    1    2    0    0 -0.13504082476E+02  0.99806344890E+02  0.22122506535E+04  0.22160569501E+04  0.81925488953E+02 0.  0.
        -13    1    3    3    0    0 -0.31154424943E+02 -0.20926838764E+02 -0.27812138161E+03  0.28064218087E+03  0.00000000000E+00 0.  1.
         14    1    3    3    0    0 -0.13813367249E+02 -0.33831965491E+02 -0.16160602122E+04  0.16164733281E+04  0.00000000000E+00 0. -1.
         11    1    5    5    0    0 -0.12228058889E+02  0.93434168038E+02  0.22013515796E+04  0.22033674787E+04  0.00000000000E+00 0. -1.
        -12    1    5    5    0    0 -0.12760235871E+01  0.63721768521E+01  0.10899073849E+02  0.12689471415E+02  0.00000000000E+00 0.  1.
          5    1    4    4  501    0 -0.12320474233E+02 -0.84170065371E+01 -0.65391907400E+02  0.67202782961E+02  0.41800000000E+01 0.  1.
         -5    1    4    4    0  501  0.70792348901E+02 -0.36630534098E+02  0.24840243992E+02  0.83593437618E+02  0.41800000000E+01 0.  1.
</event>
<event>
11    1  0.8551154E-009  0.1471894E+03  0.7561462E-02  0.1099786E+00
         22   -1    0    0    0    0  0.00000000000E+00  0.00000000000E+00  0.72490216853E+03  0.72490216853E+03  0.00000000000E+00 0.  1.
         22   -1    0    0    0    0 -0.00000000000E+00 -0.00000000000E+00 -0.12209106360E+04  0.12209106360E+04  0.00000000000E+00 0.  1.
        -24    2    1    2    0    0 -0.72857856733E+02  0.34413506057E+02 -0.11348694245E+04  0.11404942027E+04  0.79409439643E+02 0.  0.
         25    2    1    2    0    0  0.27623488225E+02  0.66436712799E+01 -0.27641200202E+02  0.13121951561E+03  0.12508928754E+03 0.  0.
         24    2    1    2    0    0  0.45234368509E+02 -0.41057177336E+02  0.66650215718E+03  0.67409908625E+03  0.80328156014E+02 0.  0.
        -13    1    5    5    0    0  0.40414284288E+02 -0.22418484567E+01  0.54401039079E+03  0.54551411123E+03  0.00000000000E+00 0.  1.
         14    1    5    5    0    0  0.48200842207E+01 -0.38815328880E+02  0.12249176639E+03  0.12858497502E+03  0.00000000000E+00 0. -1.
         13    1    3    3    0    0  0.15486035354E+02  0.89219123855E+01 -0.10326714769E+03  0.10480229770E+03  0.00000000000E+00 0. -1.
        -14    1    3    3    0    0 -0.88343892087E+02  0.25491593671E+02 -0.10316022768E+04  0.10356919050E+04  0.00000000000E+00 0.  1.
          5    1    4    4  501    0  0.49367079866E+02  0.21858684124E+02  0.34026070099E+02  0.63954331304E+02  0.41800000000E+01 0.  1.
         -5    1    4    4    0  501 -0.21743591641E+02 -0.15215012844E+02 -0.61667270301E+02  0.67265184305E+02  0.41800000000E+01 0.  1.
</event>
<event>
11    1  0.8551154E-009  0.5946687E+03  0.7561462E-02  0.9203775E-01
         22   -1    0    0    0    0  0.00000000000E+00  0.00000000000E+00  0.15123019334E+04  0.15123019334E+04  0.00000000000E+00 0. -1.
         22   -1    0    0    0    0 -0.00000000000E+00 -0.00000000000E+00 -0.13638102623E+04  0.13638102623E+04  0.00000000000E+00 0. -1.
        -24    2    1    2    0    0  0.43191543226E+03  0.34401341836E+03 -0.87183269973E+03  0.10351356513E+04  0.80730338707E+02 0.  0.
         25    2    1    2    0    0 -0.48029318922E+03 -0.86723762594E+03  0.70393542652E+03  0.12222746254E+04  0.12509007883E+03 0.  0.
         24    2    1    2    0    0  0.48377756954E+02  0.52322420758E+03  0.31638894433E+03  0.61870191906E+03  0.81154924648E+02 0.  0.
        -13    1    5    5    0    0  0.56118800706E+02  0.51500107290E+03  0.29952819518E+03  0.59840835939E+03  0.00000000000E+00 0.  1.
         14    1    5    5    0    0 -0.77410437526E+01  0.82231346829E+01  0.16860749154E+02  0.20293559679E+02  0.00000000000E+00 0. -1.
         11    1    3    3    0    0  0.27040759106E+03  0.16829115194E+03 -0.46950242114E+03  0.56734002201E+03  0.00000000000E+00 0. -1.
        -12    1    3    3    0    0  0.16150784121E+03  0.17572226643E+03 -0.40233027859E+03  0.46779562927E+03  0.00000000000E+00 0.  1.
          5    1    4    4  501    0 -0.87480335022E+02 -0.17003581602E+03  0.79097454662E+02  0.20697552386E+03  0.41800000000E+01 0.  1.
         -5    1    4    4    0  501 -0.39281285420E+03 -0.69720180992E+03  0.62483797185E+03  0.10152991016E+04  0.41800000000E+01 0.  1.
</event>
<event>
11    1  0.8551154E-009  0.2929359E+03  0.7561462E-02  0.1003226E+00
         22   -1    0    0    0    0  0.00000000000E+00  0.00000000000E+00  0.19962446418E+03  0.19962446418E+03  0.00000000000E+00 0. -1.
         22   -1    0    0    0    0 -0.00000000000E+00 -0.00000000000E+00 -0.16219410198E+04  0.16219410198E+04  0.00000000000E+00 0. -1.
         24    2    1    2    0    0  0.62639912343E+01  0.43857905515E+02 -0.87102088889E+03  0.87687274770E+03  0.90915748525E+02 0.  0.
         25    2    1    2    0    0 -0.11514248165E+03  0.20412506933E+03 -0.60122094894E+03  0.65729727831E+03  0.12509295594E+03 0.  0.
        -24    2    1    2    0    0  0.10887849041E+03 -0.24798297484E+03  0.49925282251E+02  0.28739545792E+03  0.82179887677E+02 0.  0.
        -11    1    3    3    0    0  0.11092095096E+02  0.59543741501E+02 -0.32441841087E+03  0.33002393403E+03  0.00000000000E+00 0.  1.
         12    1    3    3    0    0 -0.48281038619E+01 -0.15685835985E+02 -0.54660247802E+03  0.54684881367E+03  0.00000000000E+00 0. -1.
         11    1    5    5    0    0  0.73071509783E+02 -0.22197364119E+03  0.61503997586E+02  0.24164950785E+03  0.00000000000E+00 0. -1.
        -12    1    5    5    0    0  0.35806980628E+02 -0.26009333648E+02 -0.11578715335E+02  0.45745950065E+02  0.00000000000E+00 0.  1.
          5    1    4    4  501    0 -0.13639147812E+03  0.14134622782E+03 -0.40488355478E+03  0.45003283964E+03  0.41800000000E+01 0. -1.
         -5    1    4    4    0  501  0.21248996477E+02  0.62778841509E+02 -0.19633739416E+03  0.20726443867E+03  0.41800000000E+01 0. -1.
</event>
<event>
11    1  0.8551154E-009  0.1583702E+03  0.7561462E-02  0.1088620E+00
         22   -1    0    0    0    0  0.00000000000E+00  0.00000000000E+00  0.38109311756E+03  0.38109311756E+03  0.00000000000E+00 0.  1.
         22   -1    0    0    0    0 -0.00000000000E+00 -0.00000000000E+00 -0.13734855890E+04  0.13734855890E+04  0.00000000000E+00 0. -1.
        -24    2    1    2    0    0 -0.25344350386E+02  0.37977122217E+01 -0.13051641581E+04  0.13078338925E+04  0.79493722297E+02 0.  0.
         25    2    1    2    0    0 -0.49683807196E+02  0.65201633217E+02  0.56537402069E+02  0.15988163886E+03  0.12508367975E+03 0.  0.
         24    2    1    2    0    0  0.75028157583E+02 -0.68999345439E+02  0.25623428463E+03  0.28686317524E+03  0.79021127460E+02 0.  0.
        -13    1    5    5    0    0  0.54282650004E+02 -0.85571142135E+02  0.21691572137E+03  0.23941899806E+03  0.00000000000E+00 0.  1.
         14    1    5    5    0    0  0.20745507579E+02  0.16571796696E+02  0.39318563267E+02  0.47444177175E+02  0.00000000000E+00 0. -1.
         13    1    3    3    0    0 -0.47478507542E+02 -0.92749473611E+01 -0.11003412088E+04  0.11014041080E+04  0.00000000000E+00 0. -1.
        -14    1    3    3    0    0  0.22134157156E+02  0.13072659583E+02 -0.20482294935E+03  0.20642978448E+03  0.00000000000E+00 0.  1.
          5    1    4    4  501    0  0.29811009404E+02  0.62206337698E+02  0.18132841558E+02  0.71446462995E+02  0.41800000000E+01 0.  1.
         -5    1    4    4    0  501 -0.79494816600E+02  0.29952955186E+01  0.38404560511E+02  0.88435175861E+02  0.41800000000E+01 0.  1.
</event>
<event>
11    1  0.8551154E-009  0.1603295E+03  0.7561462E-02  0.1086768E+00
         22   -1    0    0    0    0  0.00000000000E+00  0.00000000000E+00  0.32906590721E+03  0.32906590721E+03  0.00000000000E+00 0.  1.
         22   -1    0    0    0    0 -0.00000000000E+00 -0.00000000000E+00 -0.25329667817E+03  0.25329667817E+03  0.00000000000E+00 0. -1.
        -24    2    1    2    0    0 -0.62312459534E+02  0.18474907365E+02 -0.15784162734E+03  0.18884404434E+03  0.80770842167E+02 0.  0.
         25    2    1    2    0    0 -0.36731760159E+02 -0.71071721047E+02  0.36544025535E+02  0.15291675785E+03  0.12509059634E+03 0.  0.
         24    2    1    2    0    0  0.99044219693E+02  0.52596813683E+02  0.19706683084E+03  0.24060178320E+03  0.80484159904E+02 0.  0.
        -11    1    5    5    0    0  0.82269848186E+02  0.11367261082E+02  0.16809402904E+03  0.18749172020E+03  0.00000000000E+00 0.  1.
         12    1    5    5    0    0  0.16774371507E+02  0.41229552600E+02  0.28972801799E+02  0.53110062993E+02  0.00000000000E+00 0. -1.
         13    1    3    3    0    0 -0.67292386514E+02  0.30469416017E+02 -0.15947699207E+03  0.17575426480E+03  0.00000000000E+00 0. -1.
        -14    1    3    3    0    0  0.49799269805E+01 -0.11994508652E+02  0.16353647294E+01  0.13089779538E+02  0.00000000000E+00 0.  1.
          5    1    4    4  501    0 -0.20083579670E+02  0.26806176367E+02 -0.19346382515E+02  0.38905991572E+02  0.41800000000E+01 0.  1.
         -5    1    4    4    0  501 -0.16648180490E+02 -0.97877897414E+02  0.55890408050E+02  0.11401076628E+03  0.41800000000E+01 0.  1.
</event>
<event>
11    1  0.8551154E-009  0.1522946E+03  0.7561462E-02  0.1094557E+00
         22   -1    0    0    0    0  0.00000000000E+00  0.00000000000E+00  0.10218949560E+04  0.10218949560E+04  0.00000000000E+00 0.  1.
         22   -1    0    0    0    0 -0.00000000000E+00 -0.00000000000E+00 -0.54916843410E+03  0.54916843410E+03  0.00000000000E+00 0. -1.
        -24    2    1    2    0    0  0.42265735716E+02 -0.36128984256E+02 -0.35142276611E+03  0.36477069372E+03  0.80423892833E+02 0.  0.
         25    2    1    2    0    0 -0.12736166741E+03  0.22725463591E+02 -0.14428470661E+03  0.23067301341E+03  0.12511803041E+03 0.  0.
         24    2    1    2    0    0  0.85095931692E+02  0.13403520665E+02  0.96843399458E+03  0.97561968293E+03  0.80922134910E+02 0.  0.
        -11    1    5    5    0    0  0.24648180010E+02 -0.43843145119E+01  0.67649804203E+03  0.67696111842E+03  0.00000000000E+00 0.  1.
         12    1    5    5    0    0  0.60447751682E+02  0.17787835177E+02  0.29193595255E+03  0.29865856451E+03  0.00000000000E+00 0. -1.
         13    1    3    3    0    0  0.55048961053E+02 -0.50648410253E+02 -0.23116349766E+03  0.24296545480E+03  0.00000000000E+00 0. -1.
        -14    1    3    3    0    0 -0.12783225337E+02  0.14519425997E+02 -0.12025926845E+03  0.12180523892E+03  0.00000000000E+00 0.  1.
          5    1    4    4  501    0 -0.13336592755E+03  0.32791350925E+02 -0.15982261856E+03  0.21076642315E+03  0.41800000000E+01 0.  1.
         -5    1    4    4    0  501  0.60042601396E+01 -0.10065887335E+02  0.15537911954E+02  0.19906590254E+02  0.41800000000E+01 0.  1.
</event>
<event>
11    1  0.8551154E-009  0.1557155E+03  0.7561462E-02  0.1091178E+00
         22   -1    0    0    0    0  0.00000000000E+00  0.00000000000E+00  0.85013607001E+03  0.85013607001E+03  0.00000000000E+00 0.  1.
         22   -1    0    0    0    0 -0.00000000000E+00 -0.00000000000E+00 -0.20809301846E+03  0.20809301846E+03  0.00000000000E+00 0.  1.
         24    2    1    2    0    0 -0.80879984103E+02  0.11068224064E+02 -0.84901213010E+02  0.14194660432E+03  0.79224649536E+02 0.  0.
         25    2    1    2    0    0  0.12780333061E+03  0.38515826287E+01 -0.44267274708E+01  0.17892894601E+03  0.12508975098E+03 0.  0.
        -24    2    1    2    0    0 -0.46923346510E+02 -0.14919806693E+02  0.73137099203E+03  0.73735353815E+03  0.79764096919E+02 0.  0.
        -11    1    3    3    0    0 -0.43326304704E+02 -0.33645594454E+02 -0.47839742834E+02  0.72786232900E+02  0.00000000000E+00 0.  1.
         12    1    3    3    0    0 -0.37553679399E+02  0.44713818518E+02 -0.37061470177E+02  0.69160371417E+02  0.00000000000E+00 0. -1.
         13    1    5    5    0    0 -0.11033526875E+02  0.26784225517E+02  0.43188023467E+03  0.43285063307E+03  0.00000000000E+00 0. -1.
        -14    1    5    5    0    0 -0.35889819635E+02 -0.41704032210E+02  0.29949075736E+03  0.30450290507E+03  0.00000000000E+00 0.  1.
          5    1    4    4  501    0  0.46578365423E+02 -0.59293226233E+02 -0.77148888365E+01  0.75909305835E+02  0.41800000000E+01 0.  1.
         -5    1    4    4    0  501  0.81224965190E+02  0.63144808862E+02  0.32881613657E+01  0.10301964017E+03  0.41800000000E+01 0.  1.
</event>
<event>
11    1  0.8551154E-009  0.1335685E+03  0.7561462E-02  0.1114961E+00
         22   -1    0    0    0    0  0.00000000000E+00  0.00000000000E+00  0.18767411862E+04  0.18767411862E+04  0.00000000000E+00 0.  1.
         22   -1    0    0    0    0 -0.00000000000E+00 -0.00000000000E+00 -0.45650777755E+03  0.45650777755E+03  0.00000000000E+00 0. -1.
        -24    2    1    2    0    0  0.28410193057E+02 -0.30822191802E+02 -0.43935931235E+03  0.44836820496E+03  0.78995539719E+02 0.  0.
         25    2    1    2    0    0 -0.71348253968E+02  0.20010066524E+02  0.46229686818E+03  0.48462082527E+03  0.12509186166E+03 0.  0.
         24    2    1    2    0    0  0.42938060911E+02  0.10812125277E+02  0.13972958528E+04  0.14002599336E+04  0.79571364254E+02 0.  0.
        -13    1    5    5    0    0  0.31713847333E+02  0.42704925851E+02  0.63878184203E+03  0.64099276167E+03  0.00000000000E+00 0.  1.
         14    1    5    5    0    0  0.11224213578E+02 -0.31892800574E+02  0.75851401081E+03  0.75926717188E+03  0.00000000000E+00 0. -1.
         13    1    3    3    0    0  0.47922948588E+02  0.97815064223E+00 -0.31185881763E+03  0.31552097857E+03  0.00000000000E+00 0. -1.
        -14    1    3    3    0    0 -0.19512755532E+02 -0.31800342444E+02 -0.12750049471E+03  0.13284722639E+03  0.00000000000E+00 0.  1.
          5    1    4    4  501    0 -0.28040157713E+01 -0.34546133116E+02  0.39040165612E+02  0.52372748149E+02  0.41800000000E+01 0. -1.
         -5    1    4    4    0  501 -0.68544238196E+02  0.54556199641E+02  0.42325670257E+03  0.43224807713E+03  0.41800000000E+01 0. -1.
</event>
<event>
11    1  0.8551154E-009  0.3842976E+03  0.7561462E-02  0.9697259E-01
         22   -1    0    0    0    0  0.00000000000E+00  0.00000000000E+00  0.80390349259E+03  0.80390349259E+03  0.00000000000E+00 0. -1.
         22   -1    0    0    0    0 -0.00000000000E+00 -0.00000000000E+00 -0.30981117454E+03  0.30981117454E+03  0.00000000000E+00 0. -1.
         24    2    1    2    0    0 -0.34148624778E+02 -0.21401144582E+02 -0.23340072675E+02  0.89835102316E+02  0.76820889425E+02 0.  0.
         25    2    1    2    0    0  0.30512274880E+03  0.24909051217E+03  0.27427729732E+02  0.41418055061E+03  0.12508906052E+03 0.  0.
        -24    2    1    2    0    0 -0.27097412402E+03 -0.22768936758E+03  0.49000466100E+03  0.60969901420E+03  0.79742686910E+02 0.  0.
        -11    1    3    3    0    0 -0.57410773012E+02 -0.78258381490E+01 -0.70768238951E+01  0.58372271132E+02  0.00000000000E+00 0.  1.
         12    1    3    3    0    0  0.23262148235E+02 -0.13575306433E+02 -0.16263248780E+02  0.31462831184E+02  0.00000000000E+00 0. -1.
         13    1    5    5    0    0 -0.22930132346E+03 -0.15383368638E+03  0.34718474194E+03  0.44360020857E+03  0.00000000000E+00 0. -1.
        -14    1    5    5    0    0 -0.41672800566E+02 -0.73855681202E+02  0.14281991906E+03  0.16609880563E+03  0.00000000000E+00 0.  1.
          5    1    4    4  501    0  0.24312147614E+03  0.16583243169E+03 -0.29356037778E+02  0.29578319242E+03  0.41800000000E+01 0. -1.
         -5    1    4    4    0  501  0.62001272656E+02  0.83258080472E+02  0.56783767511E+02  0.11839735819E+03  0.41800000000E+01 0. -1.
</event>
<event>
11    1  0.8551154E-009  0.1361839E+03  0.7561462E-02  0.1111896E+00
         22   -1    0    0    0    0  0.00000000000E+00  0.00000000000E+00  0.16509010615E+03  0.16509010615E+03  0.00000000000E+00 0. -1.
         22   -1    0    0    0    0 -0.00000000000E+00 -0.00000000000E+00 -0.17140973618E+04  0.17140973618E+04  0.00000000000E+00 0.  1.
         24    2    1    2    0    0 -0.25580777097E+01 -0.53500668778E+02 -0.15891013385E+04  0.15920513845E+04  0.80719770907E+02 0.  0.
         25    2    1    2    0    0  0.50118939999E+01  0.62531953265E+02 -0.58600543888E+02  0.15171171784E+03  0.12508819818E+03 0.  0.
        -24    2    1    2    0    0 -0.24538162902E+01 -0.90312844870E+01  0.98694626781E+02  0.13542436561E+03  0.92258030178E+02 0.  0.
        -11    1    3    3    0    0 -0.25167007942E+02 -0.62355348607E+02 -0.13612811279E+04  0.13629408927E+04  0.00000000000E+00 0.  1.
         12    1    3    3    0    0  0.22608930233E+02  0.88546798290E+01 -0.22782021057E+03  0.22911049174E+03  0.00000000000E+00 0. -1.
         13    1    5    5    0    0  0.28358626588E+01 -0.22221782573E+02  0.11303579884E+03  0.11523428985E+03  0.00000000000E+00 0. -1.
        -14    1    5    5    0    0 -0.52896789490E+01  0.13190498086E+02 -0.14341172062E+02  0.20190075761E+02  0.00000000000E+00 0.  1.
          5    1    4    4  501    0  0.27838102018E+02 -0.31085415007E+02 -0.76453075821E+01  0.42628465585E+02  0.41800000000E+01 0.  1.
         -5    1    4    4    0  501 -0.22826208018E+02  0.93617368273E+02 -0.50955236306E+02  0.10908325225E+03  0.41800000000E+01 0.  1.
</event>
<event>
11    1  0.8551154E-009  0.2452031E+03  0.7561462E-02  0.1026486E+00
         22   -1    0    0    0    0  0.00000000000E+00  0.00000000000E+00  0.82394633546E+03  0.82394633546E+03  0.00000000000E+00 0. -1.
         22   -1    0    0    0    0 -0.00000000000E+00 -0.00000000000E+00 -0.67745286446E+03  0.67745286446E+03  0.00000000000E+00 0.  1.
        -24    2    1    2    0    0 -0.23039171217E+03 -0.44088764273E+02 -0.60817671390E+03  0.65701584774E+03  0.82260249743E+02 0.  0.
         25    2    1    2    0    0  0.97650171107E+02 -0.14317982777E+02  0.15487863718E+03  0.22220809033E+03  0.12509389516E+03 0.  0.
         24    2    1    2    0    0  0.13274154106E+03  0.58406747050E+02  0.59979154772E+03  0.62217526184E+03  0.79501515122E+02 0.  0.
        -13    1    5    5    0    0  0.21042642588E+02 -0.19905583259E+02  0.10377448009E+03  0.10774120739E+03  0.00000000000E+00 0.  1.
         14    1    5    5    0    0  0.11169889847E+03  0.78312330309E+02  0.49601706763E+03  0.51443405445E+03  0.00000000000E+00 0. -1.
         11    1    3    3    0    0 -0.95999731542E+02 -0.21616429311E+02 -0.15326168235E+03  0.18213281348E+03  0.00000000000E+00 0. -1.
        -12    1    3    3    0    0 -0.13439198063E+03 -0.22472334963E+02 -0.45491503155E+03  0.47488303426E+03  0.00000000000E+00 0.  1.
          5    1    4    4  501    0  0.57926695964E+02 -0.67064977398E+02  0.62257386596E+02  0.10838204595E+03  0.41800000000E+01 0. -1.
         -5    1    4    4    0  501  0.39723475143E+02  0.52746994622E+02  0.92621250586E+02  0.11382604438E+03  0.41800000000E+01 0. -1.
</event>
<event>
11    1  0.8551154E-009  0.1457271E+03  0.7561462E-02  0.1101327E+00
         22   -1    0    0    0    0  0.00000000000E+00  0.00000000000E+00  0.20529159585E+03  0.20529159585E+03  0.00000000000E+00 0. -1.
         22   -1    0    0    0    0 -0.00000000000E+00 -0.00000000000E+00 -0.14266257256E+04  0.14266257256E+04  0.00000000000E+00 0.  1.
         24    2    1    2    0    0 -0.29857559141E+02  0.67557384022E+02 -0.11861191334E+04  0.11911789765E+04  0.81075776923E+02 0.  0.
         25    2    1    2    0    0  0.67612592152E+02 -0.61267248903E+02 -0.19924732807E+03  0.25233354391E+03  0.12509029232E+03 0.  0.
        -24    2    1    2    0    0 -0.37755033011E+02 -0.62901351185E+01  0.16403233169E+03  0.18840480103E+03  0.84408263186E+02 0.  0.
        -13    1    3    3    0    0 -0.16071807900E+02  0.25998076476E+02 -0.97924179566E+03  0.97971868276E+03  0.00000000000E+00 0.  1.
         14    1    3    3    0    0 -0.13785751242E+02  0.41559307546E+02 -0.20687733771E+03  0.21146029377E+03  0.00000000000E+00 0. -1.
         11    1    5    5    0    0  0.12079859399E+02  0.37989432518E+01  0.12137836795E+03  0.12203713852E+03  0.00000000000E+00 0. -1.
        -12    1    5    5    0    0 -0.49834892410E+02 -0.10089078370E+02  0.42653963740E+02  0.66367662506E+02  0.00000000000E+00 0.  1.
          5    1    4    4  501    0  0.59390353755E+02  0.32811169245E+01 -0.17132063120E+03  0.18140069162E+03  0.41800000000E+01 0. -1.
         -5    1    4    4    0  501  0.82222383970E+01 -0.64548365828E+02 -0.27926696878E+02  0.70932852289E+02  0.41800000000E+01 0. -1.
</event>
<event>
11    1  0.8551154E-009  0.1407996E+03  0.7561462E-02  0.1106669E+00
         22   -1    0    0    0    0  0.00000000000E+00  0.00000000000E+00  0.54491855145E+03  0.54491855145E+03  0.00000000000E+00 0. -1.
         22   -1    0    0    0    0 -0.00000000000E+00 -0.00000000000E+00 -0.45541938170E+03  0.45541938170E+03  0.00000000000E+00 0.  1.
        -24    2    1    2    0    0 -0.43262112148E+02  0.21409512587E+02 -0.37867976987E+03  0.38998460476E+03  0.79747390354E+02 0.  0.
         25    2    1    2    0    0  0.29568016675E+01  0.32937008725E+02 -0.26675049523E+01  0.12941470163E+03  0.12508980852E+03 0.  0.
         24    2    1    2    0    0  0.40305310481E+02 -0.54346521312E+02  0.47084644457E+03  0.48093862675E+03  0.70905048527E+02 0.  0.
        -13    1    5    5    0    0 -0.16715031237E+02  0.10093790866E+01  0.12267759242E+03  0.12381519615E+03  0.00000000000E+00 0.  1.
         14    1    5    5    0    0  0.57020341718E+02 -0.55355900398E+02  0.34816885214E+03  0.35712343060E+03  0.00000000000E+00 0. -1.
         11    1    3    3    0    0 -0.11871362796E+02 -0.30338504493E+02 -0.12340778905E+03  0.12763556129E+03  0.00000000000E+00 0. -1.
        -12    1    3    3    0    0 -0.31390749352E+02  0.51748017080E+02 -0.25527198082E+03  0.26234904347E+03  0.00000000000E+00 0.  1.
          5    1    4    4  501    0  0.60218295550E+01 -0.31994747869E+02  0.39850374664E+02  0.51628006772E+02  0.41800000000E+01 0.  1.
         -5    1    4    4    0  501 -0.30650278875E+01  0.64931756594E+02 -0.42517879616E+02  0.77786694861E+02  0.41800000000E+01 0.  1.
</event>
<event>
11    1  0.8551154E-009  0.2144130E+03  0.7561462E-02  0.1044775E+00
         22   -1    0    0    0    0  0.00000000000E+00  0.00000000000E+00  0.22245265329E+04  0.22245265329E+04  0.00000000000E+00 0.  1.
         22   -1    0    0    0    0 -0.00000000000E+00 -0.00000000000E+00 -0.14327709678E+03  0.14327709678E+03  0.00000000000E+00 0.  1.
        -24    2    1    2    0    0  0.58363819919E+02 -0.16571620362E+03 -0.27637416763E+02  0.19495460601E+03  0.79845325351E+02 0.  0.
         25    2    1    2    0    0 -0.76799665108E+02  0.15030474052E+03  0.32408917856E+03  0.38622633323E+03  0.12508909319E+03 0.  0.
         24    2    1    2    0    0  0.18435845189E+02  0.15411463100E+02  0.17847976744E+04  0.17866226905E+04  0.77074679120E+02 0.  0.
        -13    1    5    5    0    0  0.22472209508E+02  0.39071055649E+02  0.64526586083E+03  0.64683813953E+03  0.00000000000E+00 0.  1.
         14    1    5    5    0    0 -0.40363643186E+01 -0.23659592548E+02  0.11395318135E+04  0.11397845510E+04  0.00000000000E+00 0. -1.
         13    1    3    3    0    0 -0.29895803025E+01 -0.14866411399E+02 -0.28296928411E+02  0.32103955142E+02  0.00000000000E+00 0. -1.
        -14    1    3    3    0    0  0.61353400222E+02 -0.15084979222E+03  0.65951164732E+00  0.16285065086E+03  0.00000000000E+00 0.  1.
          5    1    4    4  501    0 -0.90400638598E+02  0.10690232932E+03  0.14578971557E+03  0.20216947604E+03  0.41800000000E+01 0.  1.
         -5    1    4    4    0  501  0.13600973490E+02  0.43402411195E+02  0.17829946299E+03  0.18405685719E+03  0.41800000000E+01 0.  1.
</event>
<event>
11    1  0.8551154E-009  0.1335441E+03  0.7561462E-02  0.1114989E+00
         22   -1    0    0    0    0  0.00000000000E+00  0.00000000000E+00  0.12015151260E+04  0.12015151260E+04  0.00000000000E+00 0.  1.
         22   -1    0    0    0    0 -0.00000000000E+00 -0.00000000000E+00 -0.54709770079E+03  0.54709770079E+03  0.00000000000E+00 0. -1.
        -24    2    1    2    0    0  0.44899959120E+02 -0.12958917575E+02 -0.48216169786E+03  0.49116330883E+03  0.81102115812E+02 0.  0.
         25    2    1    2    0    0 -0.39185331646E+02  0.34018740375E+02  0.19020409835E+02  0.13675318289E+03  0.12508753786E+03 0.  0.
         24    2    1    2    0    0 -0.57146274744E+01 -0.21059822800E+02  0.11175587132E+04  0.11206963351E+04  0.80911215552E+02 0.  0.
        -11    1    5    5    0    0  0.31256159571E+01 -0.46386011355E+02  0.93733362642E+03  0.93848588628E+03  0.00000000000E+00 0.  1.
         12    1    5    5    0    0 -0.88402434315E+01  0.25326188555E+02  0.18022508681E+03  0.18221044879E+03  0.00000000000E+00 0. -1.
         13    1    3    3    0    0  0.45372097553E+02  0.75647011409E+01 -0.45394111923E+03  0.45626570293E+03  0.00000000000E+00 0. -1.
        -14    1    3    3    0    0 -0.47213843238E+00 -0.20523618715E+02 -0.28220578626E+02  0.34897605904E+02  0.00000000000E+00 0.  1.
          5    1    4    4  501    0 -0.64054538671E+02 -0.24506742907E+01 -0.29791428846E+02  0.70809542871E+02  0.41800000000E+01 0.  1.
         -5    1    4    4    0  501  0.24869207025E+02  0.36469414666E+02  0.48811838682E+02  0.65943640024E+02  0.41800000000E+01 0.  1.
</event>
<event>
11    1  0.8551154E-009  0.1694461E+03  0.7561462E-02  0.1078515E+00
         22   -1    0    0    0    0  0.00000000000E+00  0.00000000000E+00  0.40835956491E+03  0.40835956491E+03  0.00000000000E+00 0.  1.
         22   -1    0    0    0    0 -0.00000000000E+00 -0.00000000000E+00 -0.16375955122E+04  0.16375955122E+04  0.00000000000E+00 0.  1.
        -24    2    1    2    0    0  0.19394019681E+02 -0.11116974730E+03 -0.10194580234E+04  0.10283906108E+04  0.74550292718E+02 0.  0.
         25    2    1    2    0    0 -0.54283584485E+02  0.10928126584E+03 -0.59620960005E+03  0.62129124333E+03  0.12509124362E+03 0.  0.
         24    2    1    2    0    0  0.34889564805E+02  0.18884814606E+01  0.38643167620E+03  0.39627322296E+03  0.80511979006E+02 0.  0.
        -13    1    5    5    0    0 -0.10995845148E+02 -0.21903586522E+02  0.23477153518E+03  0.23604734577E+03  0.00000000000E+00 0.  1.
         14    1    5    5    0    0  0.45885409953E+02  0.23792067982E+02  0.15166014102E+03  0.16022587719E+03  0.00000000000E+00 0. -1.
         11    1    3    3    0    0 -0.26905292735E+02 -0.52534726541E+02 -0.37502363213E+03  0.37963998331E+03  0.00000000000E+00 0. -1.
        -12    1    3    3    0    0  0.46299312416E+02 -0.58635020763E+02 -0.64443439131E+03  0.64875062751E+03  0.00000000000E+00 0.  1.
          5    1    4    4  501    0 -0.25753524650E+02 -0.21321973330E+02 -0.20742502185E+03  0.21014395701E+03  0.41800000000E+01 0. -1.
         -5    1    4    4    0  501 -0.28530059835E+02  0.13060323917E+03 -0.38878457820E+03  0.41114728631E+03  0.41800000000E+01 0. -1.
</event>
<event>
11    1  0.8551154E-009  0.1320338E+03  0.7561462E-02  0.1116795E+00
         22   -1    0    0    0    0  0.00000000000E+00  0.00000000000E+00  0.24094253567E+04  0.24094253567E+04  0.00000000000E+00 0. -1.
         22   -1    0    0    0    0 -0.00000000000E+00 -0.00000000000E+00 -0.14695440470E+03  0.14695440470E+03  0.00000000000E+00 0.  1.
         24    2    1    2    0    0 -0.67155065448E+02  0.59027818169E+01 -0.11643485848E+03  0.15636093402E+03  0.79668185425E+02 0.  0.
         25    2    1    2    0    0  0.97386788269E+02  0.30104288119E+01  0.70699813571E+03  0.72455841961E+03  0.12508113498E+03 0.  0.
        -24    2    1    2    0    0 -0.30231722821E+02 -0.89132106288E+01  0.16719076748E+04  0.16754604078E+04  0.10439780957E+03 0.  0.
        -11    1    3    3    0    0 -0.51266634626E+02  0.26566469244E+02 -0.28014048504E+02  0.64178127329E+02  0.00000000000E+00 0.  1.
         12    1    3    3    0    0 -0.15888430822E+02 -0.20663687427E+02 -0.88420809974E+02  0.92182806686E+02  0.00000000000E+00 0. -1.
         11    1    5    5    0    0 -0.44840693301E+02 -0.20079725761E+02  0.16130330514E+04  0.16137811215E+04  0.00000000000E+00 0. -1.
        -12    1    5    5    0    0  0.14608970481E+02  0.11166515132E+02  0.58874623382E+02  0.61679286289E+02  0.00000000000E+00 0.  1.
          5    1    4    4  501    0  0.11014428721E+03  0.21935295601E+02  0.36827226840E+03  0.38503877373E+03  0.41800000000E+01 0. -1.
         -5    1    4    4    0  501 -0.12757498941E+02 -0.18924866789E+02  0.33872586730E+03  0.33951964589E+03  0.41800000000E+01 0. -1.
</event>
<event>
11    1  0.8551154E-009  0.1438017E+03  0.7561462E-02  0.1103386E+00
         22   -1    0    0    0    0  0.00000000000E+00  0.00000000000E+00  0.69769667201E+03  0.69769667201E+03  0.00000000000E+00 0.  1.
         22   -1    0    0    0    0 -0.00000000000E+00 -0.00000000000E+00 -0.78780732662E+03  0.78780732662E+03  0.00000000000E+00 0. -1.
         24    2    1    2    0    0 -0.53427147975E+02  0.45621486614E+02 -0.62562488294E+03  0.63488206495E+03  0.82054628562E+02 0.  0.
         25    2    1    2    0    0  0.69654601760E+02 -0.35202188399E+02 -0.11978692056E+03  0.18996494318E+03  0.12508723231E+03 0.  0.
        -24    2    1    2    0    0 -0.16227453784E+02 -0.10419298216E+02  0.65530114889E+03  0.66065699050E+03  0.81707841284E+02 0.  0.
        -13    1    3    3    0    0 -0.12504342226E+02  0.78786364540E+01 -0.12852881832E+02  0.19586425357E+02  0.00000000000E+00 0.  1.
         14    1    3    3    0    0 -0.40922805749E+02  0.37742850160E+02 -0.61277200111E+03  0.61529563960E+03  0.00000000000E+00 0. -1.
         11    1    5    5    0    0 -0.22816016754E+02  0.25414008429E+02  0.14140875520E+03  0.14547466616E+03  0.00000000000E+00 0. -1.
        -12    1    5    5    0    0  0.65885629699E+01 -0.35833306645E+02  0.51389239369E+03  0.51518232434E+03  0.00000000000E+00 0.  1.
          5    1    4    4  501    0 -0.76385305706E+01 -0.46836464404E+02 -0.92971170898E+00  0.47648067233E+02  0.41800000000E+01 0. -1.
         -5    1    4    4    0  501  0.77293132330E+02  0.11634276006E+02 -0.11885720885E+03  0.14231687595E+03  0.41800000000E+01 0. -1.
</event>
<event>
11    1  0.8551154E-009  0.1581334E+03  0.7561462E-02  0.1088846E+00
         22   -1    0    0    0    0  0.00000000000E+00  0.00000000000E+00  0.32463323355E+04  0.32463323355E+04  0.00000000000E+00 0. -1.
         22   -1    0    0    0    0 -0.00000000000E+00 -0.00000000000E+00 -0.14204673793E+04  0.14204673793E+04  0.00000000000E+00 0.  1.
        -24    2    1    2    0    0 -0.76663942124E+02  0.61734957830E+02 -0.13392728650E+04  0.13453402572E+04  0.81240603903E+02 0.  0.
         25    2    1    2    0    0  0.56780610754E+02 -0.27631892065E+02 -0.14240212352E+02  0.14084277846E+03  0.12508535238E+03 0.  0.
         24    2    1    2    0    0  0.19883331370E+02 -0.34103065765E+02  0.31793780335E+04  0.31806166792E+04  0.79494741375E+02 0.  0.
        -13    1    5    5    0    0  0.52466431259E+00 -0.34248800049E+02  0.50137629426E+03  0.50254496717E+03  0.00000000000E+00 0.  1.
         14    1    5    5    0    0  0.19358667058E+02  0.14573428409E+00  0.26780017393E+04  0.26780717120E+04  0.00000000000E+00 0. -1.
         11    1    3    3    0    0  0.56620974828E+01 -0.57348337016E+01 -0.17254304975E+02  0.19043600124E+02  0.00000000000E+00 0. -1.
        -12    1    3    3    0    0 -0.82326039606E+02  0.67469791532E+02 -0.13220185600E+04  0.13262966571E+04  0.00000000000E+00 0.  1.
          5    1    4    4  501    0  0.81874293265E+02  0.83425806182E+01 -0.38045049306E+02  0.90762859837E+02  0.41800000000E+01 0. -1.
         -5    1    4    4    0  501 -0.25093682512E+02 -0.35974472683E+02  0.23804836953E+02  0.50079918622E+02  0.41800000000E+01 0. -1.
</event>
<event>
11    1  0.8551154E-009  0.1313745E+03  0.7561462E-02  0.1117592E+00
         22   -1    0    0    0    0  0.00000000000E+00  0.00000000000E+00  0.29551136257E+03  0.29551136257E+03  0.00000000000E+00 0. -1.
         22   -1    0    0    0    0 -0.00000000000E+00 -0.00000000000E+00 -0.18714878541E+04  0.18714878541E+04  0.00000000000E+00 0. -1.
        -24    2    1    2    0    0 -0.15952971682E+02  0.36599405438E+02 -0.17978350176E+04  0.18000095543E+04  0.78928013427E+02 0.  0.
         25    2    1    2    0    0  0.45507706136E+02 -0.40365997531E+02  0.99122844430E+01  0.13944960792E+03  0.12509026617E+03 0.  0.
         24    2    1    2    0    0 -0.29554734455E+02  0.37665920924E+01  0.21194624159E+03  0.22754005448E+03  0.77237280677E+02 0.  0.
        -13    1    5    5    0    0  0.11221171837E+02  0.19509860238E+02  0.15026845974E+03  0.15194459299E+03  0.00000000000E+00 0.  1.
         14    1    5    5    0    0 -0.40775906292E+02 -0.15743268145E+02  0.61677781844E+02  0.75595461497E+02  0.00000000000E+00 0. -1.
         11    1    3    3    0    0  0.70004534645E+01  0.23975189688E+02 -0.16257714306E+04  0.16259632716E+04  0.00000000000E+00 0. -1.
        -12    1    3    3    0    0 -0.22953425146E+02  0.12624215750E+02 -0.17206358697E+03  0.17404628267E+03  0.00000000000E+00 0.  1.
          5    1    4    4  501    0  0.24223066521E+02  0.55953049229E+00  0.63810279168E+02  0.68383434789E+02  0.41800000000E+01 0. -1.
         -5    1    4    4    0  501  0.21284639616E+02 -0.40925528023E+02 -0.53897994725E+02  0.71066173127E+02  0.41800000000E+01 0. -1.
</event>
<event>
11    1  0.8551154E-009  0.1441648E+03  0.7561462E-02  0.1102995E+00
         22   -1    0    0    0    0  0.00000000000E+00  0.00000000000E+00  0.57462284560E+02  0.57462284560E+02  0.00000000000E+00 0.  1.
         22   -1    0    0    0    0 -0.00000000000E+00 -0.00000000000E+00 -0.14305301642E+04  0.14305301642E+04  0.00000000000E+00 0.  1.
        -24    2    1    2    0    0  0.69945975596E+02  0.20230706494E+02 -0.10961470342E+04  0.11013811285E+04  0.78742292607E+02 0.  0.
         25    2    1    2    0    0 -0.60710378932E+02 -0.21219692834E+02 -0.27620398703E+03  0.30995637720E+03  0.12509311670E+03 0.  0.
         24    2    1    2    0    0 -0.92355966635E+01  0.98898633972E+00 -0.71685838655E+00  0.76654943031E+02  0.76086740404E+02 0.  0.
        -11    1    5    5    0    0 -0.32153845424E+02  0.13478914674E+02  0.22688463965E+02  0.41597082992E+02  0.00000000000E+00 0.  1.
         12    1    5    5    0    0  0.22918248761E+02 -0.12489928334E+02 -0.23405322352E+02  0.35057860038E+02  0.00000000000E+00 0. -1.
         13    1    3    3    0    0  0.44589794565E+01 -0.10005996256E+02 -0.19868908429E+02  0.22688675171E+02  0.00000000000E+00 0. -1.
        -14    1    3    3    0    0  0.65486996139E+02  0.30236702750E+02 -0.10762781258E+04  0.10786924534E+04  0.00000000000E+00 0.  1.
          5    1    4    4  501    0 -0.54942874668E+02 -0.49177810272E+02 -0.70046290816E+02  0.10178964465E+03  0.41800000000E+01 0. -1.
         -5    1    4    4    0  501 -0.57675042638E+01  0.27958117439E+02 -0.20615769621E+03  0.20816673256E+03  0.41800000000E+01 0. -1.
</event>
<event>
11    1  0.8551154E-009  0.1348398E+03  0.7561462E-02  0.1113461E+00
         22   -1    0    0    0    0  0.00000000000E+00  0.00000000000E+00  0.18598382271E+03  0.18598382271E+03  0.00000000000E+00 0. -1.
         22   -1    0    0    0    0 -0.00000000000E+00 -0.00000000000E+00 -0.58263776860E+03  0.58263776860E+03  0.00000000000E+00 0. -1.
        -24    2    1    2    0    0  0.21931727594E+02 -0.24143777317E+02 -0.30778655658E+03  0.31941222378E+03  0.78915661503E+02 0.  0.
         25    2    1    2    0    0 -0.65147917835E+02 -0.90930221754E+00 -0.23538671187E+03  0.27440750345E+03  0.12508995081E+03 0.  0.
         24    2    1    2    0    0  0.43216190241E+02  0.25053079535E+02  0.14651932256E+03  0.17480186408E+03  0.81194112531E+02 0.  0.
        -13    1    5    5    0    0 -0.12209311591E+02 -0.14750794206E+02  0.87358762405E+01  0.21046822870E+02  0.00000000000E+00 0.  1.
         14    1    5    5    0    0  0.55425501832E+02  0.39803873741E+02  0.13778344632E+03  0.15375504121E+03  0.00000000000E+00 0. -1.
         13    1    3    3    0    0  0.38107402761E+02 -0.10903193332E+02 -0.28771486500E+03  0.29043225942E+03  0.00000000000E+00 0. -1.
        -14    1    3    3    0    0 -0.16175675167E+02 -0.13240583985E+02 -0.20071691578E+02  0.28979964358E+02  0.00000000000E+00 0.  1.
          5    1    4    4  501    0 -0.80767433715E+02  0.14230771001E+01 -0.66450022542E+02  0.10468276550E+03  0.41800000000E+01 0. -1.
         -5    1    4    4    0  501  0.15619515880E+02 -0.23323793177E+01 -0.16893668933E+03  0.16972473794E+03  0.41800000000E+01 0. -1.
</event>
<event>
11    1  0.8551154E-009  0.1688304E+03  0.7561462E-02  0.1079054E+00
         22   -1    0    0    0    0  0.00000000000E+00  0.00000000000E+00  0.11776457497E+03  0.11776457497E+03  0.00000000000E+00 0.  1.
         22   -1    0    0    0    0 -0.00000000000E+00 -0.00000000000E+00 -0.53294608588E+03  0.53294608588E+03  0.00000000000E+00 0. -1.
        -24    2    1    2    0    0 -0.67442667164E+02 -0.95076785925E+02 -0.38036814176E+03  0.40561987475E+03  0.79116691957E+02 0.  0.
         25    2    1    2    0    0  0.43637012643E+02  0.83019144400E+02  0.49659837869E+01  0.15642326713E+03  0.12508880964E+03 0.  0.
         24    2    1    2    0    0  0.23805654521E+02  0.12057641525E+02 -0.39779352935E+02  0.88667518975E+02  0.74615253768E+02 0.  0.
        -13    1    5    5    0    0 -0.26287221742E+02  0.17438063443E+01 -0.49908549673E+01  0.26813569713E+02  0.00000000000E+00 0.  1.
         14    1    5    5    0    0  0.50092876262E+02  0.10313835181E+02 -0.34788497968E+02  0.61853949261E+02  0.00000000000E+00 0. -1.
         13    1    3    3    0    0 -0.85296082992E+02 -0.71741582670E+02 -0.30508978573E+03  0.32481079695E+03  0.00000000000E+00 0. -1.
        -14    1    3    3    0    0  0.17853415828E+02 -0.23335203255E+02 -0.75278356032E+02  0.80809077798E+02  0.00000000000E+00 0.  1.
          5    1    4    4  501    0  0.67530679727E+02  0.54673753628E+00 -0.12219699818E+02  0.68756709418E+02  0.41800000000E+01 0.  1.
         -5    1    4    4    0  501 -0.23893667084E+02  0.82472406863E+02  0.17185683605E+02  0.87666557714E+02  0.41800000000E+01 0.  1.
</event>
<event>
11    1  0.8551154E-009  0.2500800E+03  0.7561462E-02  0.1023857E+00
         22   -1    0    0    0    0  0.00000000000E+00  0.00000000000E+00  0.14230777080E+04  0.14230777080E+04  0.00000000000E+00 0. -1.
         22   -1    0    0    0    0 -0.00000000000E+00 -0.00000000000E+00 -0.63205178610E+03  0.63205178610E+03  0.00000000000E+00 0. -1.
         24    2    1    2    0    0  0.63488159712E+02  0.12776297064E+02 -0.56033163919E+03  0.56991567874E+03  0.81476099540E+02 0.  0.
         25    2    1    2    0    0 -0.48227762385E+02  0.20601377953E+03  0.21970387138E+03  0.32967445632E+03  0.12509141311E+03 0.  0.
        -24    2    1    2    0    0 -0.15260397327E+02 -0.21879007659E+03  0.11316536897E+04  0.11555393590E+04  0.80803214657E+02 0.  0.
        -11    1    3    3    0    0 -0.44556596244E+01  0.11862197842E+01  0.70202495435E+00  0.46639960443E+01  0.00000000000E+00 0.  1.
         12    1    3    3    0    0  0.67943819336E+02  0.11590077280E+02 -0.56103366415E+03  0.56525168269E+03  0.00000000000E+00 0. -1.
         11    1    5    5    0    0 -0.19675508448E+02 -0.14128282321E+03  0.89972284093E+03  0.91096056570E+03  0.00000000000E+00 0. -1.
        -12    1    5    5    0    0  0.44151111217E+01 -0.77507253379E+02  0.23193084876E+03  0.24457879331E+03  0.00000000000E+00 0.  1.
          5    1    4    4  501    0  0.15516170569E+02 -0.86486554269E+01  0.34594065684E+02  0.39112307147E+02  0.41800000000E+01 0. -1.
         -5    1    4    4    0  501 -0.63743932955E+02  0.21466243495E+03  0.18510980569E+03  0.29056214917E+03  0.41800000000E+01 0. -1.
</event>
<event>
11    1  0.8551154E-009  0.2358369E+03  0.7561462E-02  0.1031727E+00
         22   -1    0    0    0    0  0.00000000000E+00  0.00000000000E+00  0.17733281655E+04  0.17733281655E+04  0.00000000000E+00 0. -1.
         22   -1    0    0    0    0 -0.00000000000E+00 -0.00000000000E+00 -0.23068612086E+03  0.23068612086E+03  0.00000000000E+00 0.  1.
        -24    2    1    2    0    0 -0.14518586375E+03 -0.13469580150E+03  0.12796243620E+02  0.21469311152E+03  0.81899293703E+02 0.  0.
         25    2    1    2    0    0  0.12657111790E+02  0.23800378626E+03  0.22018339186E+02  0.27007227832E+03  0.12509285951E+03 0.  0.
         24    2    1    2    0    0  0.13252875196E+03 -0.10330798476E+03  0.15078274618E+04  0.15192488965E+04  0.79606187705E+02 0.  0.
        -13    1    5    5    0    0  0.99513888569E+02 -0.38143380215E+02  0.69214209675E+03  0.70029894585E+03  0.00000000000E+00 0.  1.
         14    1    5    5    0    0  0.33014863389E+02 -0.65164604546E+02  0.81568536504E+03  0.81894995063E+03  0.00000000000E+00 0. -1.
         11    1    3    3    0    0 -0.14036138759E+03 -0.11236696623E+03 -0.12960540441E+02  0.18026544271E+03  0.00000000000E+00 0. -1.
        -12    1    3    3    0    0 -0.48244761589E+01 -0.22328835268E+02  0.25756784061E+02  0.34427668811E+02  0.00000000000E+00 0.  1.
          5    1    4    4  501    0  0.35368019205E+02  0.26302989059E+02  0.35413200157E+02  0.56694895372E+02  0.41800000000E+01 0.  1.
         -5    1    4    4    0  501 -0.22710907415E+02  0.21170079721E+03 -0.13394860971E+02  0.21337738295E+03  0.41800000000E+01 0.  1.
</event>
<event>
11    1  0.8551154E-009  0.1448539E+03  0.7561462E-02  0.1102256E+00
         22   -1    0    0    0    0  0.00000000000E+00  0.00000000000E+00  0.62045477595E+03  0.62045477595E+03  0.00000000000E+00 0. -1.
         22   -1    0    0    0    0 -0.00000000000E+00 -0.00000000000E+00 -0.44403101158E+03  0.44403101158E+03  0.00000000000E+00 0.  1.
        -24    2    1    2    0    0 -0.19541134996E+02  0.45842120977E+02 -0.38058385250E+03  0.39221061212E+03  0.80633364468E+02 0.  0.
         25    2    1    2    0    0  0.76861763073E+01  0.31481206978E+02  0.29700830694E+02  0.13258331687E+03  0.12508418313E+03 0.  0.
         24    2    1    2    0    0  0.11854958689E+02 -0.77323327955E+02  0.52730678618E+03  0.53969185854E+03  0.84234306168E+02 0.  0.
        -13    1    5    5    0    0  0.34105382578E+02 -0.34582767416E+02  0.11868953207E+03  0.12824332320E+03  0.00000000000E+00 0.  1.
         14    1    5    5    0    0 -0.22250423889E+02 -0.42740560539E+02  0.40861725411E+03  0.41144853534E+03  0.00000000000E+00 0. -1.
         11    1    3    3    0    0  0.35541723770E+01  0.11070077811E+01  0.33391341268E+01  0.50007423678E+01  0.00000000000E+00 0. -1.
        -12    1    3    3    0    0 -0.23095307373E+02  0.44735113196E+02 -0.38392298663E+03  0.38720986975E+03  0.00000000000E+00 0.  1.
          5    1    4    4  501    0  0.24381796488E+01 -0.48525998264E+02  0.80433026147E+01  0.49425543441E+02  0.41800000000E+01 0. -1.
         -5    1    4    4    0  501  0.52479966585E+01  0.80007205242E+02  0.21657528080E+02  0.83157773432E+02  0.41800000000E+01 0. -1.
</event>
<event>
11    1  0.8551154E-009  0.1465371E+03  0.7561462E-02  0.1100471E+00
         22   -1    0    0    0    0  0.00000000000E+00  0.00000000000E+00  0.12346919105E+04  0.12346919105E+04  0.00000000000E+00 0.  1.
         22   -1    0    0    0    0 -0.00000000000E+00 -0.00000000000E+00 -0.21042522876E+03  0.21042522876E+03  0.00000000000E+00 0. -1.
         24    2    1    2    0    0 -0.59827497308E+02 -0.50107409725E+02 -0.18175005023E+03  0.21459909756E+03  0.83244278911E+02 0.  0.
         25    2    1    2    0    0  0.15568568034E+02  0.28871373513E+02  0.43104622941E+03  0.45002615742E+03  0.12508698556E+03 0.  0.
        -24    2    1    2    0    0  0.44258929274E+02  0.21236036212E+02  0.77497050254E+03  0.78049188426E+03  0.78603304837E+02 0.  0.
        -13    1    3    3    0    0 -0.65042247978E+02 -0.13656248405E+02 -0.68197401889E+02  0.95225378796E+02  0.00000000000E+00 0.  1.
         14    1    3    3    0    0  0.52147506701E+01 -0.36451161319E+02 -0.11355264834E+03  0.11937371876E+03  0.00000000000E+00 0. -1.
         11    1    5    5    0    0 -0.70295049539E+01  0.26480145333E+02  0.10415344288E+03  0.10769657237E+03  0.00000000000E+00 0. -1.
        -12    1    5    5    0    0  0.51288434228E+02 -0.52441091212E+01  0.67081705966E+03  0.67279531189E+03  0.00000000000E+00 0.  1.
          5    1    4    4  501    0  0.24735496581E+02  0.71440748067E+02  0.18127192070E+03  0.19645001123E+03  0.41800000000E+01 0. -1.
         -5    1    4    4    0  501 -0.91669285466E+01 -0.42569374554E+02  0.24977430870E+03  0.25357614619E+03  0.41800000000E+01 0. -1.
</event>
<event>
11    1  0.8551154E-009  0.3138098E+03  0.7561462E-02  0.9945103E-01
         22   -1    0    0    0    0  0.00000000000E+00  0.00000000000E+00  0.10969677156E+03  0.10969677156E+03  0.00000000000E+00 0.  1.
         22   -1    0    0    0    0 -0.00000000000E+00 -0.00000000000E+00 -0.20425383301E+04  0.20425383301E+04  0.00000000000E+00 0. -1.
         24    2    1    2    0    0 -0.14507757490E+03  0.19927158868E+03 -0.85657302606E+03  0.89496220755E+03  0.80519160358E+02 0.  0.
         25    2    1    2    0    0  0.27308926466E+03 -0.25027841364E+03 -0.10110316189E+04  0.10839981999E+04  0.12510048822E+03 0.  0.
        -24    2    1    2    0    0 -0.12801168976E+03  0.51006824953E+02 -0.65236913648E+02  0.17327469427E+03  0.82338179882E+02 0.  0.
        -11    1    3    3    0    0 -0.46078474187E+02  0.87120101499E+02 -0.47491509605E+03  0.48503348990E+03  0.00000000000E+00 0.  1.
         12    1    3    3    0    0 -0.98999100710E+02  0.11215148718E+03 -0.38165793001E+03  0.40992871765E+03  0.00000000000E+00 0. -1.
         13    1    5    5    0    0 -0.29964816010E+02  0.14907425475E+02 -0.59950207722E+02  0.68659660199E+02  0.00000000000E+00 0. -1.
        -14    1    5    5    0    0 -0.98046873749E+02  0.36099399478E+02 -0.52867059264E+01  0.10461503407E+03  0.00000000000E+00 0.  1.
          5    1    4    4  501    0  0.14307188827E+03 -0.71314279914E+02 -0.54742947611E+03  0.57030850901E+03  0.41800000000E+01 0. -1.
         -5    1    4    4    0  501  0.13001737638E+03 -0.17896413372E+03 -0.46360214276E+03  0.51368969085E+03  0.41800000000E+01 0. -1.
</event>
<event>
11    1  0.8551154E-009  0.1491922E+03  0.7561462E-02  0.1097707E+00
         22   -1    0    0    0    0  0.00000000000E+00  0.00000000000E+00  0.65111527413E+02  0.65111527413E+02  0.00000000000E+00 0.  1.
         22   -1    0    0    0    0 -0.00000000000E+00 -0.00000000000E+00 -0.25605824777E+04  0.25605824777E+04  0.00000000000E+00 0.  1.
        -24    2    1    2    0    0  0.30094418388E+01  0.80816452317E+02 -0.16391333418E+04  0.16427773112E+04  0.73612676485E+02 0.  0.
         25    2    1    2    0    0  0.42911315535E+02 -0.81895434291E+02 -0.87341420359E+03  0.88715684625E+03  0.12508659262E+03 0.  0.
         24    2    1    2    0    0 -0.45920757373E+02  0.10789819739E+01  0.17076595146E+02  0.95759847667E+02  0.82270639742E+02 0.  0.
        -13    1    5    5    0    0 -0.58734009160E+02 -0.40541990486E+01  0.38449599861E+02  0.70317082501E+02  0.00000000000E+00 0.  1.
         14    1    5    5    0    0  0.12813251786E+02  0.51331810226E+01 -0.21373004715E+02  0.25442765166E+02  0.00000000000E+00 0. -1.
         13    1    3    3    0    0  0.36957383084E+02  0.51728370347E+02 -0.10729240860E+04  0.10748059206E+04  0.00000000000E+00 0. -1.
        -14    1    3    3    0    0 -0.33947941245E+02  0.29088081970E+02 -0.56620925580E+03  0.56797139064E+03  0.00000000000E+00 0.  1.
          5    1    4    4  501    0  0.40755909211E+02 -0.61000647367E+02 -0.85707283035E+03  0.86021708425E+03  0.41800000000E+01 0. -1.
         -5    1    4    4    0  501  0.21554063235E+01 -0.20894786924E+02 -0.16341373238E+02  0.26939761994E+02  0.41800000000E+01 0. -1.
</event>
<event>
11    1  0.8551154E-009  0.1347462E+03  0.7561462E-02  0.1113571E+00
         22   -1    0    0    0    0  0.00000000000E+00  0.00000000000E+00  0.34601264600E+03  0.34601264600E+03  0.00000000000E+00 0. -1.
         22   -1    0    0    0    0 -0.00000000000E+00 -0.00000000000E+00 -0.45330880623E+03  0.45330880623E+03  0.00000000000E+00 0. -1.
        -24    2    1    2    0    0 -0.45795321501E+02  0.32901086030E+02 -0.36196676923E+03  0.37534493528E+03  0.81756868073E+02 0.  0.
         25    2    1    2    0    0 -0.16275160250E+02 -0.21893285461E+02 -0.24979225703E+02  0.13044590277E+03  0.12509186642E+03 0.  0.
         24    2    1    2    0    0  0.62070481751E+02 -0.11007800569E+02  0.27964983471E+03  0.29353061417E+03  0.63105269391E+02 0.  0.
        -11    1    5    5    0    0 -0.47616640675E+01 -0.33141863948E+01 -0.10325860406E+00  0.58024079907E+01  0.00000000000E+00 0.  1.
         12    1    5    5    0    0  0.66832145818E+02 -0.76936141740E+01  0.27975309331E+03  0.28772820618E+03  0.00000000000E+00 0. -1.
         13    1    3    3    0    0 -0.57261369118E+02  0.39511336925E+02 -0.35191443675E+03  0.35872521647E+03  0.00000000000E+00 0. -1.
        -14    1    3    3    0    0  0.11466047618E+02 -0.66102508945E+01 -0.10052332480E+02  0.16619718805E+02  0.00000000000E+00 0.  1.
          5    1    4    4  501    0 -0.45287631657E+02  0.23429838340E+02  0.24948353454E+02  0.56919413610E+02  0.41800000000E+01 0. -1.
         -5    1    4    4    0  501  0.29012471406E+02 -0.45323123801E+02 -0.49927579157E+02  0.73526489164E+02  0.41800000000E+01 0. -1.
</event>
<event>
11    1  0.8551154E-009  0.1494451E+03  0.7561462E-02  0.1097447E+00
         22   -1    0    0    0    0  0.00000000000E+00  0.00000000000E+00  0.14765852008E+04  0.14765852008E+04  0.00000000000E+00 0. -1.
         22   -1    0    0    0    0 -0.00000000000E+00 -0.00000000000E+00 -0.46850276053E+03  0.46850276053E+03  0.00000000000E+00 0.  1.
         24    2    1    2    0    0 -0.19680976547E+02  0.81055002385E+02 -0.43732037369E+03  0.45239720273E+03  0.80354623670E+02 0.  0.
         25    2    1    2    0    0  0.14782041015E+02 -0.36710439663E+02  0.17355102370E+03  0.21756365118E+03  0.12509124418E+03 0.  0.
        -24    2    1    2    0    0  0.48989355312E+01 -0.44344562722E+02  0.12718517903E+04  0.12751271074E+04  0.79697703073E+02 0.  0.
        -11    1    3    3    0    0 -0.27909499291E+02  0.93079466231E+02 -0.32743369912E+03  0.34154875861E+03  0.00000000000E+00 0.  1.
         12    1    3    3    0    0  0.82285227446E+01 -0.12024463847E+02 -0.10988667457E+03  0.11084844413E+03  0.00000000000E+00 0. -1.
         13    1    5    5    0    0 -0.17828315984E+02  0.13446645977E+02  0.59889161105E+03  0.59930778647E+03  0.00000000000E+00 0. -1.
        -14    1    5    5    0    0  0.22727251515E+02 -0.57791208699E+02  0.67296017922E+03  0.67581932096E+03  0.00000000000E+00 0.  1.
          5    1    4    4  501    0 -0.14821940000E+02  0.18159481478E+02  0.14824874106E+03  0.15014865400E+03  0.41800000000E+01 0. -1.
         -5    1    4    4    0  501  0.29603981015E+02 -0.54869921141E+02  0.25302282646E+02  0.67414997182E+02  0.41800000000E+01 0. -1.
</event>
<event>
11    1  0.8551154E-009  0.1695174E+03  0.7561462E-02  0.1078452E+00
         22   -1    0    0    0    0  0.00000000000E+00  0.00000000000E+00  0.89061300843E+03  0.89061300843E+03  0.00000000000E+00 0.  1.
         22   -1    0    0    0    0 -0.00000000000E+00 -0.00000000000E+00 -0.24756955806E+03  0.24756955806E+03  0.00000000000E+00 0. -1.
         24    2    1    2    0    0  0.47067398897E+02 -0.10844595957E+03 -0.19735724330E+03  0.24355147227E+03  0.79947307484E+02 0.  0.
         25    2    1    2    0    0 -0.51790806267E+02  0.60070594980E+02  0.20936043275E+03  0.25645686493E+03  0.12509024253E+03 0.  0.
        -24    2    1    2    0    0  0.47234073695E+01  0.48375364587E+02  0.63104026092E+03  0.63817422928E+03  0.81804948155E+02 0.  0.
        -13    1    3    3    0    0  0.19562582204E+02  0.92870261197E+01 -0.34223794660E+02  0.40499525893E+02  0.00000000000E+00 0.  1.
         14    1    3    3    0    0  0.27504816693E+02 -0.11773298569E+03 -0.16313344864E+03  0.20305194637E+03  0.00000000000E+00 0. -1.
         13    1    5    5    0    0 -0.53753715940E+01  0.46855786482E+02  0.15481688622E+03  0.16184136555E+03  0.00000000000E+00 0. -1.
        -14    1    5    5    0    0  0.10098778963E+02  0.15195781049E+01  0.47622337470E+03  0.47633286373E+03  0.00000000000E+00 0.  1.
          5    1    4    4  501    0 -0.63329659389E+02  0.71763732360E+02  0.21749120782E+03  0.23765642621E+03  0.41800000000E+01 0. -1.
         -5    1    4    4    0  501  0.11538853123E+02 -0.11693137379E+02 -0.81307750653E+01  0.18800438727E+02  0.41800000000E+01 0. -1.
</event>
<event>
11    1  0.8551154E-009  0.1758524E+03  0.7561462E-02  0.1073048E+00
         22   -1    0    0    0    0  0.00000000000E+00  0.00000000000E+00  0.30278618076E+03  0.30278618076E+03  0.00000000000E+00 0. -1.
         22   -1    0    0    0    0 -0.00000000000E+00 -0.00000000000E+00 -0.43315605481E+03  0.43315605481E+03  0.00000000000E+00 0. -1.
         24    2    1    2    0    0 -0.30213711850E+02 -0.11631086389E+03 -0.33520490814E+03  0.36482386122E+03  0.79328644459E+02 0.  0.
         25    2    1    2    0    0  0.69160495911E+02  0.15580277642E+03  0.13579547025E+03  0.25128720518E+03  0.12508865022E+03 0.  0.
        -24    2    1    2    0    0 -0.38946784061E+02 -0.39491912527E+02  0.69039563845E+02  0.11983116916E+03  0.80725365169E+02 0.  0.
        -13    1    3    3    0    0 -0.35950534515E+02 -0.11374513220E+02 -0.11052938003E+03  0.11678426407E+03  0.00000000000E+00 0.  1.
         14    1    3    3    0    0  0.57368226650E+01 -0.10493635067E+03 -0.22467552811E+03  0.24803959716E+03  0.00000000000E+00 0. -1.
         11    1    5    5    0    0  0.80950901992E+01 -0.14337368040E+02  0.64187944893E+02  0.66266000915E+02  0.00000000000E+00 0. -1.
        -12    1    5    5    0    0 -0.47041874260E+02 -0.25154544487E+02  0.48516189517E+01  0.53565168241E+02  0.00000000000E+00 0.  1.
          5    1    4    4  501    0 -0.11771079034E+02  0.11223960635E+03  0.43656998653E+02  0.12107722109E+03  0.41800000000E+01 0. -1.
         -5    1    4    4    0  501  0.80931574945E+02  0.43563170066E+02  0.92138471596E+02  0.13020998409E+03  0.41800000000E+01 0. -1.
</event>
<event>
11    1  0.8551154E-009  0.1457027E+03  0.7561462E-02  0.1101352E+00
         22   -1    0    0    0    0  0.00000000000E+00  0.00000000000E+00  0.72535797194E+03  0.72535797194E+03  0.00000000000E+00 0.  1.
         22   -1    0    0    0    0 -0.00000000000E+00 -0.00000000000E+00 -0.62421277169E+03  0.62421277169E+03  0.00000000000E+00 0.  1.
        -24    2    1    2    0    0  0.20679084656E+02 -0.72855302585E+02 -0.56133152278E+03  0.57248939331E+03  0.83159529390E+02 0.  0.
         25    2    1    2    0    0  0.25061540280E+02  0.65833900670E+02  0.42151213400E+02  0.14962103463E+03  0.12509015123E+03 0.  0.
         24    2    1    2    0    0 -0.45740624936E+02  0.70214019151E+01  0.62032550963E+03  0.62746031568E+03  0.82226546783E+02 0.  0.
        -11    1    5    5    0    0 -0.35166936885E+02 -0.10168972528E+02  0.58937671744E+03  0.59051252020E+03  0.00000000000E+00 0.  1.
         12    1    5    5    0    0 -0.10573688051E+02  0.17190374443E+02  0.30948792188E+02  0.36947795474E+02  0.00000000000E+00 0. -1.
         13    1    3    3    0    0 -0.23397306040E+02 -0.15684024437E+01 -0.64335640207E+02  0.68476042650E+02  0.00000000000E+00 0. -1.
        -14    1    3    3    0    0  0.44076390696E+02 -0.71286900141E+02 -0.49699588258E+03  0.50401335066E+03  0.00000000000E+00 0.  1.
          5    1    4    4  501    0  0.17720683649E+02  0.97143184534E+02  0.56847767236E+02  0.11401737574E+03  0.41800000000E+01 0.  1.
         -5    1    4    4    0  501  0.73408566318E+01 -0.31309283864E+02 -0.14696553836E+02  0.35603658897E+02  0.41800000000E+01 0.  1.
</event>
<event>
11    1  0.8551154E-009  0.1990176E+03  0.7561462E-02  0.1055221E+00
         22   -1    0    0    0    0  0.00000000000E+00  0.00000000000E+00  0.31754745181E+03  0.31754745181E+03  0.00000000000E+00 0. -1.
         22   -1    0    0    0    0 -0.00000000000E+00 -0.00000000000E+00 -0.20495403819E+04  0.20495403819E+04  0.00000000000E+00 0.  1.
        -24    2    1    2    0    0 -0.39120127666E+02  0.14711633522E+03 -0.17627554988E+04  0.17710902819E+04  0.79247951545E+02 0.  0.
         25    2    1    2    0    0  0.48768246783E+02 -0.17530842962E+03 -0.23190449088E+03  0.32021621146E+03  0.12508933528E+03 0.  0.
         24    2    1    2    0    0 -0.96481191169E+01  0.28192094405E+02  0.26266705955E+03  0.27578134034E+03  0.78571515944E+02 0.  0.
        -11    1    5    5    0    0 -0.38634600761E+00  0.13736229093E+02  0.12469896065E+01  0.13798124366E+02  0.00000000000E+00 0.  1.
         12    1    5    5    0    0 -0.92617731093E+01  0.14455865312E+02  0.26142006994E+03  0.26198321597E+03  0.00000000000E+00 0. -1.
         11    1    3    3    0    0 -0.68177538781E+01 -0.54665314722E+01 -0.27859347602E+02  0.29197739349E+02  0.00000000000E+00 0. -1.
        -12    1    3    3    0    0 -0.32302373788E+02  0.15258286669E+03 -0.17348961512E+04  0.17418925426E+04  0.00000000000E+00 0.  1.
          5    1    4    4  501    0  0.86580712803E+02 -0.12331664517E+03 -0.19325615765E+03  0.24508902398E+03  0.41800000000E+01 0. -1.
         -5    1    4    4    0  501 -0.37812466020E+02 -0.51991784455E+02 -0.38648333223E+02  0.75127187477E+02  0.41800000000E+01 0. -1.
</event>
<event>
11    1  0.8551154E-009  0.1307711E+03  0.7561462E-02  0.1118325E+00
         22   -1    0    0    0    0  0.00000000000E+00  0.00000000000E+00  0.79612219620E+02  0.79612219620E+02  0.00000000000E+00 0.  1.
         22   -1    0    0    0    0 -0.00000000000E+00 -0.00000000000E+00 -0.69202668182E+03  0.69202668182E+03  0.00000000000E+00 0.  1.
         24    2    1    2    0    0 -0.45677874945E+02 -0.52624230335E+01 -0.38725197567E+03  0.39798862807E+03  0.79477632460E+02 0.  0.
         25    2    1    2    0    0  0.98631454499E+01 -0.18494043311E+02 -0.24837561490E+03  0.27888071842E+03  0.12507876619E+03 0.  0.
        -24    2    1    2    0    0  0.35814729496E+02  0.23756466345E+02  0.23213128364E+02  0.94769554953E+02  0.81211789018E+02 0.  0.
        -11    1    3    3    0    0 -0.54956725621E+02  0.16699484313E+01 -0.38076310144E+03  0.38471232088E+03  0.00000000000E+00 0.  1.
         12    1    3    3    0    0  0.92788506760E+01 -0.69323714648E+01 -0.64888742312E+01  0.13276307197E+02  0.00000000000E+00 0. -1.
         11    1    5    5    0    0 -0.13244502817E+02  0.34222832032E+02  0.25284210773E+02  0.44563554633E+02  0.00000000000E+00 0. -1.
        -12    1    5    5    0    0  0.49059232312E+02 -0.10466365687E+02 -0.20710824092E+01  0.50206000320E+02  0.00000000000E+00 0.  1.
          5    1    4    4  501    0 -0.71932384137E+01  0.43409528668E+02 -0.17850055516E+03  0.18389140939E+03  0.41800000000E+01 0.  1.
         -5    1    4    4    0  501  0.17056383864E+02 -0.61903571979E+02 -0.69875059743E+02  0.94989309022E+02  0.41800000000E+01 0.  1.
</event>
<event>
11    1  0.8551154E-009  0.1423999E+03  0.7561462E-02  0.1104908E+00
         22   -1    0    0    0    0  0.00000000000E+00  0.00000000000E+00  0.18592561782E+04  0.18592561782E+04  0.00000000000E+00 0. -1.
         22   -1    0    0    0    0 -0.00000000000E+00 -0.00000000000E+00 -0.74304423335E+03  0.74304423335E+03  0.00000000000E+00 0.  1.
        -24    2    1    2    0    0  0.56465059380E+02 -0.37894372101E+02 -0.72908637105E+03  0.73762553440E+03  0.88883104072E+02 0.  0.
         25    2    1    2    0    0 -0.87745712363E+02  0.53055463817E+01  0.74806807043E+03  0.76353173325E+03  0.12508961117E+03 0.  0.
         24    2    1    2    0    0  0.31280652983E+02  0.32588825719E+02  0.10972302454E+04  0.11011431439E+04  0.81003092344E+02 0.  0.
        -13    1    5    5    0    0 -0.14210313880E+02 -0.18690994168E+02  0.22432432589E+03  0.22554974943E+03  0.00000000000E+00 0.  1.
         14    1    5    5    0    0  0.45490966864E+02  0.51279819888E+02  0.87290591956E+03  0.87559339444E+03  0.00000000000E+00 0. -1.
         13    1    3    3    0    0 -0.23851281281E+02 -0.14219491630E+02 -0.21028218832E+03  0.21210769974E+03  0.00000000000E+00 0. -1.
        -14    1    3    3    0    0  0.80316340661E+02 -0.23674880471E+02 -0.51880418273E+03  0.52551783467E+03  0.00000000000E+00 0.  1.
          5    1    4    4  501    0 -0.95682579246E+01  0.51834556277E+02  0.41060975044E+03  0.41400025645E+03  0.41800000000E+01 0. -1.
         -5    1    4    4    0  501 -0.78177454438E+02 -0.46529009896E+02  0.33745831999E+03  0.34953147681E+03  0.41800000000E+01 0. -1.
</event>
<event>
11    1  0.8551154E-009  0.3250740E+03  0.7561462E-02  0.9901044E-01
         22   -1    0    0    0    0  0.00000000000E+00  0.00000000000E+00  0.84003517523E+03  0.84003517523E+03  0.00000000000E+00 0.  1.
         22   -1    0    0    0    0 -0.00000000000E+00 -0.00000000000E+00 -0.69823646482E+03  0.69823646482E+03  0.00000000000E+00 0. -1.
        -24    2    1    2    0    0 -0.11012497641E+02  0.11053225001E+02 -0.46938365417E+03  0.47829103727E+03  0.90541993832E+02 0.  0.
         25    2    1    2    0    0 -0.28886668466E+03  0.23969055664E+02 -0.58710352174E+02  0.32111173823E+03  0.12508943135E+03 0.  0.
         24    2    1    2    0    0  0.29987918230E+03 -0.35022280665E+02  0.66989271676E+03  0.73886886455E+03  0.77568440218E+02 0.  0.
        -13    1    5    5    0    0  0.26771241828E+03 -0.12553540120E+02  0.53484073448E+03  0.59823251460E+03  0.00000000000E+00 0.  1.
         14    1    5    5    0    0  0.32166764022E+02 -0.22468740545E+02  0.13505198228E+03  0.14063634995E+03  0.00000000000E+00 0. -1.
         13    1    3    3    0    0  0.10336689292E+02  0.18835600034E+02 -0.44279179255E+03  0.44331275475E+03  0.00000000000E+00 0. -1.
        -14    1    3    3    0    0 -0.21349186933E+02 -0.77823750329E+01 -0.26591861617E+02  0.34978282521E+02  0.00000000000E+00 0.  1.
          5    1    4    4  501    0 -0.12146524706E+03 -0.41884942328E+02 -0.58347816267E+02  0.14117398734E+03  0.41800000000E+01 0.  1.
         -5    1    4    4    0  501 -0.16740143760E+03  0.65853997992E+02 -0.36253590752E+00  0.17993775089E+03  0.41800000000E+01 0.  1.
</event>
<event>
11    1  0.8551154E-009  0.2144679E+03  0.7561462E-02  0.1044739E+00
         22   -1    0    0    0    0  0.00000000000E+00  0.00000000000E+00  0.61414492336E+03  0.61414492336E+03  0.00000000000E+00 0. -1.
         22   -1    0    0    0    0 -0.00000000000E+00 -0.00000000000E+00 -0.28559061885E+03  0.28559061885E+03  0.00000000000E+00 0. -1.
         24    2    1    2    0    0 -0.15526638529E+03 -0.91097334434E+02 -0.21085320062E+03  0.28885828760E+03  0.81078131195E+02 0.  0.
         25    2    1    2    0    0  0.12529988550E+03  0.38955425607E+02  0.28341247871E+03  0.33643303738E+03  0.12508784539E+03 0.  0.
        -24    2    1    2    0    0  0.29966499792E+02  0.52141908827E+02  0.25599502642E+03  0.27444421722E+03  0.78545560347E+02 0.  0.
        -11    1    3    3    0    0 -0.36338129604E+02 -0.64710792528E+01 -0.61104137532E+01  0.37412186330E+02  0.00000000000E+00 0.  1.
         12    1    3    3    0    0 -0.11892825569E+03 -0.84626255181E+02 -0.20474278687E+03  0.25144610127E+03  0.00000000000E+00 0. -1.
         11    1    5    5    0    0 -0.24174689924E+02  0.34166914312E+02  0.10538386905E+03  0.11339115275E+03  0.00000000000E+00 0. -1.
        -12    1    5    5    0    0  0.54141189715E+02  0.17974994516E+02  0.15061115737E+03  0.16105306447E+03  0.00000000000E+00 0.  1.
          5    1    4    4  501    0  0.79860142218E+02  0.55293748015E+02  0.26874980353E+03  0.28579532918E+03  0.41800000000E+01 0.  1.
         -5    1    4    4    0  501  0.45439743285E+02 -0.16338322408E+02  0.14662675183E+02  0.50637708206E+02  0.41800000000E+01 0.  1.
</event>
<event>
11    1  0.8551154E-009  0.1571111E+03  0.7561462E-02  0.1089826E+00
         22   -1    0    0    0    0  0.00000000000E+00  0.00000000000E+00  0.35757997404E+03  0.35757997404E+03  0.00000000000E+00 0.  1.
         22   -1    0    0    0    0 -0.00000000000E+00 -0.00000000000E+00 -0.46719474599E+03  0.46719474599E+03  0.00000000000E+00 0.  1.
        -24    2    1    2    0    0 -0.21033314044E+02 -0.74872306335E+02 -0.21647593797E+03  0.24331934473E+03  0.79336052630E+02 0.  0.
         25    2    1    2    0    0  0.51584350428E+02  0.13964555175E+03 -0.18595668034E+03  0.26905297873E+03  0.12509113905E+03 0.  0.
         24    2    1    2    0    0 -0.30551036385E+02 -0.64773245413E+02  0.29281784636E+03  0.31240239656E+03  0.82000165168E+02 0.  0.
        -11    1    5    5    0    0 -0.60397538169E+01 -0.44946043978E+02  0.26924474911E+03  0.27303728760E+03  0.00000000000E+00 0.  1.
         12    1    5    5    0    0 -0.24511282568E+02 -0.19827201435E+02  0.23573097242E+02  0.39365108960E+02  0.00000000000E+00 0. -1.
         11    1    3    3    0    0 -0.62446142451E+01  0.14087232717E+02 -0.11023189044E+02  0.18946134946E+02  0.00000000000E+00 0. -1.
        -12    1    3    3    0    0 -0.14788699798E+02 -0.88959539052E+02 -0.20545274892E+03  0.22437320979E+03  0.00000000000E+00 0.  1.
          5    1    4    4  501    0  0.30610785800E+02  0.48858995682E+02 -0.16307224929E+03  0.17301518013E+03  0.41800000000E+01 0. -1.
         -5    1    4    4    0  501  0.20973564628E+02  0.90786556066E+02 -0.22884431046E+02  0.96037798599E+02  0.41800000000E+01 0. -1.
</event>
<event>
11    1  0.8551154E-009  0.2054368E+03  0.7561462E-02  0.1050744E+00
         22   -1    0    0    0    0  0.00000000000E+00  0.00000000000E+00  0.11170716573E+04  0.11170716573E+04  0.00000000000E+00 0. -1.
         22   -1    0    0    0    0 -0.00000000000E+00 -0.00000000000E+00 -0.18626385803E+03  0.18626385803E+03  0.00000000000E+00 0.  1.
        -24    2    1    2    0    0  0.56898915345E+02  0.10001419284E+03 -0.77642960050E+02  0.16022029267E+03  0.80011171729E+02 0.  0.
         25    2    1    2    0    0 -0.19801278561E+03 -0.20327149798E+02  0.18235796589E+03  0.29752842451E+03  0.12508588802E+03 0.  0.
         24    2    1    2    0    0  0.14111387027E+03 -0.79687043045E+02  0.82609279342E+03  0.84558679815E+03  0.79527232145E+02 0.  0.
        -11    1    5    5    0    0  0.32750300359E+02 -0.29597302664E+02  0.94300196674E+02  0.10412064921E+03  0.00000000000E+00 0.  1.
         12    1    5    5    0    0  0.10836356991E+03 -0.50089740381E+02  0.73179259675E+03  0.74146614895E+03  0.00000000000E+00 0. -1.
         13    1    3    3    0    0 -0.62122077285E+01  0.55281855856E+02 -0.81312964183E+01  0.56220931095E+02  0.00000000000E+00 0. -1.
        -14    1    3    3    0    0  0.63111123073E+02  0.44732336987E+02 -0.69511663631E+02  0.10399936158E+03  0.00000000000E+00 0.  1.
          5    1    4    4  501    0 -0.16822523110E+03  0.34685205728E+02  0.14264222118E+03  0.22330935390E+03  0.41800000000E+01 0. -1.
         -5    1    4    4    0  501 -0.29787554513E+02 -0.55012355526E+02  0.39715744712E+02  0.74219070611E+02  0.41800000000E+01 0. -1.
</event>
<event>
11    1  0.8551154E-009  0.1594907E+03  0.7561462E-02  0.1087557E+00
         22   -1    0    0    0    0  0.00000000000E+00  0.00000000000E+00  0.13630482312E+04  0.13630482312E+04  0.00000000000E+00 0.  1.
         22   -1    0    0    0    0 -0.00000000000E+00 -0.00000000000E+00 -0.19356529350E+03  0.19356529350E+03  0.00000000000E+00 0. -1.
        -24    2    1    2    0    0 -0.70232818886E+02 -0.68636277548E+02 -0.13036298742E+03  0.18047849788E+03  0.77035006740E+02 0.  0.
         25    2    1    2    0    0  0.10756986681E+03  0.38030991325E+02  0.16099534736E+03  0.23363147993E+03  0.12508610633E+03 0.  0.
         24    2    1    2    0    0 -0.37337047921E+02  0.30605286222E+02  0.11388505778E+04  0.11425035469E+04  0.77478884083E+02 0.  0.
        -11    1    5    5    0    0 -0.58475888302E+02  0.21415897341E+02  0.98150901366E+03  0.98348259470E+03  0.00000000000E+00 0.  1.
         12    1    5    5    0    0  0.21138840382E+02  0.91893888813E+01  0.15734156409E+03  0.15902095217E+03  0.00000000000E+00 0. -1.
         11    1    3    3    0    0 -0.74181428823E+02 -0.69504537302E+02 -0.78444669430E+02  0.12840300327E+03  0.00000000000E+00 0. -1.
        -12    1    3    3    0    0  0.39486099370E+01  0.86825975431E+00 -0.51918317992E+02  0.52075494607E+02  0.00000000000E+00 0.  1.
          5    1    4    4  501    0  0.76392780305E+02  0.83072815197E+02  0.93601474242E+02  0.14668216622E+03  0.41800000000E+01 0. -1.
         -5    1    4    4    0  501  0.31177086501E+02 -0.45041823872E+02  0.67393873118E+02  0.86949313708E+02  0.41800000000E+01 0. -1.
</event>
<event>
11    1  0.8551154E-009  0.1718509E+03  0.7561462E-02  0.1076432E+00
         22   -1    0    0    0    0  0.00000000000E+00  0.00000000000E+00  0.55427653291E+02  0.55427653291E+02  0.00000000000E+00 0. -1.
         22   -1    0    0    0    0 -0.00000000000E+00 -0.00000000000E+00 -0.13721687753E+04  0.13721687753E+04  0.00000000000E+00 0.  1.
        -24    2    1    2    0    0  0.12307199065E+02 -0.51728983849E+02 -0.63009373704E+03  0.63764669107E+03  0.82145177916E+02 0.  0.
         25    2    1    2    0    0  0.57795987251E+02  0.13810680492E+03 -0.57870502504E+03  0.61070540571E+03  0.12509085038E+03 0.  0.
         24    2    1    2    0    0 -0.70103186316E+02 -0.86377821076E+02 -0.10794235990E+03  0.17924433178E+03  0.90007736944E+02 0.  0.
        -11    1    5    5    0    0 -0.45822885076E+02  0.52173958796E+01 -0.21121303954E+02  0.50725412735E+02  0.00000000000E+00 0.  1.
         12    1    5    5    0    0 -0.24280301241E+02 -0.91595216956E+02 -0.86821055946E+02  0.12851891905E+03  0.00000000000E+00 0. -1.
         11    1    3    3    0    0 -0.87725764558E+01  0.20666204648E+02 -0.14492873037E+03  0.14665737962E+03  0.00000000000E+00 0. -1.
        -12    1    3    3    0    0  0.21079775521E+02 -0.72395188496E+02 -0.48516500668E+03  0.49098931145E+03  0.00000000000E+00 0.  1.
          5    1    4    4  501    0  0.67590647830E+02  0.40027141861E+02 -0.13573773162E+03  0.15688490031E+03  0.41800000000E+01 0.  1.
         -5    1    4    4    0  501 -0.97946605786E+01  0.98079663064E+02 -0.44296729342E+03  0.45382050540E+03  0.41800000000E+01 0.  1.
</event>
<event>
11    1  0.8551154E-009  0.1396461E+03  0.7561462E-02  0.1107954E+00
         22   -1    0    0    0    0  0.00000000000E+00  0.00000000000E+00  0.35262235593E+04  0.35262235593E+04  0.00000000000E+00 0. -1.
         22   -1    0    0    0    0 -0.00000000000E+00 -0.00000000000E+00 -0.40019494012E+03  0.40019494012E+03  0.00000000000E+00 0. -1.
         24    2    1    2    0    0  0.30057531451E+02 -0.54012982464E+02 -0.38456624085E+03  0.39800267645E+03  0.81817353843E+02 0.  0.
         25    2    1    2    0    0 -0.69505513392E+02  0.65288945016E+02  0.74840306705E+03  0.76475438315E+03  0.12509377701E+03 0.  0.
        -24    2    1    2    0    0  0.39447981941E+02 -0.11275962553E+02  0.27621917929E+04  0.27636614398E+04  0.80235666023E+02 0.  0.
        -11    1    3    3    0    0  0.54035961684E+02 -0.22397774622E+02 -0.16956876618E+03  0.17937422314E+03  0.00000000000E+00 0.  1.
         12    1    3    3    0    0 -0.23978430233E+02 -0.31615207842E+02 -0.21499747467E+03  0.21862845331E+03  0.00000000000E+00 0. -1.
         13    1    5    5    0    0  0.22674676337E+02  0.93004100041E+01  0.25017792348E+04  0.25018992742E+04  0.00000000000E+00 0. -1.
        -14    1    5    5    0    0  0.16773305605E+02 -0.20576372557E+02  0.26041255809E+03  0.26176216553E+03  0.00000000000E+00 0.  1.
          5    1    4    4  501    0  0.87487075272E+00 -0.26218568935E+02  0.31835664873E+03  0.31946299777E+03  0.41800000000E+01 0. -1.
         -5    1    4    4    0  501 -0.70380384144E+02  0.91507513952E+02  0.43004641833E+03  0.44529138538E+03  0.41800000000E+01 0. -1.
</event>
<event>
11    1  0.8551154E-009  0.1547917E+03  0.7561462E-02  0.1092081E+00
         22   -1    0    0    0    0  0.00000000000E+00  0.00000000000E+00  0.19743305397E+04  0.19743305397E+04  0.00000000000E+00 0. -1.
         22   -1    0    0    0    0 -0.00000000000E+00 -0.00000000000E+00 -0.33777155213E+02  0.33777155213E+02  0.00000000000E+00 0. -1.
         24    2    1    2    0    0 -0.52406147326E+01  0.18183529288E+02  0.84326369701E+02  0.11842593478E+03  0.80967034164E+02 0.  0.
         25    2    1    2    0    0 -0.83596480694E+02  0.81662601433E+01  0.38433345416E+03  0.41281285537E+03  0.12508872926E+03 0.  0.
        -24    2    1    2    0    0  0.88837095427E+02 -0.26349789431E+02  0.14718935607E+04  0.14768689048E+04  0.78004917155E+02 0.  0.
        -13    1    3    3    0    0 -0.40085578323E+02  0.24093840582E+02  0.57119694698E+02  0.73824293196E+02  0.00000000000E+00 0.  1.
         14    1    3    3    0    0  0.34844963591E+02 -0.59103112936E+01  0.27206675002E+02  0.44601641583E+02  0.00000000000E+00 0. -1.
         13    1    5    5    0    0  0.29700905628E+02  0.94240521036E+01  0.93837550341E+03  0.93889272122E+03  0.00000000000E+00 0. -1.
        -14    1    5    5    0    0  0.59136189799E+02 -0.35773841535E+02  0.53351805726E+03  0.53797618358E+03  0.00000000000E+00 0.  1.
          5    1    4    4  501    0 -0.91650125535E+01 -0.10254993010E+02 -0.55723701741E+01  0.15417069958E+02  0.41800000000E+01 0.  1.
         -5    1    4    4    0  501 -0.74431468141E+02  0.18421253153E+02  0.38990582433E+03  0.39739578541E+03  0.41800000000E+01 0.  1.
</event>
<event>
11    1  0.8551154E-009  0.1316977E+03  0.7561462E-02  0.1117200E+00
         22   -1    0    0    0    0  0.00000000000E+00  0.00000000000E+00  0.20191886383E+04  0.20191886383E+04  0.00000000000E+00 0.  1.
         22   -1    0    0    0    0 -0.00000000000E+00 -0.00000000000E+00 -0.49697055964E+02  0.49697055964E+02  0.00000000000E+00 0. -1.
        -24    2    1    2    0    0  0.17647064602E+02 -0.11818596949E+02  0.95128509091E+00  0.85135228436E+02  0.82437879974E+02 0.  0.
         25    2    1    2    0    0  0.12406983937E+02 -0.22528353838E+02  0.68086946771E+03  0.69274449490E+03  0.12510093195E+03 0.  0.
         24    2    1    2    0    0 -0.30054048539E+02  0.34346950787E+02  0.12876708295E+04  0.12910059709E+04  0.80729752153E+02 0.  0.
        -11    1    5    5    0    0  0.25550900343E+02  0.48834871952E+01  0.56571591639E+03  0.56631368958E+03  0.00000000000E+00 0.  1.
         12    1    5    5    0    0 -0.55604948882E+02  0.29463463592E+02  0.72195491314E+03  0.72469228134E+03  0.00000000000E+00 0. -1.
         11    1    3    3    0    0  0.18209709510E+02 -0.41526828473E+02 -0.19191217135E+02  0.49237930689E+02  0.00000000000E+00 0. -1.
        -12    1    3    3    0    0 -0.56264490727E+00  0.29708231524E+02  0.20142502226E+02  0.35897297746E+02  0.00000000000E+00 0.  1.
          5    1    4    4  501    0  0.52782248451E+02 -0.52362144890E+02  0.47497721131E+03  0.48077914226E+03  0.41800000000E+01 0. -1.
         -5    1    4    4    0  501 -0.40375264514E+02  0.29833791052E+02  0.20589225640E+03  0.21196535264E+03  0.41800000000E+01 0. -1.
</event>
<event>
11    1  0.8551154E-009  0.1308831E+03  0.7561462E-02  0.1118189E+00
         22   -1    0    0    0    0  0.00000000000E+00  0.00000000000E+00  0.45829020955E+03  0.45829020955E+03  0.00000000000E+00 0.  1.
         22   -1    0    0    0    0 -0.00000000000E+00 -0.00000000000E+00 -0.25937777730E+03  0.25937777730E+03  0.00000000000E+00 0.  1.
        -24    2    1    2    0    0  0.42899728784E+02  0.15281263939E+02 -0.12537586833E+03  0.15518477951E+03  0.79305130197E+02 0.  0.
         25    2    1    2    0    0 -0.26730107669E+02  0.22793678405E+02 -0.77169441310E+02  0.15112014395E+03  0.12509246502E+03 0.  0.
         24    2    1    2    0    0 -0.16169621115E+02 -0.38074942344E+02  0.40145774188E+03  0.41136306338E+03  0.79624704182E+02 0.  0.
        -13    1    5    5    0    0 -0.35836454842E+02 -0.24665454401E+02  0.36648623405E+03  0.36905933924E+03  0.00000000000E+00 0.  1.
         14    1    5    5    0    0  0.19666833728E+02 -0.13409487944E+02  0.34971507837E+02  0.42303724141E+02  0.00000000000E+00 0. -1.
         13    1    3    3    0    0  0.29407116580E+02  0.37383529728E+01 -0.11182348932E+01  0.29664865376E+02  0.00000000000E+00 0. -1.
        -14    1    3    3    0    0  0.13492612204E+02  0.11542910966E+02 -0.12425763343E+03  0.12551991413E+03  0.00000000000E+00 0.  1.
          5    1    4    4  501    0 -0.20308115963E+02 -0.30241948826E+02 -0.88987831634E+02  0.96246047304E+02  0.41800000000E+01 0. -1.
         -5    1    4    4    0  501 -0.64219917063E+01  0.53035627231E+02  0.11818390325E+02  0.54874096650E+02  0.41800000000E+01 0. -1.
</event>
<event>
11    1  0.8551154E-009  0.1508391E+03  0.7561462E-02  0.1096024E+00
         22   -1    0    0    0    0  0.00000000000E+00  0.00000000000E+00  0.41537334055E+03  0.41537334055E+03  0.00000000000E+00 0. -1.
         22   -1    0    0    0    0 -0.00000000000E+00 -0.00000000000E+00 -0.44597840461E+03  0.44597840461E+03  0.00000000000E+00 0.  1.
         24    2    1    2    0    0 -0.13755118634E+02 -0.20764438292E+02 -0.37081398829E+03  0.38054914115E+03  0.81818517084E+02 0.  0.
         25    2    1    2    0    0  0.57381547655E+02  0.88339730921E+02  0.53128980017E+02  0.17194957354E+03  0.12508963687E+03 0.  0.
        -24    2    1    2    0    0 -0.43626429021E+02 -0.67575292628E+02  0.28707994421E+03  0.30885303047E+03  0.80657390093E+02 0.  0.
        -11    1    3    3    0    0  0.17711430635E+02 -0.38290390946E+02 -0.27445445748E+03  0.27767804747E+03  0.00000000000E+00 0.  1.
         12    1    3    3    0    0 -0.31466549268E+02  0.17525952654E+02 -0.96359530805E+02  0.10287109369E+03  0.00000000000E+00 0. -1.
         13    1    5    5    0    0 -0.36622699355E+02 -0.32764424180E+02  0.25889779632E+03  0.26352001544E+03  0.00000000000E+00 0. -1.
        -14    1    5    5    0    0 -0.70037296657E+01 -0.34810868448E+02  0.28182147893E+02  0.45333015024E+02  0.00000000000E+00 0.  1.
          5    1    4    4  501    0  0.10159408790E+02  0.10881106878E+03  0.49900969817E+02  0.12021082092E+03  0.41800000000E+01 0. -1.
         -5    1    4    4    0  501  0.47222138864E+02 -0.20471337864E+02  0.32280102000E+01  0.51738752621E+02  0.41800000000E+01 0. -1.
</event>
<event>
11    1  0.1045609E-008  0.1632240E+03  0.7561462E-02  0.1084084E+00
         22   -1    0    0    0    0  0.00000000000E+00  0.00000000000E+00  0.50439568791E+03  0.50439568791E+03  0.00000000000E+00 0.  1.
         22   -1    0    0    0    0 -0.00000000000E+00 -0.00000000000E+00 -0.13519139023E+04  0.13519139023E+04  0.00000000000E+00 0.  1.
        -24    2    1    2    0    0  0.97237696196E+02 -0.48242710152E+02 -0.11021745452E+04  0.11103658164E+04  0.79630330767E+02 0.  0.
         25    2    1    2    0    0 -0.85589863609E+02  0.13741861378E+02 -0.21767625889E+03  0.26560356377E+03  0.12509131022E+03 0.  0.
         24    2    1    2    0    0 -0.11647832587E+02  0.34500848774E+02  0.47233258973E+03  0.48034020999E+03  0.79389303056E+02 0.  0.
        -13    1    5    5    0    0 -0.17165441112E+02 -0.12571416760E+02  0.32225999060E+03  0.32296159900E+03  0.00000000000E+00 0.  1.
         14    1    5    5    0    0  0.55176085242E+01  0.47072265535E+02  0.15007259913E+03  0.15737861099E+03  0.00000000000E+00 0. -1.
         11    1    3    3    0    0 -0.46168054672E+01  0.11136299347E+02 -0.43269241651E+02  0.44917249792E+02  0.00000000000E+00 0. -1.
        -12    1    3    3    0    0  0.10185450166E+03 -0.59379009499E+02 -0.10589053036E+04  0.10654485667E+04  0.00000000000E+00 0.  1.
          5    1    4    4  501    0 -0.17606273319E+02  0.42353995839E+02 -0.12783683323E+02  0.47798920312E+02  0.41800000000E+01 0. -1.
         -5    1    4    4    0  501 -0.67983590289E+02 -0.28612134461E+02 -0.20489257557E+03  0.21780464346E+03  0.41800000000E+01 0. -1.
</event>
<event>
11    1  0.8551154E-009  0.1740436E+03  0.7561462E-02  0.1074565E+00
         22   -1    0    0    0    0  0.00000000000E+00  0.00000000000E+00  0.30620838768E+03  0.30620838768E+03  0.00000000000E+00 0.  1.
         22   -1    0    0    0    0 -0.00000000000E+00 -0.00000000000E+00 -0.21155412854E+03  0.21155412854E+03  0.00000000000E+00 0.  1.
        -24    2    1    2    0    0 -0.96752193096E+01  0.58815125488E+02 -0.90849599753E+02  0.13904761519E+03  0.86762668584E+02 0.  0.
         25    2    1    2    0    0  0.55471216076E+02  0.73172119927E+02  0.36886210717E+02  0.15949898730E+03  0.12509244366E+03 0.  0.
         24    2    1    2    0    0 -0.45795996766E+02 -0.13198724541E+03  0.14861764818E+03  0.21921591373E+03  0.80315037266E+02 0.  0.
        -13    1    5    5    0    0  0.11136076950E+02 -0.41173250480E+02  0.83603848535E+02  0.93855486013E+02  0.00000000000E+00 0.  1.
         14    1    5    5    0    0 -0.56932073716E+02 -0.90813994934E+02  0.65013799643E+02  0.12536042772E+03  0.00000000000E+00 0. -1.
         11    1    3    3    0    0  0.21748609924E+02  0.60422031546E+02 -0.30728113330E+02  0.71190174032E+02  0.00000000000E+00 0. -1.
        -12    1    3    3    0    0 -0.31423829234E+02 -0.16069060584E+01 -0.60121486423E+02  0.67857441158E+02  0.00000000000E+00 0.  1.
          5    1    4    4  501    0  0.14191734637E+02 -0.16568319678E+02  0.54701257276E+02  0.59039092952E+02  0.41800000000E+01 0. -1.
         -5    1    4    4    0  501  0.41279481439E+02  0.89740439605E+02 -0.17815046560E+02  0.10045989435E+03  0.41800000000E+01 0. -1.
</event>
<event>
11    1  0.8551154E-009  0.1941144E+03  0.7561462E-02  0.1058766E+00
         22   -1    0    0    0    0  0.00000000000E+00  0.00000000000E+00  0.39596478106E+03  0.39596478106E+03  0.00000000000E+00 0. -1.
         22   -1    0    0    0    0 -0.00000000000E+00 -0.00000000000E+00 -0.31921712795E+03  0.31921712795E+03  0.00000000000E+00 0.  1.
        -24    2    1    2    0    0  0.13540393098E+02  0.67766370451E+02 -0.16971429080E+03  0.20844071078E+03  0.99342670581E+02 0.  0.
         25    2    1    2    0    0  0.77525061320E+02 -0.17364315684E+03  0.19522599221E+02  0.22845223383E+03  0.12508880929E+03 0.  0.
         24    2    1    2    0    0 -0.91065454418E+02  0.10587678639E+03  0.22693934470E+03  0.27828896440E+03  0.80252542944E+02 0.  0.
        -13    1    5    5    0    0  0.14565656004E+02  0.19056797849E+02  0.40775686187E+02  0.47307255924E+02  0.00000000000E+00 0.  1.
         14    1    5    5    0    0 -0.10563111042E+03  0.86819988544E+02  0.18616365851E+03  0.23098170847E+03  0.00000000000E+00 0. -1.
         11    1    3    3    0    0  0.17398087797E+02  0.68179164721E+02 -0.44690333445E+02  0.83356570614E+02  0.00000000000E+00 0. -1.
        -12    1    3    3    0    0 -0.38576946992E+01 -0.41279427032E+00 -0.12502395736E+03  0.12508414017E+03  0.00000000000E+00 0.  1.
          5    1    4    4  501    0 -0.33743137182E+02 -0.56476239560E+02  0.32946544398E+01  0.66003727846E+02  0.41800000000E+01 0.  1.
         -5    1    4    4    0  501  0.11126819850E+03 -0.11716691728E+03  0.16227944781E+02  0.16244850598E+03  0.41800000000E+01 0.  1.
</event>
<event>
11    1  0.8551154E-009  0.1520625E+03  0.7561462E-02  0.1094790E+00
         22   -1    0    0    0    0  0.00000000000E+00  0.00000000000E+00  0.43456898200E+03  0.43456898200E+03  0.00000000000E+00 0. -1.
         22   -1    0    0    0    0 -0.00000000000E+00 -0.00000000000E+00 -0.50273707709E+03  0.50273707709E+03  0.00000000000E+00 0.  1.
        -24    2    1    2    0    0 -0.10950133583E+02  0.73081769910E+01 -0.41783385197E+03  0.42585023166E+03  0.81178673803E+02 0.  0.
         25    2    1    2    0    0  0.87013593678E+02  0.32089192124E+02  0.14673698020E+02  0.15640916627E+03  0.12508968040E+03 0.  0.
         24    2    1    2    0    0 -0.76063460095E+02 -0.39397369115E+02  0.33499205886E+03  0.35504666116E+03  0.80626605090E+02 0.  0.
        -11    1    5    5    0    0  0.49713642639E+01 -0.16433217083E+02  0.11246513231E+02  0.20524354952E+02  0.00000000000E+00 0.  1.
         12    1    5    5    0    0 -0.81034824358E+02 -0.22964152032E+02  0.32374554563E+03  0.33452230621E+03  0.00000000000E+00 0. -1.
         11    1    3    3    0    0  0.17223490486E+02  0.22419861473E+02 -0.57234488613E+02  0.63836396356E+02  0.00000000000E+00 0. -1.
        -12    1    3    3    0    0 -0.28173624069E+02 -0.15111684482E+02 -0.36059936336E+03  0.36201383531E+03  0.00000000000E+00 0.  1.
          5    1    4    4  501    0  0.12860685781E+02  0.32354565055E+02 -0.47850583104E+02  0.59324243122E+02  0.41800000000E+01 0. -1.
         -5    1    4    4    0  501  0.74152907896E+02 -0.26537293094E+00  0.62524281124E+02  0.97084923146E+02  0.41800000000E+01 0. -1.
</event>
<event>
11    1  0.8551154E-009  0.1759351E+03  0.7561462E-02  0.1072979E+00
         22   -1    0    0    0    0  0.00000000000E+00  0.00000000000E+00  0.84911342639E+03  0.84911342639E+03  0.00000000000E+00 0. -1.
         22   -1    0    0    0    0 -0.00000000000E+00 -0.00000000000E+00 -0.35953517296E+03  0.35953517296E+03  0.00000000000E+00 0.  1.
        -24    2    1    2    0    0 -0.11155306782E+03 -0.54416431641E+02 -0.30963900747E+03  0.34337118997E+03  0.81377049480E+02 0.  0.
         25    2    1    2    0    0  0.10445427600E+03  0.54777109416E+02  0.21289215584E+03  0.27364601889E+03  0.12509135120E+03 0.  0.
         24    2    1    2    0    0  0.70987918223E+01 -0.36067777515E+00  0.58632510506E+03  0.59163139048E+03  0.78740399083E+02 0.  0.
        -11    1    5    5    0    0  0.22322990606E+02  0.15422372443E+02  0.73670887208E+02  0.78508376008E+02  0.00000000000E+00 0.  1.
         12    1    5    5    0    0 -0.15224198784E+02 -0.15783050218E+02  0.51265421785E+03  0.51312301448E+03  0.00000000000E+00 0. -1.
         13    1    3    3    0    0 -0.99687393928E+02 -0.59026245776E+02 -0.18634839690E+03  0.21942515632E+03  0.00000000000E+00 0. -1.
        -14    1    3    3    0    0 -0.11865673895E+02  0.46098141350E+01 -0.12329061057E+03  0.12394603365E+03  0.00000000000E+00 0.  1.
          5    1    4    4  501    0  0.11900089783E+03  0.72680179007E+02  0.20674766389E+03  0.24941068748E+03  0.41800000000E+01 0.  1.
         -5    1    4    4    0  501 -0.14546621829E+02 -0.17903069590E+02  0.61444919535E+01  0.24235331414E+02  0.41800000000E+01 0.  1.
</event>
<event>
11    1  0.8551154E-009  0.2403880E+03  0.7561462E-02  0.1029148E+00
         22   -1    0    0    0    0  0.00000000000E+00  0.00000000000E+00  0.46702426211E+02  0.46702426211E+02  0.00000000000E+00 0.  1.
         22   -1    0    0    0    0 -0.00000000000E+00 -0.00000000000E+00 -0.15834579525E+04  0.15834579525E+04  0.00000000000E+00 0. -1.
        -24    2    1    2    0    0  0.62762012705E-01  0.22860276653E+02 -0.28359689256E+03  0.29460999783E+03  0.76454281535E+02 0.  0.
         25    2    1    2    0    0  0.15495186208E+03  0.12308335643E+03 -0.63187700287E+03  0.67384994853E+03  0.12508242958E+03 0.  0.
         24    2    1    2    0    0 -0.15501462409E+03 -0.14594363308E+03 -0.62128163085E+03  0.66170043233E+03  0.80793066576E+02 0.  0.
        -11    1    5    5    0    0  0.87818640799E+01 -0.16586541826E+02 -0.60102203887E+02  0.62964350378E+02  0.00000000000E+00 0.  1.
         12    1    5    5    0    0 -0.16379648817E+03 -0.12935709126E+03 -0.56117942696E+03  0.59873608196E+03  0.00000000000E+00 0. -1.
         13    1    3    3    0    0 -0.16668164882E+02  0.31414168735E+02 -0.26754025080E+03  0.26989342992E+03  0.00000000000E+00 0. -1.
        -14    1    3    3    0    0  0.16730926895E+02 -0.85538920823E+01 -0.16056641759E+02  0.24716567907E+02  0.00000000000E+00 0.  1.
          5    1    4    4  501    0  0.95717236869E+01 -0.62891442403E+01  0.49011811977E+00  0.12201796810E+02  0.41800000000E+01 0. -1.
         -5    1    4    4    0  501  0.14538013839E+03  0.12937250067E+03 -0.63236712099E+03  0.66164815172E+03  0.41800000000E+01 0. -1.
</event>
<event>
11    1  0.8551154E-009  0.1636846E+03  0.7561462E-02  0.1083662E+00
         22   -1    0    0    0    0  0.00000000000E+00  0.00000000000E+00  0.57811731025E+03  0.57811731025E+03  0.00000000000E+00 0.  1.
         22   -1    0    0    0    0 -0.00000000000E+00 -0.00000000000E+00 -0.41799800060E+03  0.41799800060E+03  0.00000000000E+00 0.  1.
         24    2    1    2    0    0 -0.58347534071E+02 -0.28218517803E+02 -0.28762835338E+03  0.30538131714E+03  0.79542188262E+02 0.  0.
         25    2    1    2    0    0  0.29018352949E+02  0.12869868550E+03 -0.39158760223E+02  0.18597626631E+03  0.12509335182E+03 0.  0.
        -24    2    1    2    0    0  0.29329181122E+02 -0.10048016770E+03  0.48690642324E+03  0.50475772740E+03  0.82134240197E+02 0.  0.
        -13    1    3    3    0    0 -0.46267580051E+02 -0.33998407612E+02 -0.28621307136E+03  0.29191523239E+03  0.00000000000E+00 0.  1.
         14    1    3    3    0    0 -0.12079954020E+02  0.57798898087E+01 -0.14152820161E+01  0.13466084751E+02  0.00000000000E+00 0. -1.
         13    1    5    5    0    0 -0.23727883840E+02 -0.56603572313E+01  0.88122541002E+02  0.91436504462E+02  0.00000000000E+00 0. -1.
        -14    1    5    5    0    0  0.53057064962E+02 -0.94819810468E+02  0.39878388224E+03  0.41332122294E+03  0.00000000000E+00 0.  1.
          5    1    4    4  501    0 -0.39071711865E+02  0.10062578381E+03 -0.22208171853E+02  0.11028518637E+03  0.41800000000E+01 0.  1.
         -5    1    4    4    0  501  0.68090064814E+02  0.28072901693E+02 -0.16950588370E+02  0.75691079937E+02  0.41800000000E+01 0.  1.
</event>
<event>
11    1  0.8551154E-009  0.1451808E+03  0.7561462E-02  0.1101907E+00
         22   -1    0    0    0    0  0.00000000000E+00  0.00000000000E+00  0.11726112840E+03  0.11726112840E+03  0.00000000000E+00 0. -1.
         22   -1    0    0    0    0 -0.00000000000E+00 -0.00000000000E+00 -0.19543677067E+04  0.19543677067E+04  0.00000000000E+00 0. -1.
         24    2    1    2    0    0  0.33039814269E+02  0.32654021400E+02 -0.11336893018E+04  0.11376193693E+04  0.82270784319E+02 0.  0.
         25    2    1    2    0    0 -0.10523186982E+03 -0.23260101057E+02 -0.78414613495E+03  0.80133852446E+03  0.12507394251E+03 0.  0.
        -24    2    1    2    0    0  0.72192055553E+02 -0.93939203426E+01  0.80728858454E+02  0.13267094135E+03  0.76055844392E+02 0.  0.
        -13    1    3    3    0    0 -0.22368066258E+02  0.18630761186E+02 -0.19169874876E+03  0.19389648250E+03  0.00000000000E+00 0.  1.
         14    1    3    3    0    0  0.55407880527E+02  0.14023260214E+02 -0.94199055308E+03  0.94372288684E+03  0.00000000000E+00 0. -1.
         13    1    5    5    0    0  0.82733177821E+02 -0.10279788913E+02  0.86899735289E+02  0.12042431966E+03  0.00000000000E+00 0. -1.
        -14    1    5    5    0    0 -0.10541122268E+02  0.88586857012E+00 -0.61708768351E+01  0.12246621686E+02  0.00000000000E+00 0.  1.
          5    1    4    4  501    0 -0.58020916224E+02 -0.39537814306E+02 -0.15514280509E+03  0.17034209066E+03  0.41800000000E+01 0. -1.
         -5    1    4    4    0  501 -0.47210953598E+02  0.16277713249E+02 -0.62900332986E+03  0.63099643380E+03  0.41800000000E+01 0. -1.
</event>
<event>
11    1  0.8551154E-009  0.1268089E+03  0.7561462E-02  0.1123253E+00
         22   -1    0    0    0    0  0.00000000000E+00  0.00000000000E+00  0.85018570907E+03  0.85018570907E+03  0.00000000000E+00 0.  1.
         22   -1    0    0    0    0 -0.00000000000E+00 -0.00000000000E+00 -0.10139652093E+03  0.10139652093E+03  0.00000000000E+00 0. -1.
        -24    2    1    2    0    0  0.77059499626E+01 -0.33196944509E+01 -0.60096866285E+02  0.10078394857E+03  0.80469677000E+02 0.  0.
         25    2    1    2    0    0 -0.44078489222E+01  0.23845899200E+02  0.20569208981E+03  0.24193540038E+03  0.12504177746E+03 0.  0.
         24    2    1    2    0    0 -0.32981010404E+01 -0.20526204749E+02  0.60319396462E+03  0.60886288105E+03  0.80242422766E+02 0.  0.
        -11    1    5    5    0    0 -0.33570700449E+02  0.76657135854E+00  0.45040951537E+03  0.45165950793E+03  0.00000000000E+00 0.  1.
         12    1    5    5    0    0  0.30272599409E+02 -0.21292776108E+02  0.15278444924E+03  0.15720337312E+03  0.00000000000E+00 0. -1.
         13    1    3    3    0    0  0.10079054433E+02  0.16136144953E+02 -0.74223850995E+02  0.76623381345E+02  0.00000000000E+00 0. -1.
        -14    1    3    3    0    0 -0.23731044704E+01 -0.19455839404E+02  0.14126984710E+02  0.24160567227E+02  0.00000000000E+00 0.  1.
          5    1    4    4  501    0 -0.20636348629E+02  0.28411047238E+02 -0.14882857681E+00  0.35362989691E+02  0.41800000000E+01 0. -1.
         -5    1    4    4    0  501  0.16228499707E+02 -0.45651480380E+01  0.20584091838E+03  0.20657241069E+03  0.41800000000E+01 0. -1.
</event>
<event>
11    1  0.8551154E-009  0.1455271E+03  0.7561462E-02  0.1101539E+00
         22   -1    0    0    0    0  0.00000000000E+00  0.00000000000E+00  0.20856496260E+03  0.20856496260E+03  0.00000000000E+00 0. -1.
         22   -1    0    0    0    0 -0.00000000000E+00 -0.00000000000E+00 -0.11806143309E+04  0.11806143309E+04  0.00000000000E+00 0.  1.
        -24    2    1    2    0    0  0.58947907519E+02  0.48014443506E+02 -0.10252016489E+04  0.10307850183E+04  0.75492321202E+02 0.  0.
         25    2    1    2    0    0 -0.14155224459E+01 -0.76542592412E+02 -0.97006019972E+02  0.17583581068E+03  0.12508913721E+03 0.  0.
         24    2    1    2    0    0 -0.57532385073E+02  0.28528148907E+02  0.15015830055E+03  0.18255846449E+03  0.81585826707E+02 0.  0.
        -13    1    5    5    0    0  0.20949221040E+02  0.45098908115E+01  0.37205153704E+02  0.42935212116E+02  0.00000000000E+00 0.  1.
         14    1    5    5    0    0 -0.78481606114E+02  0.24018258095E+02  0.11295314685E+03  0.13962325237E+03  0.00000000000E+00 0. -1.
         11    1    3    3    0    0  0.38852216600E+02  0.43750145180E+02 -0.32133621380E+03  0.32661985892E+03  0.00000000000E+00 0. -1.
        -12    1    3    3    0    0  0.20095690919E+02  0.42642983257E+01 -0.70386543510E+03  0.70416515943E+03  0.00000000000E+00 0.  1.
          5    1    4    4  501    0  0.26752164215E+02  0.44695188737E+01  0.17619652390E+02  0.32612565669E+02  0.41800000000E+01 0. -1.
         -5    1    4    4    0  501 -0.28167686661E+02 -0.81012111286E+02 -0.11462567236E+03  0.14322324501E+03  0.41800000000E+01 0. -1.
</event>
<event>
11    1  0.8551154E-009  0.1497423E+03  0.7561462E-02  0.1097142E+00
         22   -1    0    0    0    0  0.00000000000E+00  0.00000000000E+00  0.40999310365E+03  0.40999310365E+03  0.00000000000E+00 0. -1.
         22   -1    0    0    0    0 -0.00000000000E+00 -0.00000000000E+00 -0.15741746762E+04  0.15741746762E+04  0.00000000000E+00 0.  1.
         24    2    1    2    0    0 -0.18634617717E+02 -0.57817182027E+02 -0.10254934937E+04  0.10305782773E+04  0.82247215744E+02 0.  0.
         25    2    1    2    0    0 -0.26696112870E+02 -0.11970587587E+02 -0.53007769635E+03  0.54542178176E+03  0.12508628398E+03 0.  0.
        -24    2    1    2    0    0  0.45330730587E+02  0.69787769614E+02  0.39138961755E+03  0.40816772074E+03  0.80559590423E+02 0.  0.
        -11    1    3    3    0    0 -0.13032287987E+02 -0.55019772498E+02 -0.10216865832E+04  0.10232499647E+04  0.00000000000E+00 0.  1.
         12    1    3    3    0    0 -0.56023297298E+01 -0.27974095288E+01 -0.38069105023E+01  0.73283126330E+01  0.00000000000E+00 0. -1.
         13    1    5    5    0    0  0.60316690323E+02  0.77388004859E+02  0.31389934162E+03  0.32887657730E+03  0.00000000000E+00 0. -1.
        -14    1    5    5    0    0 -0.14985959736E+02 -0.76002352455E+01  0.77490275929E+02  0.79291143443E+02  0.00000000000E+00 0.  1.
          5    1    4    4  501    0 -0.69665600274E+02 -0.30054705780E+02 -0.24456656492E+03  0.25609931331E+03  0.41800000000E+01 0. -1.
         -5    1    4    4    0  501  0.42969487404E+02  0.18084118193E+02 -0.28551113144E+03  0.28932246846E+03  0.41800000000E+01 0. -1.
</event>
<event>
11    1  0.8551154E-009  0.1379239E+03  0.7561462E-02  0.1109899E+00
         22   -1    0    0    0    0  0.00000000000E+00  0.00000000000E+00  0.21471612892E+03  0.21471612892E+03  0.00000000000E+00 0. -1.
         22   -1    0    0    0    0 -0.00000000000E+00 -0.00000000000E+00 -0.54538357380E+03  0.54538357380E+03  0.00000000000E+00 0. -1.
        -24    2    1    2    0    0  0.54236160687E+02  0.84732674997E+01 -0.41910741221E+03  0.43039891652E+03  0.81110091780E+02 0.  0.
         25    2    1    2    0    0 -0.87858936265E+02 -0.13920397361E+02 -0.54029138259E+02  0.16272547165E+03  0.12508981253E+03 0.  0.
         24    2    1    2    0    0  0.33622775579E+02  0.54471298608E+01  0.14246910559E+03  0.16697531455E+03  0.80144540420E+02 0.  0.
        -13    1    5    5    0    0  0.22152077443E+00  0.26384214992E+02  0.91127880015E+01  0.27914490455E+02  0.00000000000E+00 0.  1.
         14    1    5    5    0    0  0.33401254804E+02 -0.20937085131E+02  0.13335631759E+03  0.13906082409E+03  0.00000000000E+00 0. -1.
         13    1    3    3    0    0 -0.45662769457E+01 -0.10746543521E+02 -0.25097326931E+03  0.25124474321E+03  0.00000000000E+00 0. -1.
        -14    1    3    3    0    0  0.58802437632E+02  0.19219811021E+02 -0.16813414289E+03  0.17915417331E+03  0.00000000000E+00 0.  1.
          5    1    4    4  501    0 -0.54003304020E+02  0.20470369272E+02 -0.86728568257E+02  0.10428187673E+03  0.41800000000E+01 0.  1.
         -5    1    4    4    0  501 -0.33855632245E+02 -0.34390766633E+02  0.32699429998E+02  0.58443594914E+02  0.41800000000E+01 0.  1.
</event>
<event>
11    1  0.8551154E-009  0.1377497E+03  0.7561462E-02  0.1110098E+00
         22   -1    0    0    0    0  0.00000000000E+00  0.00000000000E+00  0.57852554365E+03  0.57852554365E+03  0.00000000000E+00 0. -1.
         22   -1    0    0    0    0 -0.00000000000E+00 -0.00000000000E+00 -0.23349141702E+03  0.23349141702E+03  0.00000000000E+00 0.  1.
        -24    2    1    2    0    0 -0.57583272875E+02  0.11571844908E+02 -0.19963480815E+03  0.22312768617E+03  0.80511904721E+02 0.  0.
         25    2    1    2    0    0  0.31748706990E+02 -0.23354253192E+02  0.22973301650E+03  0.26453139771E+03  0.12508477111E+03 0.  0.
         24    2    1    2    0    0  0.25834565885E+02  0.11782408283E+02  0.31493591827E+03  0.32435787679E+03  0.72229839251E+02 0.  0.
        -13    1    5    5    0    0 -0.66156912997E+01 -0.20948212244E+02  0.18863722496E+03  0.18991207863E+03  0.00000000000E+00 0.  1.
         14    1    5    5    0    0  0.32450257185E+02  0.32730620527E+02  0.12629869331E+03  0.13444579816E+03  0.00000000000E+00 0. -1.
         11    1    3    3    0    0 -0.12830081605E+02  0.15363387853E+02 -0.16182358574E+01  0.20081418466E+02  0.00000000000E+00 0. -1.
        -12    1    3    3    0    0 -0.44753191270E+02 -0.37915429450E+01 -0.19801657229E+03  0.20304626770E+03  0.00000000000E+00 0.  1.
          5    1    4    4  501    0 -0.39571922934E+02 -0.22781479314E+02  0.15284002742E+03  0.15956966900E+03  0.41800000000E+01 0. -1.
         -5    1    4    4    0  501  0.71320629924E+02 -0.57277387762E+00  0.76892989085E+02  0.10496172871E+03  0.41800000000E+01 0. -1.
</event>
<event>
11    1  0.8551154E-009  0.1354839E+03  0.7561462E-02  0.1112709E+00
         22   -1    0    0    0    0  0.00000000000E+00  0.00000000000E+00  0.22409605791E+04  0.22409605791E+04  0.00000000000E+00 0.  1.
         22   -1    0    0    0    0 -0.00000000000E+00 -0.00000000000E+00 -0.61439097289E+03  0.61439097289E+03  0.00000000000E+00 0.  1.
        -24    2    1    2    0    0 -0.37855021682E+01  0.51407663842E+02 -0.59282701897E+03  0.60114099541E+03  0.85261620963E+02 0.  0.
         25    2    1    2    0    0  0.27761132893E+02 -0.93821770979E+02  0.37244922953E+03  0.40489764685E+03  0.12510184107E+03 0.  0.
         24    2    1    2    0    0 -0.23975630724E+02  0.42414107137E+02  0.18469473957E+04  0.18493129098E+04  0.79810829170E+02 0.  0.
        -11    1    5    5    0    0 -0.42325106524E+02  0.54740837186E+02  0.15500682526E+04  0.15516119236E+04  0.00000000000E+00 0.  1.
         12    1    5    5    0    0  0.18349475800E+02 -0.12326730049E+02  0.29687914308E+03  0.29770098611E+03  0.00000000000E+00 0. -1.
         11    1    3    3    0    0 -0.45536820048E+01  0.10149206521E+02 -0.55784132714E+01  0.12444320288E+02  0.00000000000E+00 0. -1.
        -12    1    3    3    0    0  0.76817983657E+00  0.41258457322E+02 -0.58724860570E+03  0.58869667512E+03  0.00000000000E+00 0.  1.
          5    1    4    4  501    0 -0.42295462467E+02 -0.95102830129E+01  0.15969311395E+03  0.16552557105E+03  0.41800000000E+01 0. -1.
         -5    1    4    4    0  501  0.70056595359E+02 -0.84311487967E+02  0.21275611557E+03  0.23937207579E+03  0.41800000000E+01 0. -1.
</event>
<event>
11    1  0.8551154E-009  0.1485144E+03  0.7561462E-02  0.1098406E+00
         22   -1    0    0    0    0  0.00000000000E+00  0.00000000000E+00  0.10422278073E+03  0.10422278073E+03  0.00000000000E+00 0.  1.
         22   -1    0    0    0    0 -0.00000000000E+00 -0.00000000000E+00 -0.95449831189E+03  0.95449831189E+03  0.00000000000E+00 0.  1.
        -24    2    1    2    0    0  0.60101535775E+01 -0.35861150430E+02 -0.54061361591E+03  0.54775011057E+03  0.80280494874E+02 0.  0.
         25    2    1    2    0    0  0.74345186118E+02  0.26122649473E+02 -0.35753070080E+03  0.38689233182E+03  0.12509146611E+03 0.  0.
         24    2    1    2    0    0 -0.80355339696E+02  0.97385009567E+01  0.47868785553E+02  0.12407865022E+03  0.80946104244E+02 0.  0.
        -11    1    5    5    0    0 -0.35792536515E+02 -0.98654208478E+01  0.62974989044E+02  0.73104592494E+02  0.00000000000E+00 0.  1.
         12    1    5    5    0    0 -0.44562803181E+02  0.19603921804E+02 -0.15106203491E+02  0.50974057729E+02  0.00000000000E+00 0. -1.
         11    1    3    3    0    0  0.28883365203E+02 -0.20874993309E+02 -0.97759786604E+02  0.10405282316E+03  0.00000000000E+00 0. -1.
        -12    1    3    3    0    0 -0.22873211625E+02 -0.14986157121E+02 -0.44285382931E+03  0.44369728740E+03  0.00000000000E+00 0.  1.
          5    1    4    4  501    0  0.58008319081E+01  0.66325318938E+02 -0.13546208541E+03  0.15099717403E+03  0.41800000000E+01 0.  1.
         -5    1    4    4    0  501  0.68544354210E+02 -0.40202669465E+02 -0.22206861539E+03  0.23589515779E+03  0.41800000000E+01 0.  1.
</event>
<event>
11    1  0.8551154E-009  0.1647867E+03  0.7561462E-02  0.1082660E+00
         22   -1    0    0    0    0  0.00000000000E+00  0.00000000000E+00  0.25134076919E+03  0.25134076919E+03  0.00000000000E+00 0.  1.
         22   -1    0    0    0    0 -0.00000000000E+00 -0.00000000000E+00 -0.27013990309E+03  0.27013990309E+03  0.00000000000E+00 0.  1.
        -24    2    1    2    0    0 -0.92075922226E+02  0.44325971298E+02 -0.13938045987E+03  0.19084810893E+03  0.80952584296E+02 0.  0.
         25    2    1    2    0    0  0.11549653237E+03 -0.45402174201E+02 -0.85626996625E+01  0.17641209736E+03  0.12508837619E+03 0.  0.
         24    2    1    2    0    0 -0.23420610144E+02  0.10762029031E+01  0.12914402563E+03  0.15422046599E+03  0.80969683108E+02 0.  0.
        -11    1    5    5    0    0  0.10287479121E+02  0.22779059561E+01  0.11833235206E+03  0.11880053294E+03  0.00000000000E+00 0.  1.
         12    1    5    5    0    0 -0.33708089265E+02 -0.12017030529E+01  0.10811673569E+02  0.35419933053E+02  0.00000000000E+00 0. -1.
         11    1    3    3    0    0 -0.11819145177E+02  0.46301981111E+02 -0.35339671799E+02  0.59434485363E+02  0.00000000000E+00 0. -1.
        -12    1    3    3    0    0 -0.80256777050E+02 -0.19760098130E+01 -0.10404078807E+03  0.13141362357E+03  0.00000000000E+00 0.  1.
          5    1    4    4  501    0  0.52792254593E+02 -0.10820227785E+02 -0.65434458582E+02  0.84871904917E+02  0.41800000000E+01 0.  1.
         -5    1    4    4    0  501  0.62704277777E+02 -0.34581946416E+02  0.56871758919E+02  0.91540192441E+02  0.41800000000E+01 0.  1.
</event>
<event>
11    1  0.8551154E-009  0.1437910E+03  0.7561462E-02  0.1103397E+00
         22   -1    0    0    0    0  0.00000000000E+00  0.00000000000E+00  0.20669699503E+04  0.20669699503E+04  0.00000000000E+00 0.  1.
         22   -1    0    0    0    0 -0.00000000000E+00 -0.00000000000E+00 -0.29638807433E+03  0.29638807433E+03  0.00000000000E+00 0. -1.
         24    2    1    2    0    0  0.17485684778E+02 -0.68602396884E+02 -0.26329003099E+03  0.28556230163E+03  0.84924376139E+02 0.  0.
         25    2    1    2    0    0 -0.81307167920E+01  0.73532517935E+02  0.23080414726E+03  0.27274992450E+03  0.12509527239E+03 0.  0.
        -24    2    1    2    0    0 -0.93549679856E+01 -0.49301210506E+01  0.18030677596E+04  0.18050457985E+04  0.83816269968E+02 0.  0.
        -11    1    3    3    0    0 -0.19351808385E+02 -0.29900474505E+02 -0.31035963814E+02  0.47241527424E+02  0.00000000000E+00 0.  1.
         12    1    3    3    0    0  0.36837493163E+02 -0.38701922379E+02 -0.23225406717E+03  0.23832077420E+03  0.00000000000E+00 0. -1.
         13    1    5    5    0    0  0.25580493680E+02  0.39067221234E+01  0.21248705405E+03  0.21405693699E+03  0.00000000000E+00 0. -1.
        -14    1    5    5    0    0 -0.34935461666E+02 -0.88368431740E+01  0.15905807056E+04  0.15909888615E+04  0.00000000000E+00 0.  1.
          5    1    4    4  501    0  0.40386636726E+02  0.15150902258E+02  0.16989344191E+03  0.17533363701E+03  0.41800000000E+01 0.  1.
         -5    1    4    4    0  501 -0.48517353518E+02  0.58381615676E+02  0.60910705356E+02  0.97416287490E+02  0.41800000000E+01 0.  1.
</event>
<event>
11    1  0.8551154E-009  0.1657707E+03  0.7561462E-02  0.1081772E+00
         22   -1    0    0    0    0  0.00000000000E+00  0.00000000000E+00  0.81797532298E+02  0.81797532298E+02  0.00000000000E+00 0. -1.
         22   -1    0    0    0    0 -0.00000000000E+00 -0.00000000000E+00 -0.70901574592E+03  0.70901574592E+03  0.00000000000E+00 0. -1.
         24    2    1    2    0    0  0.33167658490E+02 -0.55675873934E+02 -0.17518670077E+03  0.20096493816E+03  0.74139259054E+02 0.  0.
         25    2    1    2    0    0 -0.10683815553E+03  0.11948943869E+03 -0.40149073907E+03  0.45004012120E+03  0.12509668137E+03 0.  0.
        -24    2    1    2    0    0  0.73670497043E+02 -0.63813564759E+02 -0.50540773777E+02  0.13980821886E+03  0.86558968722E+02 0.  0.
        -11    1    3    3    0    0  0.35980374016E+02  0.45423868925E+01 -0.47490704477E+02  0.59754394021E+02  0.00000000000E+00 0.  1.
         12    1    3    3    0    0 -0.28127155266E+01 -0.60218260826E+02 -0.12769599630E+03  0.14121054414E+03  0.00000000000E+00 0. -1.
         11    1    5    5    0    0  0.86108675174E+02 -0.53960259654E+02 -0.17445663210E+02  0.10310559988E+03  0.00000000000E+00 0. -1.
        -12    1    5    5    0    0 -0.12438178131E+02 -0.98533051045E+01 -0.33095110567E+02  0.36702618982E+02  0.00000000000E+00 0.  1.
          5    1    4    4  501    0 -0.73911852521E+02  0.79787368318E+02 -0.11280400534E+03  0.15675204020E+03  0.41800000000E+01 0. -1.
         -5    1    4    4    0  501 -0.32926303011E+02  0.39702070375E+02 -0.28868673373E+03  0.29328808099E+03  0.41800000000E+01 0. -1.
</event>
<event>
11    1  0.8551154E-009  0.1300905E+03  0.7561462E-02  0.1119158E+00
         22   -1    0    0    0    0  0.00000000000E+00  0.00000000000E+00  0.12222260473E+04  0.12222260473E+04  0.00000000000E+00 0.  1.
         22   -1    0    0    0    0 -0.00000000000E+00 -0.00000000000E+00 -0.37409666696E+03  0.37409666696E+03  0.00000000000E+00 0.  1.
         24    2    1    2    0    0 -0.16079351641E+02  0.33026270473E+02 -0.33492934993E+03  0.34607490473E+03  0.78999304736E+02 0.  0.
         25    2    1    2    0    0  0.49092555317E+01 -0.12807627926E+02  0.91740594493E+02  0.15572662657E+03  0.12508520864E+03 0.  0.
        -24    2    1    2    0    0  0.11170096109E+02 -0.20218642547E+02  0.10913181358E+04  0.10945211830E+04  0.80422521239E+02 0.  0.
        -11    1    3    3    0    0 -0.21445228827E+02 -0.74529412670E+01 -0.25785111006E+03  0.25884867999E+03  0.00000000000E+00 0.  1.
         12    1    3    3    0    0  0.53658771855E+01  0.40479211740E+02 -0.77078239870E+02  0.87226224741E+02  0.00000000000E+00 0. -1.
         11    1    5    5    0    0  0.17375202592E+02  0.23348103283E+02  0.72266301669E+03  0.72324882806E+03  0.00000000000E+00 0. -1.
        -12    1    5    5    0    0 -0.62051064827E+01 -0.43566745829E+02  0.36865511911E+03  0.37127235493E+03  0.00000000000E+00 0.  1.
          5    1    4    4  501    0  0.41405279494E+02 -0.34799980712E+02  0.98433056342E+02  0.11239205848E+03  0.41800000000E+01 0. -1.
         -5    1    4    4    0  501 -0.36496023962E+02  0.21992352786E+02 -0.66924618483E+01  0.43334568092E+02  0.41800000000E+01 0. -1.
</event>
<event>
11    1  0.8551154E-009  0.1324001E+03  0.7561462E-02  0.1116355E+00
         22   -1    0    0    0    0  0.00000000000E+00  0.00000000000E+00  0.69900750755E+03  0.69900750755E+03  0.00000000000E+00 0.  1.
         22   -1    0    0    0    0 -0.00000000000E+00 -0.00000000000E+00 -0.14938234946E+04  0.14938234946E+04  0.00000000000E+00 0.  1.
        -24    2    1    2    0    0  0.40623877659E+02  0.13949901906E+01 -0.14409824855E+04  0.14437432981E+04  0.79447730130E+02 0.  0.
         25    2    1    2    0    0 -0.34239795504E+02  0.41943614580E+02  0.48771618837E+02  0.14476413739E+03  0.12508538792E+03 0.  0.
         24    2    1    2    0    0 -0.63840821558E+01 -0.43338604771E+02  0.59739487956E+03  0.60432356671E+03  0.80045861757E+02 0.  0.
        -13    1    5    5    0    0 -0.27944186700E+02 -0.55133457713E+02  0.32524123706E+03  0.33106258927E+03  0.00000000000E+00 0.  1.
         14    1    5    5    0    0  0.21560104544E+02  0.11794852942E+02  0.27215364250E+03  0.27326097744E+03  0.00000000000E+00 0. -1.
         13    1    3    3    0    0  0.88205004864E+01 -0.30428121229E+02 -0.26288988069E+03  0.26479192049E+03  0.00000000000E+00 0. -1.
        -14    1    3    3    0    0  0.31803377173E+02  0.31823111420E+02 -0.11780926048E+04  0.11789513776E+04  0.00000000000E+00 0.  1.
          5    1    4    4  501    0 -0.24739886924E+02  0.27494536964E+02 -0.39759181333E+02  0.54463533379E+02  0.41800000000E+01 0.  1.
         -5    1    4    4    0  501 -0.94999085794E+01  0.14449077616E+02  0.88530800169E+02  0.90300604016E+02  0.41800000000E+01 0.  1.
</event>
<event>
11    1  0.8551154E-009  0.1477895E+03  0.7561462E-02  0.1099159E+00
         22   -1    0    0    0    0  0.00000000000E+00  0.00000000000E+00  0.49221128323E+03  0.49221128323E+03  0.00000000000E+00 0. -1.
         22   -1    0    0    0    0 -0.00000000000E+00 -0.00000000000E+00 -0.40259447996E+03  0.40259447996E+03  0.00000000000E+00 0. -1.
        -24    2    1    2    0    0 -0.35522865670E+02  0.71000713772E+02 -0.27911835284E+03  0.30160942536E+03  0.82208364744E+02 0.  0.
         25    2    1    2    0    0  0.69002144271E+02 -0.47856271314E+02 -0.54786097996E+02  0.16031281277E+03  0.12508861973E+03 0.  0.
         24    2    1    2    0    0 -0.33479278601E+02 -0.23144442458E+02  0.42352125411E+03  0.43288352505E+03  0.79758173666E+02 0.  0.
        -13    1    5    5    0    0  0.17913033675E+02  0.16455580651E+02  0.13299504094E+03  0.13520112361E+03  0.00000000000E+00 0.  1.
         14    1    5    5    0    0 -0.51392312276E+02 -0.39600023109E+02  0.29052621317E+03  0.29768240145E+03  0.00000000000E+00 0. -1.
         11    1    3    3    0    0 -0.23358482301E+01  0.67051801585E+02 -0.24430540345E+03  0.25335060773E+03  0.00000000000E+00 0. -1.
        -12    1    3    3    0    0 -0.33187017440E+02  0.39489121871E+01 -0.34812949391E+02  0.48258817633E+02  0.00000000000E+00 0.  1.
          5    1    4    4  501    0  0.38792580135E+02  0.20723167334E+02  0.25008662784E+02  0.50766323012E+02  0.41800000000E+01 0. -1.
         -5    1    4    4    0  501  0.30209564136E+02 -0.68579438649E+02 -0.79794760780E+02  0.10954648976E+03  0.41800000000E+01 0. -1.
</event>
<event>
11    1  0.8551154E-009  0.1404494E+03  0.7561462E-02  0.1107058E+00
         22   -1    0    0    0    0  0.00000000000E+00  0.00000000000E+00  0.55487653079E+03  0.55487653079E+03  0.00000000000E+00 0. -1.
         22   -1    0    0    0    0 -0.00000000000E+00 -0.00000000000E+00 -0.15461061629E+03  0.15461061629E+03  0.00000000000E+00 0. -1.
        -24    2    1    2    0    0  0.10180208084E+02 -0.18846298393E+02 -0.10279512856E+03  0.13389050457E+03  0.83072312827E+02 0.  0.
         25    2    1    2    0    0  0.35135247409E+02  0.61849831274E+02  0.15448758267E+03  0.21112665282E+03  0.12509261807E+03 0.  0.
         24    2    1    2    0    0 -0.45315455494E+02 -0.43003532882E+02  0.34857346040E+03  0.36446998969E+03  0.86209754345E+02 0.  0.
        -11    1    5    5    0    0 -0.26142964073E+02 -0.76744485435E+01  0.20896469663E+02  0.34336775844E+02  0.00000000000E+00 0.  1.
         12    1    5    5    0    0 -0.19172491420E+02 -0.35329084338E+02  0.32767699073E+03  0.33013321385E+03  0.00000000000E+00 0. -1.
         13    1    3    3    0    0  0.34801085336E+02  0.59643126208E+01 -0.89983538870E+02  0.96662949640E+02  0.00000000000E+00 0. -1.
        -14    1    3    3    0    0 -0.24620877252E+02 -0.24810611013E+02 -0.12811589686E+02  0.37227554926E+02  0.00000000000E+00 0.  1.
          5    1    4    4  501    0  0.15076335316E+02  0.90846154818E+01  0.15345048011E+03  0.15451326277E+03  0.41800000000E+01 0. -1.
         -5    1    4    4    0  501  0.20058912093E+02  0.52765215792E+02  0.10371025554E+01  0.56613390056E+02  0.41800000000E+01 0. -1.
</event>
<event>
11    1  0.8551154E-009  0.2128224E+03  0.7561462E-02  0.1045809E+00
         22   -1    0    0    0    0  0.00000000000E+00  0.00000000000E+00  0.14110329845E+03  0.14110329845E+03  0.00000000000E+00 0.  1.
         22   -1    0    0    0    0 -0.00000000000E+00 -0.00000000000E+00 -0.20067436475E+04  0.20067436475E+04  0.00000000000E+00 0.  1.
        -24    2    1    2    0    0  0.62545171798E+01  0.12513398253E+03 -0.16419758811E+04  0.16487456046E+04  0.81114992104E+02 0.  0.
         25    2    1    2    0    0  0.89162626834E+02 -0.23048553253E+03 -0.17066123056E+03  0.32533947007E+03  0.12508781091E+03 0.  0.
         24    2    1    2    0    0 -0.95417144014E+02  0.10535154999E+03 -0.53003237407E+02  0.17376187132E+03  0.84737620284E+02 0.  0.
        -11    1    5    5    0    0 -0.13358282190E+02  0.57082163329E+02 -0.52290313575E+02  0.78556310805E+02  0.00000000000E+00 0.  1.
         12    1    5    5    0    0 -0.82058861824E+02  0.48269386666E+02 -0.71292383191E+00  0.95205560517E+02  0.00000000000E+00 0. -1.
         11    1    3    3    0    0  0.12984863973E+02  0.30710530611E+02 -0.14519526495E+03  0.14897452248E+03  0.00000000000E+00 0. -1.
        -12    1    3    3    0    0 -0.67303467937E+01  0.94423451922E+02 -0.14967806161E+04  0.14997710821E+04  0.00000000000E+00 0.  1.
          5    1    4    4  501    0  0.10021397337E+03 -0.15505846130E+03 -0.66682123851E+02  0.19634139890E+03  0.41800000000E+01 0. -1.
         -5    1    4    4    0  501 -0.11051346533E+02 -0.75427071226E+02 -0.10397910671E+03  0.12899807117E+03  0.41800000000E+01 0. -1.
</event>
<event>
11    1  0.8551154E-009  0.1417863E+03  0.7561462E-02  0.1105580E+00
         22   -1    0    0    0    0  0.00000000000E+00  0.00000000000E+00  0.70917068916E+03  0.70917068916E+03  0.00000000000E+00 0. -1.
         22   -1    0    0    0    0 -0.00000000000E+00 -0.00000000000E+00 -0.49172534438E+03  0.49172534438E+03  0.00000000000E+00 0.  1.
         24    2    1    2    0    0 -0.63321583614E+02 -0.22540274588E+02 -0.43818936359E+03  0.45040478744E+03  0.79604442392E+02 0.  0.
         25    2    1    2    0    0  0.52008634516E+02  0.28777278278E+02  0.62736576706E+02  0.15203968044E+03  0.12508859485E+03 0.  0.
        -24    2    1    2    0    0  0.11312949098E+02 -0.62370036905E+01  0.59289813167E+03  0.59845156566E+03  0.80306904281E+02 0.  0.
        -13    1    3    3    0    0 -0.23140749954E+02  0.67306727694E+01 -0.33499369252E+03  0.33585945020E+03  0.00000000000E+00 0.  1.
         14    1    3    3    0    0 -0.40180833660E+02 -0.29270947357E+02 -0.10319567107E+03  0.11454533723E+03  0.00000000000E+00 0. -1.
         11    1    5    5    0    0 -0.34272072106E+02  0.24692240400E+01  0.28780056735E+03  0.28984450756E+03  0.00000000000E+00 0. -1.
        -12    1    5    5    0    0  0.45585021204E+02 -0.87062277304E+01  0.30509756432E+03  0.30860705810E+03  0.00000000000E+00 0.  1.
          5    1    4    4  501    0 -0.12400427498E+02 -0.90229907403E+01 -0.29364854569E+02  0.33390897680E+02  0.41800000000E+01 0.  1.
         -5    1    4    4    0  501  0.64409062014E+02  0.37800269019E+02  0.92101431274E+02  0.11864878276E+03  0.41800000000E+01 0.  1.
</event>
<event>
11    1  0.8551154E-009  0.1530515E+03  0.7561462E-02  0.1093801E+00
         22   -1    0    0    0    0  0.00000000000E+00  0.00000000000E+00  0.81038578593E+03  0.81038578593E+03  0.00000000000E+00 0.  1.
         22   -1    0    0    0    0 -0.00000000000E+00 -0.00000000000E+00 -0.35553947561E+03  0.35553947561E+03  0.00000000000E+00 0.  1.
        -24    2    1    2    0    0  0.29118739867E+02 -0.84009492225E+02 -0.32418456353E+03  0.34608319032E+03  0.82294881967E+02 0.  0.
         25    2    1    2    0    0 -0.27909136582E+02  0.62555237816E+02  0.28320040741E+03  0.31708452501E+03  0.12509215627E+03 0.  0.
         24    2    1    2    0    0 -0.12096032853E+01  0.21454254410E+02  0.49583046644E+03  0.50275754621E+03  0.80346441441E+02 0.  0.
        -13    1    5    5    0    0  0.20039909191E+01  0.24285267331E+02  0.49754718991E+03  0.49814354997E+03  0.00000000000E+00 0.  1.
         14    1    5    5    0    0 -0.32135942045E+01 -0.28310129210E+01 -0.17167234699E+01  0.46139962442E+01  0.00000000000E+00 0. -1.
         13    1    3    3    0    0  0.34788360738E+02 -0.43095026205E+01 -0.54406810656E+02  0.64721734382E+02  0.00000000000E+00 0. -1.
        -14    1    3    3    0    0 -0.56696208705E+01 -0.79699989605E+02 -0.26977775287E+03  0.28136145594E+03  0.00000000000E+00 0.  1.
          5    1    4    4  501    0 -0.70281005168E+02  0.41052039142E+02  0.10677373261E+03  0.13432346028E+03  0.41800000000E+01 0.  1.
         -5    1    4    4    0  501  0.42371868586E+02  0.21503198674E+02  0.17642667480E+03  0.18276106473E+03  0.41800000000E+01 0.  1.
</event>
<event>
11    1  0.8551154E-009  0.1357387E+03  0.7561462E-02  0.1112412E+00
         22   -1    0    0    0    0  0.00000000000E+00  0.00000000000E+00  0.67640526686E+03  0.67640526686E+03  0.00000000000E+00 0. -1.
         22   -1    0    0    0    0 -0.00000000000E+00 -0.00000000000E+00 -0.44370081882E+03  0.44370081882E+03  0.00000000000E+00 0.  1.
         24    2    1    2    0    0 -0.52655281621E+02  0.14905906665E+02 -0.40094768932E+03  0.41285885099E+03  0.81845076447E+02 0.  0.
         25    2    1    2    0    0  0.11379182755E+02 -0.37536361495E+01  0.86406025618E+02  0.15250540604E+03  0.12509325330E+03 0.  0.
        -24    2    1    2    0    0  0.41276098865E+02 -0.11152270515E+02  0.54724611174E+03  0.55474182865E+03  0.80200375046E+02 0.  0.
        -13    1    3    3    0    0 -0.67184520071E+02  0.26831989296E+02 -0.23588997235E+03  0.24673425875E+03  0.00000000000E+00 0.  1.
         14    1    3    3    0    0  0.14529238450E+02 -0.11926082631E+02 -0.16505771697E+03  0.16612459224E+03  0.00000000000E+00 0. -1.
         11    1    5    5    0    0  0.88140006147E+01 -0.17044280559E+02  0.47422750093E+03  0.47461554625E+03  0.00000000000E+00 0. -1.
        -12    1    5    5    0    0  0.32462098251E+02  0.58920100438E+01  0.73018610810E+02  0.80126282391E+02  0.00000000000E+00 0.  1.
          5    1    4    4  501    0 -0.72878778863E+01 -0.51779080647E+02  0.75338318407E+00  0.52461665461E+02  0.41800000000E+01 0. -1.
         -5    1    4    4    0  501  0.18667060642E+02  0.48025444497E+02  0.85652642434E+02  0.10004374057E+03  0.41800000000E+01 0. -1.
</event>
<event>
11    1  0.8551154E-009  0.1497355E+03  0.7561462E-02  0.1097149E+00
         22   -1    0    0    0    0  0.00000000000E+00  0.00000000000E+00  0.32104162875E+03  0.32104162875E+03  0.00000000000E+00 0.  1.
         22   -1    0    0    0    0 -0.00000000000E+00 -0.00000000000E+00 -0.74833808863E+03  0.74833808863E+03  0.00000000000E+00 0.  1.
         24    2    1    2    0    0 -0.16486523274E+02  0.87102383115E+02 -0.64120843533E+03  0.65223114499E+03  0.79991114206E+02 0.  0.
         25    2    1    2    0    0  0.82645815461E+01 -0.29566377483E+02 -0.47554152566E+02  0.13730099219E+03  0.12509073125E+03 0.  0.
        -24    2    1    2    0    0  0.82219417280E+01 -0.57536005632E+02  0.26146612803E+03  0.27984758020E+03  0.81068734851E+02 0.  0.
        -13    1    3    3    0    0 -0.25654284612E+02  0.46989545869E+02 -0.54459938499E+03  0.54722449678E+03  0.00000000000E+00 0.  1.
         14    1    3    3    0    0  0.91677613375E+01  0.40112837246E+02 -0.96609050342E+02  0.10500664821E+03  0.00000000000E+00 0. -1.
         11    1    5    5    0    0  0.18550666088E+02 -0.31327354433E+02  0.31443516873E+02  0.48106393560E+02  0.00000000000E+00 0. -1.
        -12    1    5    5    0    0 -0.10328724360E+02 -0.26208651199E+02  0.23002261115E+03  0.23174118664E+03  0.00000000000E+00 0.  1.
          5    1    4    4  501    0 -0.39724350179E+02 -0.54166810176E+02 -0.32444218461E+01  0.67380011835E+02  0.41800000000E+01 0.  1.
         -5    1    4    4    0  501  0.47988931725E+02  0.24600432693E+02 -0.44309730720E+02  0.69920980351E+02  0.41800000000E+01 0.  1.
</event>
<event>
11    1  0.8551154E-009  0.1554781E+03  0.7561462E-02  0.1091409E+00
         22   -1    0    0    0    0  0.00000000000E+00  0.00000000000E+00  0.13491354346E+03  0.13491354346E+03  0.00000000000E+00 0.  1.
         22   -1    0    0    0    0 -0.00000000000E+00 -0.00000000000E+00 -0.57986213044E+03  0.57986213044E+03  0.00000000000E+00 0. -1.
         24    2    1    2    0    0  0.19736023942E+02  0.92119787301E+02 -0.44500602698E+03  0.46193486982E+03  0.80485365468E+02 0.  0.
         25    2    1    2    0    0  0.24320759223E+01 -0.82372513968E+02 -0.49282390112E+02  0.15769531809E+03  0.12509161971E+03 0.  0.
        -24    2    1    2    0    0 -0.22168099865E+02 -0.97472733332E+01  0.49339830115E+02  0.95145485991E+02  0.77664732535E+02 0.  0.
        -11    1    3    3    0    0 -0.22695662083E+02  0.65295597703E+02 -0.19373594690E+03  0.20569935653E+03  0.00000000000E+00 0.  1.
         12    1    3    3    0    0  0.42431686026E+02  0.26824189599E+02 -0.25127008008E+03  0.25623551329E+03  0.00000000000E+00 0. -1.
         11    1    5    5    0    0  0.19679364342E+02 -0.29142541737E+02  0.23221179284E+02  0.42140103075E+02  0.00000000000E+00 0. -1.
        -12    1    5    5    0    0 -0.41847464206E+02  0.19395268404E+02  0.26118650830E+02  0.53005382917E+02  0.00000000000E+00 0.  1.
          5    1    4    4  501    0  0.24128471306E+02 -0.42280082038E+02  0.36144673661E+02  0.60775803564E+02  0.41800000000E+01 0. -1.
         -5    1    4    4    0  501 -0.21696395384E+02 -0.40092431930E+02 -0.85427063773E+02  0.96919514525E+02  0.41800000000E+01 0. -1.
</event>
<event>
11    1  0.1650203E-008  0.1167851E+04  0.7561462E-02  0.8533941E-01
         22   -1    0    0    0    0  0.00000000000E+00  0.00000000000E+00  0.22871591049E+04  0.22871591049E+04  0.00000000000E+00 0.  1.
         22   -1    0    0    0    0 -0.00000000000E+00 -0.00000000000E+00 -0.12976817785E+04  0.12976817785E+04  0.00000000000E+00 0.  1.
         24    2    1    2    0    0 -0.68709051788E+03 -0.14867990124E+03 -0.17822866311E+03  0.72966530261E+03  0.80292619111E+02 0.  0.
         25    2    1    2    0    0  0.13530017309E+04 -0.65311772407E+03  0.40453367785E+03  0.15609202371E+04  0.12509214476E+03 0.  0.
        -24    2    1    2    0    0 -0.66591121304E+03  0.80179762531E+03  0.76317231165E+03  0.12942553437E+04  0.79672717588E+02 0.  0.
        -11    1    3    3    0    0 -0.15066499181E+03 -0.71783763541E+01 -0.60619238275E+02  0.16256125274E+03  0.00000000000E+00 0.  1.
         12    1    3    3    0    0 -0.53642552607E+03 -0.14150152488E+03 -0.11760942483E+03  0.56710404987E+03  0.00000000000E+00 0. -1.
         11    1    5    5    0    0 -0.23409461887E+03  0.32443104607E+03  0.25862946947E+03  0.47638744391E+03  0.00000000000E+00 0. -1.
        -12    1    5    5    0    0 -0.43181659418E+03  0.47736657924E+03  0.50454284219E+03  0.81786789984E+03  0.00000000000E+00 0.  1.
          5    1    4    4  501    0  0.10719085755E+04 -0.46013770400E+03  0.32045164852E+03  0.12097195677E+04  0.41800000000E+01 0. -1.
         -5    1    4    4    0  501  0.28109315539E+03 -0.19298002007E+03  0.84082029335E+02  0.35120066943E+03  0.41800000000E+01 0. -1.
</event>
<event>
11    1  0.8551154E-009  0.1651202E+03  0.7561462E-02  0.1082358E+00
         22   -1    0    0    0    0  0.00000000000E+00  0.00000000000E+00  0.88612104697E+03  0.88612104697E+03  0.00000000000E+00 0.  1.
         22   -1    0    0    0    0 -0.00000000000E+00 -0.00000000000E+00 -0.96007551525E+02  0.96007551525E+02  0.00000000000E+00 0.  1.
         24    2    1    2    0    0 -0.27727254523E+02  0.10412200143E+03 -0.38406752722E+01  0.13304892652E+03  0.77955591442E+02 0.  0.
         25    2    1    2    0    0  0.80535509133E+02 -0.87851443182E+02  0.30759039437E+03  0.35279406624E+03  0.12509179894E+03 0.  0.
        -24    2    1    2    0    0 -0.52808254610E+02 -0.16270558248E+02  0.48636377635E+03  0.49628560573E+03  0.81830536452E+02 0.  0.
        -13    1    3    3    0    0 -0.17536106301E+02  0.10233409941E+03 -0.27346425101E+02  0.10736670756E+03  0.00000000000E+00 0.  1.
         14    1    3    3    0    0 -0.10191148222E+02  0.17879020165E+01  0.23505749829E+02  0.25682218960E+02  0.00000000000E+00 0. -1.
         11    1    5    5    0    0 -0.43968209508E+02 -0.25916555530E+02  0.12968131697E+03  0.13936324935E+03  0.00000000000E+00 0. -1.
        -12    1    5    5    0    0 -0.88400451022E+01  0.96459972819E+01  0.35668245938E+03  0.35692235639E+03  0.00000000000E+00 0.  1.
          5    1    4    4  501    0  0.41558806772E+02 -0.66936945738E+02  0.54642706651E+02  0.95973886632E+02  0.41800000000E+01 0. -1.
         -5    1    4    4    0  501  0.38976702361E+02 -0.20914497444E+02  0.25294768772E+03  0.25682017960E+03  0.41800000000E+01 0. -1.
</event>
<event>
11    1  0.1038584E-008  0.1634185E+03  0.7561462E-02  0.1083905E+00
         22   -1    0    0    0    0  0.00000000000E+00  0.00000000000E+00  0.48856976880E+03  0.48856976880E+03  0.00000000000E+00 0. -1.
         22   -1    0    0    0    0 -0.00000000000E+00 -0.00000000000E+00 -0.56249792247E+03  0.56249792247E+03  0.00000000000E+00 0.  1.
         24    2    1    2    0    0  0.62184743548E+02 -0.39500005851E+02 -0.46293989142E+03  0.47572473497E+03  0.81077047313E+02 0.  0.
         25    2    1    2    0    0  0.13420771387E+02  0.11488175450E+03  0.69997660638E+01  0.17051324208E+03  0.12509130416E+03 0.  0.
        -24    2    1    2    0    0 -0.75605514935E+02 -0.75381748653E+02  0.38201197170E+03  0.40482971422E+03  0.80965110217E+02 0.  0.
        -13    1    3    3    0    0  0.18727128900E+02 -0.28526116263E+02 -0.37930131149E+03  0.38083320439E+03  0.00000000000E+00 0.  1.
         14    1    3    3    0    0  0.43457614648E+02 -0.10973889588E+02 -0.83638579936E+02  0.94891530588E+02  0.00000000000E+00 0. -1.
         13    1    5    5    0    0 -0.65952404443E+02 -0.82363418305E+02  0.37769753196E+03  0.39215925078E+03  0.00000000000E+00 0. -1.
        -14    1    5    5    0    0 -0.96531104921E+01  0.69816696520E+01  0.43144397374E+01  0.12670463431E+02  0.00000000000E+00 0.  1.
          5    1    4    4  501    0 -0.25105407613E+02  0.12716110900E+03  0.38507495451E+01  0.12974023973E+03  0.41800000000E+01 0.  1.
         -5    1    4    4    0  501  0.38526179000E+02 -0.12279354498E+02  0.31490165187E+01  0.40773002346E+02  0.41800000000E+01 0.  1.
</event>
<event>
11    1  0.8551154E-009  0.1332735E+03  0.7561462E-02  0.1115311E+00
         22   -1    0    0    0    0  0.00000000000E+00  0.00000000000E+00  0.19472224015E+03  0.19472224015E+03  0.00000000000E+00 0. -1.
         22   -1    0    0    0    0 -0.00000000000E+00 -0.00000000000E+00 -0.23091655435E+03  0.23091655435E+03  0.00000000000E+00 0. -1.
         24    2    1    2    0    0 -0.10121498526E+02  0.97364123838E+01 -0.83539796035E+02  0.11728832258E+03  0.81119730232E+02 0.  0.
         25    2    1    2    0    0  0.30730454229E+02  0.31890488731E+02 -0.77007155143E+02  0.15342473322E+03  0.12509069802E+03 0.  0.
        -24    2    1    2    0    0 -0.20608955703E+02 -0.41626901114E+02  0.12435263698E+03  0.15492573871E+03  0.79880399592E+02 0.  0.
        -11    1    3    3    0    0  0.25399390757E+02 -0.21488549208E+02 -0.22913489782E+02  0.40396965380E+02  0.00000000000E+00 0.  1.
         12    1    3    3    0    0 -0.35520889283E+02  0.31224961592E+02 -0.60626306253E+02  0.76891357198E+02  0.00000000000E+00 0. -1.
         11    1    5    5    0    0 -0.35712682210E+02 -0.32162518726E+01  0.10171813481E+03  0.10785322849E+03  0.00000000000E+00 0. -1.
        -12    1    5    5    0    0  0.15103726507E+02 -0.38410649242E+02  0.22634502167E+02  0.47072510215E+02  0.00000000000E+00 0.  1.
          5    1    4    4  501    0  0.71914019491E+02  0.40803273477E+02 -0.25251297840E+02  0.86554224440E+02  0.41800000000E+01 0. -1.
         -5    1    4    4    0  501 -0.41183565262E+02 -0.89127847465E+01 -0.51755857303E+02  0.66870508782E+02  0.41800000000E+01 0. -1.
</event>
<event>
11    1  0.8551154E-009  0.3147574E+03  0.7561462E-02  0.9941320E-01
         22   -1    0    0    0    0  0.00000000000E+00  0.00000000000E+00  0.93873024932E+03  0.93873024932E+03  0.00000000000E+00 0. -1.
         22   -1    0    0    0    0 -0.00000000000E+00 -0.00000000000E+00 -0.12290392240E+04  0.12290392240E+04  0.00000000000E+00 0. -1.
         24    2    1    2    0    0 -0.21331643319E+02  0.29501441939E+01 -0.59059842447E+03  0.59631251523E+03  0.79488203390E+02 0.  0.
         25    2    1    2    0    0  0.47222036141E+02 -0.29043029493E+03 -0.56862051697E+03  0.65234555478E+03  0.12508298690E+03 0.  0.
        -24    2    1    2    0    0 -0.25890392822E+02  0.28748015073E+03  0.86890996677E+03  0.91911140331E+03  0.80287557133E+02 0.  0.
        -11    1    3    3    0    0  0.19224394107E+02 -0.13155016467E+02 -0.67681858443E+02  0.71578388843E+02  0.00000000000E+00 0.  1.
         12    1    3    3    0    0 -0.40556037426E+02  0.16105160661E+02 -0.52291656603E+03  0.52473412639E+03  0.00000000000E+00 0. -1.
         11    1    5    5    0    0 -0.49095426380E+02  0.17651133194E+03  0.59801428471E+03  0.62544999473E+03  0.00000000000E+00 0. -1.
        -12    1    5    5    0    0  0.23205033558E+02  0.11096881879E+03  0.27089568206E+03  0.29366140858E+03  0.00000000000E+00 0.  1.
          5    1    4    4  501    0  0.48180145919E+02 -0.10860181427E+03 -0.34011157850E+03  0.36029021463E+03  0.41800000000E+01 0. -1.
         -5    1    4    4    0  501 -0.95810977805E+00 -0.18182848066E+03 -0.22850893847E+03  0.29205534016E+03  0.41800000000E+01 0. -1.
</event>
<event>
11    1  0.8551154E-009  0.1742669E+03  0.7561462E-02  0.1074377E+00
         22   -1    0    0    0    0  0.00000000000E+00  0.00000000000E+00  0.50299766733E+03  0.50299766733E+03  0.00000000000E+00 0. -1.
         22   -1    0    0    0    0 -0.00000000000E+00 -0.00000000000E+00 -0.99378936181E+03  0.99378936181E+03  0.00000000000E+00 0. -1.
        -24    2    1    2    0    0  0.52751446877E+02  0.98811798444E+00 -0.86535003337E+03  0.87071122192E+03  0.80769178602E+02 0.  0.
         25    2    1    2    0    0  0.73846830036E+02  0.32849881649E+01 -0.66342062413E+02  0.15972705623E+03  0.12508923932E+03 0.  0.
         24    2    1    2    0    0 -0.12659827691E+03 -0.42731061494E+01  0.44090040130E+03  0.46634875099E+03  0.83920262933E+02 0.  0.
        -11    1    5    5    0    0 -0.42396008141E+02 -0.34638491458E+02  0.10127000712E+03  0.11512107078E+03  0.00000000000E+00 0.  1.
         12    1    5    5    0    0 -0.84202268771E+02  0.30365385308E+02  0.33963039418E+03  0.35122768021E+03  0.00000000000E+00 0. -1.
         11    1    3    3    0    0 -0.17421855217E+02  0.15784350385E+02 -0.27976838076E+03  0.28075436529E+03  0.00000000000E+00 0. -1.
        -12    1    3    3    0    0  0.70173302094E+02 -0.14796232400E+02 -0.58558165261E+03  0.58995685664E+03  0.00000000000E+00 0.  1.
          5    1    4    4  501    0  0.72961777324E+02 -0.48767183193E+02 -0.61565043668E+02  0.10728180698E+03  0.41800000000E+01 0. -1.
         -5    1    4    4    0  501  0.88505271186E+00  0.52052171358E+02 -0.47770187453E+01  0.52445249255E+02  0.41800000000E+01 0. -1.
</event>
<event>
11    1  0.8551154E-009  0.1328309E+03  0.7561462E-02  0.1115839E+00
         22   -1    0    0    0    0  0.00000000000E+00  0.00000000000E+00  0.47895193831E+03  0.47895193831E+03  0.00000000000E+00 0. -1.
         22   -1    0    0    0    0 -0.00000000000E+00 -0.00000000000E+00 -0.27229570245E+03  0.27229570245E+03  0.00000000000E+00 0. -1.
        -24    2    1    2    0    0  0.36935535729E+02  0.38445623763E+02 -0.22849618811E+03  0.24803341704E+03  0.80422435926E+02 0.  0.
         25    2    1    2    0    0  0.12467228376E+02 -0.11674776320E+02  0.12575706942E+03  0.17819584278E+03  0.12508871127E+03 0.  0.
         24    2    1    2    0    0 -0.49402764106E+02 -0.26770847443E+02  0.30939535455E+03  0.32501838094E+03  0.82183642907E+02 0.  0.
        -13    1    5    5    0    0 -0.11086650753E+02  0.18035717231E+02  0.18210923874E+02  0.27925591655E+02  0.00000000000E+00 0.  1.
         14    1    5    5    0    0 -0.38316113352E+02 -0.44806564674E+02  0.29118443067E+03  0.29709278929E+03  0.00000000000E+00 0. -1.
         11    1    3    3    0    0  0.53292883485E+02  0.40672815417E+02 -0.21890619608E+03  0.22894176558E+03  0.00000000000E+00 0. -1.
        -12    1    3    3    0    0 -0.16357347756E+02 -0.22271916541E+01 -0.95899920293E+01  0.19091651458E+02  0.00000000000E+00 0.  1.
          5    1    4    4  501    0  0.26658544583E+02 -0.64082637165E+02  0.86920197948E+02  0.11130972822E+03  0.41800000000E+01 0. -1.
         -5    1    4    4    0  501 -0.14191316207E+02  0.52407860845E+02  0.38836871476E+02  0.66886114554E+02  0.41800000000E+01 0. -1.
</event>
<event>
11    1  0.8551154E-009  0.1479909E+03  0.7561462E-02  0.1098950E+00
         22   -1    0    0    0    0  0.00000000000E+00  0.00000000000E+00  0.70561072410E+03  0.70561072410E+03  0.00000000000E+00 0. -1.
         22   -1    0    0    0    0 -0.00000000000E+00 -0.00000000000E+00 -0.21602863182E+03  0.21602863182E+03  0.00000000000E+00 0.  1.
        -24    2    1    2    0    0 -0.17090999969E+02 -0.74644799921E+02 -0.16872716202E+03  0.20284387966E+03  0.82539904737E+02 0.  0.
         25    2    1    2    0    0  0.44059271611E+02  0.12717056069E+03  0.35282515988E+03  0.39780517261E+03  0.12509912468E+03 0.  0.
         24    2    1    2    0    0 -0.26968271642E+02 -0.52525760765E+02  0.30548409442E+03  0.32099030365E+03  0.78917677817E+02 0.  0.
        -11    1    5    5    0    0 -0.52362570790E+01  0.59961214038E+01 -0.11702975470E+01  0.80462075809E+01  0.00000000000E+00 0.  1.
         12    1    5    5    0    0 -0.21732014563E+02 -0.58521882168E+02  0.30665439197E+03  0.31294409607E+03  0.00000000000E+00 0. -1.
         13    1    3    3    0    0 -0.15596993354E+02  0.13182651947E+02 -0.58098496973E+02  0.61583145946E+02  0.00000000000E+00 0. -1.
        -14    1    3    3    0    0 -0.14940066148E+01 -0.87827451868E+02 -0.11062866505E+03  0.14126073371E+03  0.00000000000E+00 0.  1.
          5    1    4    4  501    0  0.34851033579E+02  0.14497879979E+03  0.34502670472E+03  0.37589140227E+03  0.41800000000E+01 0. -1.
         -5    1    4    4    0  501  0.92082380323E+01 -0.17808239109E+02  0.77984551609E+01  0.21913770344E+02  0.41800000000E+01 0. -1.
</event>
<event>
11    1  0.8551154E-009  0.1724642E+03  0.7561462E-02  0.1075907E+00
         22   -1    0    0    0    0  0.00000000000E+00  0.00000000000E+00  0.48092952111E+03  0.48092952111E+03  0.00000000000E+00 0. -1.
         22   -1    0    0    0    0 -0.00000000000E+00 -0.00000000000E+00 -0.52824488323E+03  0.52824488323E+03  0.00000000000E+00 0. -1.
         24    2    1    2    0    0 -0.11247857252E+03 -0.23723593246E+02 -0.34559280425E+03  0.37284309302E+03  0.79770593033E+02 0.  0.
         25    2    1    2    0    0  0.95931188829E+02  0.14037535266E+03 -0.84786201778E+02  0.22747300231E+03  0.12508890495E+03 0.  0.
        -24    2    1    2    0    0  0.16547383687E+02 -0.11665175941E+03  0.38306364390E+03  0.40885830901E+03  0.80906814825E+02 0.  0.
        -11    1    3    3    0    0 -0.10732197122E+02 -0.32193248409E+02 -0.52849590418E+02  0.62806564191E+02  0.00000000000E+00 0.  1.
         12    1    3    3    0    0 -0.10174637539E+03  0.84696551629E+01 -0.29274321383E+03  0.31003652883E+03  0.00000000000E+00 0. -1.
         11    1    5    5    0    0 -0.11440410476E+02 -0.70329229237E+02  0.30911173968E+03  0.31721782907E+03  0.00000000000E+00 0. -1.
        -12    1    5    5    0    0  0.27987794163E+02 -0.46322530176E+02  0.73951904227E+02  0.91640479935E+02  0.00000000000E+00 0.  1.
          5    1    4    4  501    0  0.54319171469E+02 -0.78968360867E+01 -0.36402282662E+02  0.65996446815E+02  0.41800000000E+01 0.  1.
         -5    1    4    4    0  501  0.41612017361E+02  0.14827218874E+03 -0.48383919116E+02  0.16147655549E+03  0.41800000000E+01 0.  1.
</event>
<event>
11    1  0.8551154E-009  0.4929577E+03  0.7561462E-02  0.9409397E-01
         22   -1    0    0    0    0  0.00000000000E+00  0.00000000000E+00  0.47204202652E+03  0.47204202652E+03  0.00000000000E+00 0. -1.
         22   -1    0    0    0    0 -0.00000000000E+00 -0.00000000000E+00 -0.84065371739E+03  0.84065371739E+03  0.00000000000E+00 0. -1.
         24    2    1    2    0    0  0.14050052181E+03 -0.83426963941E+02 -0.22642805569E+03  0.29038965418E+03  0.79724725855E+02 0.  0.
         25    2    1    2    0    0 -0.51317253214E+03  0.26118427520E+03 -0.10817906339E+03  0.59909323378E+03  0.12508684844E+03 0.  0.
        -24    2    1    2    0    0  0.37267201032E+03 -0.17775731126E+03 -0.34004571797E+02  0.42321285595E+03  0.86433335873E+02 0.  0.
        -11    1    3    3    0    0  0.21109455903E+02 -0.51098959185E+02 -0.94954653538E+02  0.10987765463E+03  0.00000000000E+00 0.  1.
         12    1    3    3    0    0  0.11939106591E+03 -0.32328004756E+02 -0.13147340215E+03  0.18051199955E+03  0.00000000000E+00 0. -1.
         13    1    5    5    0    0  0.13736358991E+03 -0.21058617445E+02 -0.56164472644E+01  0.13908186683E+03  0.00000000000E+00 0. -1.
        -14    1    5    5    0    0  0.23530842042E+03 -0.15669869381E+03 -0.28388124533E+02  0.28413098912E+03  0.00000000000E+00 0.  1.
          5    1    4    4  501    0 -0.20952165146E+03  0.12695607884E+03 -0.10625192792E+03  0.26706574654E+03  0.41800000000E+01 0. -1.
         -5    1    4    4    0  501 -0.30365088068E+03  0.13422819636E+03 -0.19271354656E+01  0.33202748724E+03  0.41800000000E+01 0. -1.
</event>
<event>
11    1  0.8551154E-009  0.1564055E+03  0.7561462E-02  0.1090508E+00
         22   -1    0    0    0    0  0.00000000000E+00  0.00000000000E+00  0.73727779045E+03  0.73727779045E+03  0.00000000000E+00 0.  1.
         22   -1    0    0    0    0 -0.00000000000E+00 -0.00000000000E+00 -0.41559652677E+03  0.41559652677E+03  0.00000000000E+00 0.  1.
        -24    2    1    2    0    0 -0.39189689699E+02  0.86164766528E+02 -0.37705488775E+03  0.39690124140E+03  0.80000051706E+02 0.  0.
         25    2    1    2    0    0  0.58863283853E+02 -0.57730649516E+02  0.19051809719E+03  0.24236803539E+03  0.12508958845E+03 0.  0.
         24    2    1    2    0    0 -0.19673594154E+02 -0.28434117013E+02  0.50821805424E+03  0.51360504044E+03  0.65642955400E+02 0.  0.
        -11    1    5    5    0    0 -0.31889105348E+02  0.95591021520E+01  0.27345317105E+03  0.27547219139E+03  0.00000000000E+00 0.  1.
         12    1    5    5    0    0  0.12215511194E+02 -0.37993219165E+02  0.23476488319E+03  0.23813284905E+03  0.00000000000E+00 0. -1.
         13    1    3    3    0    0 -0.20619936044E+02 -0.47343739670E+01 -0.24629333645E+02  0.32468448302E+02  0.00000000000E+00 0. -1.
        -14    1    3    3    0    0 -0.18569753655E+02  0.90899140495E+02 -0.35242555411E+03  0.36443279309E+03  0.00000000000E+00 0.  1.
          5    1    4    4  501    0  0.44472427681E+02 -0.93372654564E+02  0.99931110084E+02  0.14387476710E+03  0.41800000000E+01 0.  1.
         -5    1    4    4    0  501  0.14390856172E+02  0.35642005048E+02  0.90586987108E+02  0.98493268290E+02  0.41800000000E+01 0.  1.
</event>
<event>
11    1  0.8551154E-009  0.1309667E+03  0.7561462E-02  0.1118087E+00
         22   -1    0    0    0    0  0.00000000000E+00  0.00000000000E+00  0.22316664118E+04  0.22316664118E+04  0.00000000000E+00 0. -1.
         22   -1    0    0    0    0 -0.00000000000E+00 -0.00000000000E+00 -0.41740961805E+02  0.41740961805E+02  0.00000000000E+00 0. -1.
         24    2    1    2    0    0  0.25086233601E+02  0.27291107404E+02  0.28260280076E+02  0.93101724491E+02  0.80592580387E+02 0.  0.
         25    2    1    2    0    0 -0.28093397944E+02 -0.48497864533E+02  0.56245477935E+03  0.57891694780E+03  0.12509265272E+03 0.  0.
        -24    2    1    2    0    0  0.30071643430E+01  0.21206757128E+02  0.15992103905E+04  0.16013887013E+04  0.80703963985E+02 0.  0.
        -11    1    3    3    0    0  0.90447725697E+01  0.16271760762E+01  0.53136470462E+02  0.53925319712E+02  0.00000000000E+00 0.  1.
         12    1    3    3    0    0  0.16041461032E+02  0.25663931328E+02 -0.24876190386E+02  0.39176404779E+02  0.00000000000E+00 0. -1.
         13    1    5    5    0    0  0.40200959400E+02  0.23954354415E+01  0.93968473724E+03  0.94054731973E+03  0.00000000000E+00 0. -1.
        -14    1    5    5    0    0 -0.37193795057E+02  0.18811321687E+02  0.65952565330E+03  0.66084138155E+03  0.00000000000E+00 0.  1.
          5    1    4    4  501    0 -0.80372369152E+01 -0.89978485862E+02  0.39191116664E+03  0.40220959714E+03  0.41800000000E+01 0.  1.
         -5    1    4    4    0  501 -0.20056161029E+02  0.41480621330E+02  0.17054361271E+03  0.17670735066E+03  0.41800000000E+01 0.  1.
</event>
<event>
11    1  0.8551154E-009  0.1408112E+03  0.7561462E-02  0.1106656E+00
         22   -1    0    0    0    0  0.00000000000E+00  0.00000000000E+00  0.22077506659E+04  0.22077506659E+04  0.00000000000E+00 0. -1.
         22   -1    0    0    0    0 -0.00000000000E+00 -0.00000000000E+00 -0.15330392825E+03  0.15330392825E+03  0.00000000000E+00 0.  1.
        -24    2    1    2    0    0 -0.31286038721E+02 -0.97263359925E+01 -0.13193459233E+03  0.15800442528E+03  0.80531012187E+02 0.  0.
         25    2    1    2    0    0  0.59326397164E+01 -0.54530965321E+02  0.71848522926E+03  0.73135276432E+03  0.12508804431E+03 0.  0.
         24    2    1    2    0    0  0.25353399005E+02  0.64257301313E+02  0.14678961007E+04  0.14716974046E+04  0.80015576243E+02 0.  0.
        -13    1    5    5    0    0 -0.20947825648E+02  0.86127515425E+01  0.13917744975E+03  0.14100834517E+03  0.00000000000E+00 0.  1.
         14    1    5    5    0    0  0.46301224653E+02  0.55644549771E+02  0.13287186510E+04  0.13306890594E+04  0.00000000000E+00 0. -1.
         13    1    3    3    0    0 -0.22434527214E+02 -0.26796231375E+02 -0.12629568737E+02  0.37159817460E+02  0.00000000000E+00 0. -1.
        -14    1    3    3    0    0 -0.88515115069E+01  0.17069895382E+02 -0.11930502359E+03  0.12084460782E+03  0.00000000000E+00 0.  1.
          5    1    4    4  501    0 -0.75826100337E+01 -0.62439521078E+02  0.15091549839E+03  0.16355167324E+03  0.41800000000E+01 0. -1.
         -5    1    4    4    0  501  0.13515249750E+02  0.79085557575E+01  0.56756973087E+03  0.56780109108E+03  0.41800000000E+01 0. -1.
</event>
<event>
11    1  0.8551154E-009  0.2717806E+03  0.7561462E-02  0.1012896E+00
         22   -1    0    0    0    0  0.00000000000E+00  0.00000000000E+00  0.18453497651E+04  0.18453497651E+04  0.00000000000E+00 0. -1.
         22   -1    0    0    0    0 -0.00000000000E+00 -0.00000000000E+00 -0.55555251965E+03  0.55555251965E+03  0.00000000000E+00 0.  1.
         24    2    1    2    0    0  0.13140020750E+03 -0.19949891902E+03 -0.48009513588E+03  0.54247737204E+03  0.82003210010E+02 0.  0.
         25    2    1    2    0    0 -0.14801626879E+03  0.24389894661E+03  0.52797028702E+03  0.61302220046E+03  0.12509229510E+03 0.  0.
        -24    2    1    2    0    0  0.16616061284E+02 -0.44400027586E+02  0.12419220943E+04  0.12454027123E+04  0.80062297014E+02 0.  0.
        -11    1    3    3    0    0  0.10129368041E+03 -0.19077518445E+03 -0.44936014541E+03  0.49857809918E+03  0.00000000000E+00 0.  1.
         12    1    3    3    0    0  0.30106527093E+02 -0.87237345701E+01 -0.30734990468E+02  0.43899272859E+02  0.00000000000E+00 0. -1.
         13    1    5    5    0    0 -0.46867664808E+01 -0.46803301704E+02  0.34136096598E+03  0.34458645349E+03  0.00000000000E+00 0. -1.
        -14    1    5    5    0    0  0.21302827765E+02  0.24032741182E+01  0.90056112837E+03  0.90081625880E+03  0.00000000000E+00 0.  1.
          5    1    4    4  501    0 -0.55840332919E+02  0.17022525821E+03  0.22356914716E+03  0.28652297862E+03  0.41800000000E+01 0. -1.
         -5    1    4    4    0  501 -0.92175935868E+02  0.73673688402E+02  0.30440113985E+03  0.32649922184E+03  0.41800000000E+01 0. -1.
</event>
<event>
11    1  0.8551154E-009  0.4349293E+03  0.7561462E-02  0.9551971E-01
         22   -1    0    0    0    0  0.00000000000E+00  0.00000000000E+00  0.48144370163E+03  0.48144370163E+03  0.00000000000E+00 0. -1.
         22   -1    0    0    0    0 -0.00000000000E+00 -0.00000000000E+00 -0.89814355207E+03  0.89814355207E+03  0.00000000000E+00 0. -1.
         24    2    1    2    0    0 -0.66009319467E+02 -0.65226272931E+01 -0.31301237773E+03  0.33151342523E+03  0.86744611177E+02 0.  0.
         25    2    1    2    0    0  0.44156939726E+03  0.15235923955E+03 -0.32372146296E+03  0.58192801760E+03  0.12509101334E+03 0.  0.
        -24    2    1    2    0    0 -0.37556007779E+03 -0.14583661225E+03  0.22003399026E+03  0.46614581087E+03  0.81014014954E+02 0.  0.
        -11    1    3    3    0    0  0.13457853804E+02  0.91544930571E+01 -0.13211618485E+02  0.20963430901E+02  0.00000000000E+00 0.  1.
         12    1    3    3    0    0 -0.79467173271E+02 -0.15677120350E+02 -0.29980075925E+03  0.31054999433E+03  0.00000000000E+00 0. -1.
         13    1    5    5    0    0 -0.35167220274E+03 -0.14236318860E+03  0.18125797889E+03  0.42047005905E+03  0.00000000000E+00 0. -1.
        -14    1    5    5    0    0 -0.23887875047E+02 -0.34734236577E+01  0.38776011372E+02  0.45675751818E+02  0.00000000000E+00 0.  1.
          5    1    4    4  501    0  0.32979414355E+03  0.73317690732E+02 -0.17779935637E+03  0.38179804140E+03  0.41800000000E+01 0. -1.
         -5    1    4    4    0  501  0.11177525371E+03  0.79041548815E+02 -0.14592210659E+03  0.20012997620E+03  0.41800000000E+01 0. -1.
</event>
<event>
11    1  0.8551154E-009  0.1401825E+03  0.7561462E-02  0.1107355E+00
         22   -1    0    0    0    0  0.00000000000E+00  0.00000000000E+00  0.11748672334E+04  0.11748672334E+04  0.00000000000E+00 0.  1.
         22   -1    0    0    0    0 -0.00000000000E+00 -0.00000000000E+00 -0.53892281365E+02  0.53892281365E+02  0.00000000000E+00 0. -1.
        -24    2    1    2    0    0  0.19480867495E+02 -0.35330073817E+02  0.34097539335E+02  0.96061830657E+02  0.80234124948E+02 0.  0.
         25    2    1    2    0    0  0.29834714908E+02 -0.12192566748E+02  0.19082323642E+03  0.23043172226E+03  0.12508597909E+03 0.  0.
         24    2    1    2    0    0 -0.49315582403E+02  0.47522640565E+02  0.89605417627E+03  0.90226596185E+03  0.80500627706E+02 0.  0.
        -11    1    5    5    0    0 -0.24731995784E+02  0.36615874849E+02  0.16794807160E+03  0.17366331985E+03  0.00000000000E+00 0.  1.
         12    1    5    5    0    0 -0.24583586620E+02  0.10906765717E+02  0.72810610467E+03  0.72860264200E+03  0.00000000000E+00 0. -1.
         11    1    3    3    0    0 -0.79155385564E+01  0.18661264030E+02 -0.85549766943E+01  0.22001957914E+02  0.00000000000E+00 0. -1.
        -12    1    3    3    0    0  0.27396406051E+02 -0.53991337847E+02  0.42652516030E+02  0.74059872743E+02  0.00000000000E+00 0.  1.
          5    1    4    4  501    0  0.73448237397E+02 -0.26528074675E+02  0.87881410266E+02  0.11763926637E+03  0.41800000000E+01 0.  1.
         -5    1    4    4    0  501 -0.43613522488E+02  0.14335507927E+02  0.10294182616E+03  0.11279245588E+03  0.41800000000E+01 0.  1.
</event>
<event>
11    1  0.8551154E-009  0.1733177E+03  0.7561462E-02  0.1075180E+00
         22   -1    0    0    0    0  0.00000000000E+00  0.00000000000E+00  0.31063552783E+04  0.31063552783E+04  0.00000000000E+00 0. -1.
         22   -1    0    0    0    0 -0.00000000000E+00 -0.00000000000E+00 -0.17206258891E+04  0.17206258891E+04  0.00000000000E+00 0. -1.
        -24    2    1    2    0    0  0.29190971045E+02  0.51815796978E+02 -0.14848518527E+04  0.14881671907E+04  0.79495745360E+02 0.  0.
         25    2    1    2    0    0 -0.19935996921E+02  0.68182102065E+02 -0.21016087388E+03  0.25467926668E+03  0.12509073888E+03 0.  0.
         24    2    1    2    0    0 -0.92549741241E+01 -0.11999789904E+03  0.30807421157E+04  0.30841347099E+04  0.80185876745E+02 0.  0.
        -11    1    5    5    0    0 -0.36485679220E+02 -0.55403340381E+02  0.99140701798E+03  0.99362397828E+03  0.00000000000E+00 0.  1.
         12    1    5    5    0    0  0.27230705096E+02 -0.64594558662E+02  0.20893350978E+04  0.20905107316E+04  0.00000000000E+00 0. -1.
         13    1    3    3    0    0  0.38986274389E+02  0.66854522059E+02 -0.13355578764E+04  0.13377983024E+04  0.00000000000E+00 0. -1.
        -14    1    3    3    0    0 -0.97953033443E+01 -0.15038725081E+02 -0.14929397623E+03  0.15036888826E+03  0.00000000000E+00 0.  1.
          5    1    4    4  501    0 -0.57848192331E+02  0.84371580651E+02 -0.15211537336E+03  0.18336176316E+03  0.41800000000E+01 0.  1.
         -5    1    4    4    0  501  0.37912195411E+02 -0.16189478587E+02 -0.58045500524E+02  0.71317503523E+02  0.41800000000E+01 0.  1.
</event>
<event>
11    1  0.8551154E-009  0.1407920E+03  0.7561462E-02  0.1106677E+00
         22   -1    0    0    0    0  0.00000000000E+00  0.00000000000E+00  0.72627337059E+03  0.72627337059E+03  0.00000000000E+00 0.  1.
         22   -1    0    0    0    0 -0.00000000000E+00 -0.00000000000E+00 -0.62939088174E+03  0.62939088174E+03  0.00000000000E+00 0.  1.
        -24    2    1    2    0    0  0.34845208976E+01  0.33900161121E+02 -0.52688468149E+03  0.53378256990E+03  0.78453817810E+02 0.  0.
         25    2    1    2    0    0  0.20535500631E+02 -0.92629531627E+02 -0.30482347688E+02  0.15992918190E+03  0.12508490232E+03 0.  0.
         24    2    1    2    0    0 -0.24020021528E+02  0.58729370506E+02  0.65424951802E+03  0.66195250054E+03  0.78182995230E+02 0.  0.
        -13    1    5    5    0    0 -0.51708877833E+02  0.26266126511E+02  0.38430968767E+03  0.38866136094E+03  0.00000000000E+00 0.  1.
         14    1    5    5    0    0  0.27688856305E+02  0.32463243994E+02  0.26993983035E+03  0.27329113960E+03  0.00000000000E+00 0. -1.
         11    1    3    3    0    0 -0.13532347802E+02  0.13698933356E+02 -0.26797603684E+02  0.32998435953E+02  0.00000000000E+00 0. -1.
        -12    1    3    3    0    0  0.17016868700E+02  0.20201227765E+02 -0.50008707780E+03  0.50078413394E+03  0.00000000000E+00 0.  1.
          5    1    4    4  501    0  0.46281369694E+02 -0.11306946523E+03 -0.14388770121E+02  0.12309012249E+03  0.41800000000E+01 0.  1.
         -5    1    4    4    0  501 -0.25745869064E+02  0.20439933605E+02 -0.16093577567E+02  0.36839059414E+02  0.41800000000E+01 0.  1.
</event>
<event>
11    1  0.8551154E-009  0.1796935E+03  0.7561462E-02  0.1069891E+00
         22   -1    0    0    0    0  0.00000000000E+00  0.00000000000E+00  0.44767450033E+03  0.44767450033E+03  0.00000000000E+00 0. -1.
         22   -1    0    0    0    0 -0.00000000000E+00 -0.00000000000E+00 -0.71884967103E+03  0.71884967103E+03  0.00000000000E+00 0. -1.
        -24    2    1    2    0    0 -0.12580508131E+03  0.16437539597E+02 -0.64411550679E+03  0.66136336465E+03  0.80122423930E+02 0.  0.
         25    2    1    2    0    0  0.18600847201E+03 -0.27648867528E+02  0.18560493241E+03  0.29233617404E+03  0.12509051196E+03 0.  0.
         24    2    1    2    0    0 -0.60203390695E+02  0.11211327931E+02  0.18733540369E+03  0.21282463267E+03  0.80309580206E+02 0.  0.
        -13    1    5    5    0    0  0.72565974244E+01 -0.14612231757E+02  0.90810559071E+02  0.92264473996E+02  0.00000000000E+00 0.  1.
         14    1    5    5    0    0 -0.67459988119E+02  0.25823559688E+02  0.96524844615E+02  0.12056015868E+03  0.00000000000E+00 0. -1.
         11    1    3    3    0    0 -0.10614470782E+03  0.44753896169E+02 -0.47478457082E+03  0.48855910483E+03  0.00000000000E+00 0. -1.
        -12    1    3    3    0    0 -0.19660373500E+02 -0.28316356572E+02 -0.16933093597E+03  0.17280425982E+03  0.00000000000E+00 0.  1.
          5    1    4    4  501    0  0.18892123518E+03 -0.62267214449E+01  0.12196737155E+03  0.22499670505E+03  0.41800000000E+01 0. -1.
         -5    1    4    4    0  501 -0.29127631658E+01 -0.21422146083E+02  0.63637560854E+02  0.67339468988E+02  0.41800000000E+01 0. -1.
</event>
<event>
11    1  0.8551154E-009  0.1564369E+03  0.7561462E-02  0.1090477E+00
         22   -1    0    0    0    0  0.00000000000E+00  0.00000000000E+00  0.12778643252E+04  0.12778643252E+04  0.00000000000E+00 0.  1.
         22   -1    0    0    0    0 -0.00000000000E+00 -0.00000000000E+00 -0.16556859845E+03  0.16556859845E+03  0.00000000000E+00 0.  1.
        -24    2    1    2    0    0 -0.85617968347E+02 -0.40555885186E+02 -0.12766726272E+03  0.17772794092E+03  0.79454859420E+02 0.  0.
         25    2    1    2    0    0  0.69509178767E+02  0.35209223375E+02  0.49237232552E+03  0.51395489037E+03  0.12509159467E+03 0.  0.
         24    2    1    2    0    0  0.16108789580E+02  0.53466618110E+01  0.74759066391E+03  0.75175009232E+03  0.77125356633E+02 0.  0.
        -13    1    5    5    0    0  0.10787707626E+02 -0.32684969462E+02  0.50164636333E+03  0.50282577072E+03  0.00000000000E+00 0.  1.
         14    1    5    5    0    0  0.53210819541E+01  0.38031631273E+02  0.24594430059E+03  0.24892432159E+03  0.00000000000E+00 0. -1.
         13    1    3    3    0    0  0.14912019410E+01 -0.32102312114E+02 -0.16142953851E+02  0.35963552179E+02  0.00000000000E+00 0. -1.
        -14    1    3    3    0    0 -0.87109170288E+02 -0.84535730726E+01 -0.11152430887E+03  0.14176438874E+03  0.00000000000E+00 0.  1.
          5    1    4    4  501    0 -0.21046676405E+02  0.21008657397E+02  0.29572716571E+02  0.42146699025E+02  0.41800000000E+01 0.  1.
         -5    1    4    4    0  501  0.90555855172E+02  0.14200565978E+02  0.46279960895E+03  0.47180819135E+03  0.41800000000E+01 0.  1.
</event>
<event>
11    1  0.8551154E-009  0.1567476E+03  0.7561462E-02  0.1090177E+00
         22   -1    0    0    0    0  0.00000000000E+00  0.00000000000E+00  0.42514214006E+03  0.42514214006E+03  0.00000000000E+00 0.  1.
         22   -1    0    0    0    0 -0.00000000000E+00 -0.00000000000E+00 -0.34487513900E+03  0.34487513900E+03  0.00000000000E+00 0.  1.
         24    2    1    2    0    0  0.44831320409E+02 -0.81600384552E+02 -0.28380194775E+03  0.30929488137E+03  0.80320035162E+02 0.  0.
         25    2    1    2    0    0 -0.85270281331E+02  0.83515403542E+02  0.15189790666E+03  0.23014642043E+03  0.12509419364E+03 0.  0.
        -24    2    1    2    0    0  0.40438960922E+02 -0.19150189903E+01  0.21217104215E+03  0.23057597726E+03  0.80683042236E+02 0.  0.
        -13    1    3    3    0    0  0.62315317392E+01 -0.43528027474E+02 -0.39691842171E+02  0.59236504780E+02  0.00000000000E+00 0.  1.
         14    1    3    3    0    0  0.38599788670E+02 -0.38072357077E+02 -0.24411010558E+03  0.25005837659E+03  0.00000000000E+00 0. -1.
         11    1    5    5    0    0 -0.23704282974E+01 -0.95597769690E+01 -0.35847447721E+01  0.10481348248E+02  0.00000000000E+00 0. -1.
        -12    1    5    5    0    0  0.42809389219E+02  0.76447579786E+01  0.21575578692E+03  0.22009462901E+03  0.00000000000E+00 0.  1.
          5    1    4    4  501    0 -0.98822687241E+01  0.91600558289E+02  0.10954339861E+03  0.14319759109E+03  0.41800000000E+01 0.  1.
         -5    1    4    4    0  501 -0.75388012607E+02 -0.80851547465E+01  0.42354508050E+02  0.86948829344E+02  0.41800000000E+01 0.  1.
</event>
<event>
11    1  0.8551154E-009  0.1472732E+03  0.7561462E-02  0.1099698E+00
         22   -1    0    0    0    0  0.00000000000E+00  0.00000000000E+00  0.17574022600E+04  0.17574022600E+04  0.00000000000E+00 0.  1.
         22   -1    0    0    0    0 -0.00000000000E+00 -0.00000000000E+00 -0.44990707378E+03  0.44990707378E+03  0.00000000000E+00 0.  1.
         24    2    1    2    0    0  0.49907051133E+02  0.55810956615E+02 -0.35615317557E+03  0.37265488563E+03  0.80131159239E+02 0.  0.
         25    2    1    2    0    0 -0.40827639387E+02 -0.10590926759E+03  0.63146126364E+00  0.16891378539E+03  0.12509116296E+03 0.  0.
        -24    2    1    2    0    0 -0.90794117465E+01  0.50098310974E+02  0.16630169006E+04  0.16657406628E+04  0.80464076883E+02 0.  0.
        -13    1    3    3    0    0 -0.52786397305E+01  0.28675550957E+02 -0.23485892063E+03  0.23666191890E+03  0.00000000000E+00 0.  1.
         14    1    3    3    0    0  0.55185690864E+02  0.27135405658E+02 -0.12129425495E+03  0.13599296673E+03  0.00000000000E+00 0. -1.
         11    1    5    5    0    0  0.41158183304E+00 -0.22216686789E+02  0.41473543172E+03  0.41533026485E+03  0.00000000000E+00 0. -1.
        -12    1    5    5    0    0 -0.94909935795E+01  0.72314997763E+02  0.12482814688E+04  0.12504103980E+04  0.00000000000E+00 0.  1.
          5    1    4    4  501    0  0.16456837318E+02 -0.98062954356E+02  0.29977483221E+02  0.10393888787E+03  0.41800000000E+01 0. -1.
         -5    1    4    4    0  501 -0.57284476705E+02 -0.78463132328E+01 -0.29346021957E+02  0.64974897517E+02  0.41800000000E+01 0. -1.
</event>
<event>
11    1  0.8551154E-009  0.1328416E+03  0.7561462E-02  0.1115826E+00
         22   -1    0    0    0    0  0.00000000000E+00  0.00000000000E+00  0.14832361806E+04  0.14832361806E+04  0.00000000000E+00 0. -1.
         22   -1    0    0    0    0 -0.00000000000E+00 -0.00000000000E+00 -0.30272761283E+03  0.30272761283E+03  0.00000000000E+00 0. -1.
        -24    2    1    2    0    0 -0.38839666490E+02 -0.71645655854E+00 -0.27995467460E+03  0.29398513114E+03  0.80892549093E+02 0.  0.
         25    2    1    2    0    0  0.18577051399E+02  0.42714329246E+02  0.31301837341E+03  0.34029253226E+03  0.12509550217E+03 0.  0.
         24    2    1    2    0    0  0.20262615091E+02 -0.41997872688E+02  0.11474448690E+04  0.11516861300E+04  0.87044930174E+02 0.  0.
        -13    1    5    5    0    0 -0.21844096888E+02 -0.16394609300E+02  0.12036900396E+03  0.12342870370E+03  0.00000000000E+00 0.  1.
         14    1    5    5    0    0  0.42106711979E+02 -0.25603263388E+02  0.10270758650E+04  0.10282574263E+04  0.00000000000E+00 0. -1.
         13    1    3    3    0    0  0.12924400112E+01  0.61732553963E+01 -0.22746803660E+03  0.22755545952E+03  0.00000000000E+00 0. -1.
        -14    1    3    3    0    0 -0.40132106501E+02 -0.68897119549E+01 -0.52486638003E+02  0.66429671623E+02  0.00000000000E+00 0.  1.
          5    1    4    4  501    0 -0.89203529766E+01 -0.22683740848E+02  0.63987495827E+01  0.25544885835E+02  0.41800000000E+01 0. -1.
         -5    1    4    4    0  501  0.27497404376E+02  0.65398070095E+02  0.30661962382E+03  0.31474764643E+03  0.41800000000E+01 0. -1.
</event>
<event>
11    1  0.8551154E-009  0.2173546E+03  0.7561462E-02  0.1042887E+00
         22   -1    0    0    0    0  0.00000000000E+00  0.00000000000E+00  0.15353037575E+04  0.15353037575E+04  0.00000000000E+00 0. -1.
         22   -1    0    0    0    0 -0.00000000000E+00 -0.00000000000E+00 -0.15618553667E+03  0.15618553667E+03  0.00000000000E+00 0.  1.
         24    2    1    2    0    0 -0.13576711715E+03  0.82704796544E+01 -0.44882341976E+02  0.18019532719E+03  0.10933810125E+03 0.  0.
         25    2    1    2    0    0 -0.25073382211E+02 -0.11676861412E+03  0.17991883623E+03  0.24956446035E+03  0.12509216004E+03 0.  0.
        -24    2    1    2    0    0  0.16084049936E+03  0.10849813447E+03  0.12440817266E+04  0.12617295067E+04  0.81120244545E+02 0.  0.
        -11    1    3    3    0    0 -0.87134226242E+02  0.53054910990E+02 -0.50526960659E+02  0.11384274556E+03  0.00000000000E+00 0.  1.
         12    1    3    3    0    0 -0.48632890912E+02 -0.44784431336E+02  0.56446186828E+01  0.66352581627E+02  0.00000000000E+00 0. -1.
         11    1    5    5    0    0  0.77291261230E+02  0.44011081817E+02  0.81583634513E+03  0.82067037014E+03  0.00000000000E+00 0. -1.
        -12    1    5    5    0    0  0.83549238134E+02  0.64487052650E+02  0.42824538147E+03  0.44105913652E+03  0.00000000000E+00 0.  1.
          5    1    4    4  501    0  0.26454154483E+02 -0.81712393986E+02  0.16388982705E+03  0.18507859257E+03  0.41800000000E+01 0. -1.
         -5    1    4    4    0  501 -0.51527536694E+02 -0.35056220136E+02  0.16029009183E+02  0.64485867780E+02  0.41800000000E+01 0. -1.
</event>
<event>
11    1  0.8551154E-009  0.3176912E+03  0.7561462E-02  0.9929700E-01
         22   -1    0    0    0    0  0.00000000000E+00  0.00000000000E+00  0.24040329570E+04  0.24040329570E+04  0.00000000000E+00 0.  1.
         22   -1    0    0    0    0 -0.00000000000E+00 -0.00000000000E+00 -0.66401279149E+02  0.66401279149E+02  0.00000000000E+00 0.  1.
         24    2    1    2    0    0 -0.29348653574E+02 -0.28795351189E+03  0.60412762047E+03  0.67415105019E+03  0.75702629896E+02 0.  0.
         25    2    1    2    0    0 -0.45582031269E+02 -0.21056924100E+02  0.36827692442E+03  0.39216885806E+03  0.12508958607E+03 0.  0.
        -24    2    1    2    0    0  0.74930684843E+02  0.30901043599E+03  0.13652271330E+04  0.14041143279E+04  0.81177978402E+02 0.  0.
        -13    1    3    3    0    0 -0.49652577055E+02 -0.14558139705E+03  0.34639010849E+03  0.37900584275E+03  0.00000000000E+00 0.  1.
         14    1    3    3    0    0  0.20303923481E+02 -0.14237211484E+03  0.25773751198E+03  0.29514520744E+03  0.00000000000E+00 0. -1.
         13    1    5    5    0    0 -0.16263262829E+02  0.29495602082E+02  0.16466869548E+03  0.16807814710E+03  0.00000000000E+00 0. -1.
        -14    1    5    5    0    0  0.91193947671E+02  0.27951483391E+03  0.12005584375E+04  0.12360361808E+04  0.00000000000E+00 0.  1.
          5    1    4    4  501    0 -0.26475014985E+02 -0.20861922985E+01  0.36351546773E+03  0.36450822527E+03  0.41800000000E+01 0.  1.
         -5    1    4    4    0  501 -0.19107016284E+02 -0.18970731801E+02  0.47614566992E+01  0.27660632788E+02  0.41800000000E+01 0.  1.
</event>
<event>
11    1  0.8551154E-009  0.1468856E+03  0.7561462E-02  0.1100104E+00
         22   -1    0    0    0    0  0.00000000000E+00  0.00000000000E+00  0.17673228715E+04  0.17673228715E+04  0.00000000000E+00 0. -1.
         22   -1    0    0    0    0 -0.00000000000E+00 -0.00000000000E+00 -0.17868463373E+03  0.17868463373E+03  0.00000000000E+00 0. -1.
         24    2    1    2    0    0  0.61072909459E+02 -0.49348160787E+02 -0.14746722736E+03  0.19072151385E+03  0.91994409925E+02 0.  0.
         25    2    1    2    0    0  0.60372823239E+00  0.51123322564E+02  0.62922154458E+03  0.64356949553E+03  0.12509190547E+03 0.  0.
        -24    2    1    2    0    0 -0.61676637691E+02 -0.17751617769E+01  0.11068839205E+04  0.11117164958E+04  0.83152839728E+02 0.  0.
        -13    1    3    3    0    0  0.17477611547E+01 -0.34394080928E+02 -0.11779292050E+03  0.12272399762E+03  0.00000000000E+00 0.  1.
         14    1    3    3    0    0  0.59325148304E+02 -0.14954079859E+02 -0.29674306858E+02  0.67997516228E+02  0.00000000000E+00 0. -1.
         13    1    5    5    0    0 -0.79804832515E+01 -0.16394361327E+02  0.77385995659E+03  0.77407473516E+03  0.00000000000E+00 0. -1.
        -14    1    5    5    0    0 -0.53696154440E+02  0.14619199550E+02  0.33302396395E+03  0.33764176069E+03  0.00000000000E+00 0.  1.
          5    1    4    4  501    0  0.45482143997E+02  0.39087814965E+01  0.45864552984E+03  0.46093068724E+03  0.41800000000E+01 0.  1.
         -5    1    4    4    0  501 -0.44878415765E+02  0.47214541068E+02  0.17057601474E+03  0.18263880829E+03  0.41800000000E+01 0.  1.
</event>
<event>
11    1  0.8551154E-009  0.1477953E+03  0.7561462E-02  0.1099153E+00
         22   -1    0    0    0    0  0.00000000000E+00  0.00000000000E+00  0.31234282958E+03  0.31234282958E+03  0.00000000000E+00 0.  1.
         22   -1    0    0    0    0 -0.00000000000E+00 -0.00000000000E+00 -0.96502182821E+03  0.96502182821E+03  0.00000000000E+00 0. -1.
         24    2    1    2    0    0 -0.58830242894E+02 -0.47713780428E+02 -0.79390362075E+03  0.80152408603E+03  0.80126769068E+02 0.  0.
         25    2    1    2    0    0  0.96940415366E+02  0.61331331654E+02 -0.11419255252E+03  0.20456068996E+03  0.12508461318E+03 0.  0.
        -24    2    1    2    0    0 -0.38110172472E+02 -0.13617551225E+02  0.25541717463E+03  0.27127988180E+03  0.81957417132E+02 0.  0.
        -13    1    3    3    0    0 -0.29480348408E+02  0.10867631868E+02 -0.10742384650E+03  0.11192443506E+03  0.00000000000E+00 0.  1.
         14    1    3    3    0    0 -0.29349894485E+02 -0.58581412297E+02 -0.68647977424E+03  0.68959965097E+03  0.00000000000E+00 0. -1.
         11    1    5    5    0    0  0.13762193627E+02  0.32529928863E+01  0.50133381031E+01  0.15003782692E+02  0.00000000000E+00 0. -1.
        -12    1    5    5    0    0 -0.51872366099E+02 -0.16870544112E+02  0.25040383653E+03  0.25627609910E+03  0.00000000000E+00 0.  1.
          5    1    4    4  501    0  0.11755680131E+03  0.60817433980E+02 -0.58019025700E+02  0.14457538364E+03  0.41800000000E+01 0. -1.
         -5    1    4    4    0  501 -0.20616385944E+02  0.51389767312E+00 -0.56173526818E+02  0.59985306329E+02  0.41800000000E+01 0. -1.
</event>
<event>
11    1  0.8551154E-009  0.1530768E+03  0.7561462E-02  0.1093776E+00
         22   -1    0    0    0    0  0.00000000000E+00  0.00000000000E+00  0.25677749461E+03  0.25677749461E+03  0.00000000000E+00 0.  1.
         22   -1    0    0    0    0 -0.00000000000E+00 -0.00000000000E+00 -0.14414554127E+04  0.14414554127E+04  0.00000000000E+00 0. -1.
         24    2    1    2    0    0 -0.87043002305E+02 -0.89988249497E+01 -0.13171667073E+04  0.13225028898E+04  0.80176653425E+02 0.  0.
         25    2    1    2    0    0  0.10044090089E+03  0.55130934499E+02 -0.44486952670E+02  0.17536958876E+03  0.12509040409E+03 0.  0.
        -24    2    1    2    0    0 -0.13397898582E+02 -0.46132109549E+02  0.17697574180E+03  0.20036042878E+03  0.80723063722E+02 0.  0.
        -11    1    3    3    0    0 -0.38202237360E+02  0.23334219188E+02 -0.91486390176E+03  0.91595843545E+03  0.00000000000E+00 0.  1.
         12    1    3    3    0    0 -0.48840764945E+02 -0.32333044137E+02 -0.40230280550E+03  0.40654445436E+03  0.00000000000E+00 0. -1.
         11    1    5    5    0    0 -0.25703070860E+01 -0.14669123534E+02 -0.47358622318E+01  0.15627477558E+02  0.00000000000E+00 0. -1.
        -12    1    5    5    0    0 -0.10827591496E+02 -0.31462986016E+02  0.18171160403E+03  0.18473295122E+03  0.00000000000E+00 0.  1.
          5    1    4    4  501    0  0.10680495314E+02 -0.16511680285E+02  0.31664011112E+02  0.37507206850E+02  0.41800000000E+01 0. -1.
         -5    1    4    4    0  501  0.89760405573E+02  0.71642614783E+02 -0.76150963783E+02  0.13786238191E+03  0.41800000000E+01 0. -1.
</event>
<event>
11    1  0.8551154E-009  0.1417459E+03  0.7561462E-02  0.1105624E+00
         22   -1    0    0    0    0  0.00000000000E+00  0.00000000000E+00  0.16682964388E+04  0.16682964388E+04  0.00000000000E+00 0. -1.
         22   -1    0    0    0    0 -0.00000000000E+00 -0.00000000000E+00 -0.11164592207E+04  0.11164592207E+04  0.00000000000E+00 0.  1.
        -24    2    1    2    0    0 -0.51845604397E+02  0.28927059397E+02 -0.11040799426E+04  0.11085932766E+04  0.80385271343E+02 0.  0.
         25    2    1    2    0    0 -0.87357620118E+01 -0.69494878004E+02  0.72331010317E+03  0.73738153589E+03  0.12509265574E+03 0.  0.
         24    2    1    2    0    0  0.60581366409E+02  0.40567818607E+02  0.93260705747E+03  0.93878084696E+03  0.78979143474E+02 0.  0.
        -11    1    5    5    0    0  0.57361706326E+02  0.11968983687E+01  0.33565707977E+03  0.34052528998E+03  0.00000000000E+00 0.  1.
         12    1    5    5    0    0  0.32196600829E+01  0.39370920238E+02  0.59694997771E+03  0.59825555698E+03  0.00000000000E+00 0. -1.
         11    1    3    3    0    0 -0.36062493566E+02 -0.19183162258E+02 -0.72458801012E+03  0.72573843881E+03  0.00000000000E+00 0. -1.
        -12    1    3    3    0    0 -0.15783110831E+02  0.48110221655E+02 -0.37949193247E+03  0.38285483780E+03  0.00000000000E+00 0.  1.
          5    1    4    4  501    0 -0.42312166370E+02 -0.12348871529E+02  0.87028444085E+02  0.97643415194E+02  0.41800000000E+01 0.  1.
         -5    1    4    4    0  501  0.33576404358E+02 -0.57146006475E+02  0.63628165909E+03  0.63973812070E+03  0.41800000000E+01 0.  1.
</event>
<event>
11    1  0.8551154E-009  0.1324530E+03  0.7561462E-02  0.1116291E+00
         22   -1    0    0    0    0  0.00000000000E+00  0.00000000000E+00  0.35667594460E+03  0.35667594460E+03  0.00000000000E+00 0.  1.
         22   -1    0    0    0    0 -0.00000000000E+00 -0.00000000000E+00 -0.28716647280E+03  0.28716647280E+03  0.00000000000E+00 0.  1.
        -24    2    1    2    0    0 -0.33292454352E+02  0.21545073766E+01 -0.17864668532E+03  0.19873266671E+03  0.80417692223E+02 0.  0.
         25    2    1    2    0    0  0.55598243718E+02  0.33901133607E+02 -0.37215164559E+02  0.14585046223E+03  0.12508771840E+03 0.  0.
         24    2    1    2    0    0 -0.22305789366E+02 -0.36055640984E+02  0.28537132168E+03  0.29925928846E+03  0.79509578081E+02 0.  0.
        -13    1    5    5    0    0 -0.19797020148E+02 -0.23797926572E+02  0.28506796049E+03  0.28674379751E+03  0.00000000000E+00 0.  1.
         14    1    5    5    0    0 -0.25087692175E+01 -0.12257714411E+02  0.30336119008E+00  0.12515490945E+02  0.00000000000E+00 0. -1.
         11    1    3    3    0    0  0.15558980408E+02  0.23601986429E+02 -0.32083555451E+02  0.42760848508E+02  0.00000000000E+00 0. -1.
        -12    1    3    3    0    0 -0.48851434760E+02 -0.21447479053E+02 -0.14656312987E+03  0.15597181820E+03  0.00000000000E+00 0.  1.
          5    1    4    4  501    0  0.41454498403E+02  0.48605201807E+02  0.33414353969E+02  0.72214489763E+02  0.41800000000E+01 0.  1.
         -5    1    4    4    0  501  0.14143745315E+02 -0.14704068199E+02 -0.70629518528E+02  0.73635972464E+02  0.41800000000E+01 0.  1.
</event>
<event>
11    1  0.8551154E-009  0.1284318E+03  0.7561462E-02  0.1121211E+00
         22   -1    0    0    0    0  0.00000000000E+00  0.00000000000E+00  0.27325939373E+03  0.27325939373E+03  0.00000000000E+00 0.  1.
         22   -1    0    0    0    0 -0.00000000000E+00 -0.00000000000E+00 -0.20519242983E+04  0.20519242983E+04  0.00000000000E+00 0.  1.
        -24    2    1    2    0    0 -0.62879746956E+01 -0.28383463093E+02 -0.19907108363E+04  0.19925636972E+04  0.80841166711E+02 0.  0.
         25    2    1    2    0    0  0.29109074540E+02  0.26962479622E+02  0.32111641940E+02  0.13510261533E+03  0.12508895072E+03 0.  0.
         24    2    1    2    0    0 -0.22821099845E+02  0.14209834714E+01  0.17993428976E+03  0.19751737949E+03  0.78191718072E+02 0.  0.
        -13    1    5    5    0    0 -0.67088682788E+01 -0.37664601191E+02  0.10046215123E+03  0.10750011593E+03  0.00000000000E+00 0.  1.
         14    1    5    5    0    0 -0.16112231566E+02  0.39085584662E+02  0.79472138536E+02  0.90017263555E+02  0.00000000000E+00 0. -1.
         13    1    3    3    0    0 -0.33575938078E+02  0.78094523891E+01 -0.51247935535E+03  0.51363744102E+03  0.00000000000E+00 0. -1.
        -14    1    3    3    0    0  0.27287963382E+02 -0.36192915482E+02 -0.14782314809E+04  0.14789262562E+04  0.00000000000E+00 0.  1.
          5    1    4    4  501    0  0.63560058837E+02  0.56890519709E+02  0.21094090136E+02  0.87970707345E+02  0.41800000000E+01 0.  1.
         -5    1    4    4    0  501 -0.34450984297E+02 -0.29928040087E+02  0.11017551804E+02  0.47131907984E+02  0.41800000000E+01 0.  1.
</event>
<event>
11    1  0.8551154E-009  0.5823780E+03  0.7561462E-02  0.9226215E-01
         22   -1    0    0    0    0  0.00000000000E+00  0.00000000000E+00  0.23780679856E+03  0.23780679856E+03  0.00000000000E+00 0. -1.
         22   -1    0    0    0    0 -0.00000000000E+00 -0.00000000000E+00 -0.23692365643E+04  0.23692365643E+04  0.00000000000E+00 0. -1.
         24    2    1    2    0    0 -0.48204797393E+03  0.32510059545E+03 -0.78268360680E+03  0.97845645587E+03  0.81992446848E+02 0.  0.
         25    2    1    2    0    0  0.53616875184E+03 -0.18802261734E+03 -0.13401762619E+04  0.14610096531E+04  0.12508940225E+03 0.  0.
        -24    2    1    2    0    0 -0.54120777907E+02 -0.13707797811E+03 -0.85698971019E+01  0.16757725390E+03  0.79304868720E+02 0.  0.
        -13    1    3    3    0    0 -0.43243648871E+03  0.26180645900E+03 -0.69605049011E+03  0.86025009359E+03  0.00000000000E+00 0.  1.
         14    1    3    3    0    0 -0.49611485220E+02  0.63294136452E+02 -0.86633116696E+02  0.11820636228E+03  0.00000000000E+00 0. -1.
         11    1    5    5    0    0 -0.64231424028E+02 -0.67138826172E+02 -0.22383434638E+02  0.95573615390E+02  0.00000000000E+00 0. -1.
        -12    1    5    5    0    0  0.10110646121E+02 -0.69939151939E+02  0.13813537536E+02  0.72003638507E+02  0.00000000000E+00 0.  1.
          5    1    4    4  501    0  0.91027562521E+02 -0.57773257287E+02 -0.16019273901E+03  0.19313972255E+03  0.41800000000E+01 0.  1.
         -5    1    4    4    0  501  0.44514118932E+03 -0.13024936005E+03 -0.11799835229E+04  0.12678699306E+04  0.41800000000E+01 0.  1.
</event>
<event>
11    1  0.8551154E-009  0.1351326E+03  0.7561462E-02  0.1113119E+00
         22   -1    0    0    0    0  0.00000000000E+00  0.00000000000E+00  0.47894008342E+03  0.47894008342E+03  0.00000000000E+00 0.  1.
         22   -1    0    0    0    0 -0.00000000000E+00 -0.00000000000E+00 -0.64041246483E+03  0.64041246483E+03  0.00000000000E+00 0.  1.
         24    2    1    2    0    0 -0.59053223141E+02 -0.10079323954E+02 -0.43464604978E+03  0.44637008915E+03  0.82098672122E+02 0.  0.
         25    2    1    2    0    0  0.14480088907E+02  0.24935001773E+02 -0.17407411051E+03  0.21628700046E+03  0.12508734280E+03 0.  0.
        -24    2    1    2    0    0  0.44573134235E+02 -0.14855677819E+02  0.44724777888E+03  0.45669545865E+03  0.79578331094E+02 0.  0.
        -13    1    3    3    0    0 -0.79895859180E+02 -0.55658047109E+01 -0.35459874220E+03  0.36353073387E+03  0.00000000000E+00 0.  1.
         14    1    3    3    0    0  0.20842636038E+02 -0.45135192427E+01 -0.80047307580E+02  0.82839355284E+02  0.00000000000E+00 0. -1.
         11    1    5    5    0    0 -0.15570785892E+02 -0.17179334702E+02  0.52587664525E+02  0.57472092135E+02  0.00000000000E+00 0. -1.
        -12    1    5    5    0    0  0.60143920127E+02  0.23236568830E+01  0.39466011435E+03  0.39922336651E+03  0.00000000000E+00 0.  1.
          5    1    4    4  501    0 -0.32998668988E+02 -0.14682777760E+02 -0.56169004602E+01  0.36790190113E+02  0.41800000000E+01 0.  1.
         -5    1    4    4    0  501  0.47478757895E+02  0.39617779533E+02 -0.16845721005E+03  0.17949681035E+03  0.41800000000E+01 0.  1.
</event>
<event>
11    1  0.8551154E-009  0.1323244E+03  0.7561462E-02  0.1116446E+00
         22   -1    0    0    0    0  0.00000000000E+00  0.00000000000E+00  0.20220457353E+04  0.20220457353E+04  0.00000000000E+00 0.  1.
         22   -1    0    0    0    0 -0.00000000000E+00 -0.00000000000E+00 -0.82272206430E+03  0.82272206430E+03  0.00000000000E+00 0.  1.
         24    2    1    2    0    0 -0.59665135680E+01 -0.24257899797E+02 -0.80430159981E+03  0.80946691611E+03  0.87815601342E+02 0.  0.
         25    2    1    2    0    0  0.35775108768E+02  0.53104695004E+02  0.32366099722E+03  0.35285107259E+03  0.12508985277E+03 0.  0.
        -24    2    1    2    0    0 -0.29808595200E+02 -0.28846795207E+02  0.16799642735E+04  0.16824498109E+04  0.81466040440E+02 0.  0.
        -11    1    3    3    0    0  0.62022787600E+01  0.23445195078E+02 -0.54463267716E+03  0.54517235666E+03  0.00000000000E+00 0.  1.
         12    1    3    3    0    0 -0.12168792328E+02 -0.47703094875E+02 -0.25966892265E+03  0.26429455945E+03  0.00000000000E+00 0. -1.
         13    1    5    5    0    0  0.92548632201E+01 -0.29517731279E+02  0.24386787538E+03  0.24582206897E+03  0.00000000000E+00 0. -1.
        -14    1    5    5    0    0 -0.39063458420E+02  0.67093607245E+00  0.14360963982E+04  0.14366277419E+04  0.00000000000E+00 0.  1.
          5    1    4    4  501    0  0.35587033545E+02  0.46326101024E+02  0.33439452385E+03  0.33948448355E+03  0.41800000000E+01 0.  1.
         -5    1    4    4    0  501  0.18807522389E+00  0.67785939805E+01 -0.10733526626E+02  0.13366589037E+02  0.41800000000E+01 0.  1.
</event>
<event>
11    1  0.8551154E-009  0.1576264E+03  0.7561462E-02  0.1089331E+00
         22   -1    0    0    0    0  0.00000000000E+00  0.00000000000E+00  0.12976837111E+04  0.12976837111E+04  0.00000000000E+00 0.  1.
         22   -1    0    0    0    0 -0.00000000000E+00 -0.00000000000E+00 -0.11823423390E+03  0.11823423390E+03  0.00000000000E+00 0.  1.
         24    2    1    2    0    0  0.11683256780E+02 -0.94479310034E+02 -0.62507872900E+02  0.14114346615E+03  0.83375088306E+02 0.  0.
         25    2    1    2    0    0 -0.23486162290E+02  0.10215397547E+03  0.45253221493E+03  0.48106174446E+03  0.12509181394E+03 0.  0.
        -24    2    1    2    0    0  0.11802905511E+02 -0.76746654338E+01  0.78942513512E+03  0.79371273433E+03  0.81176669058E+02 0.  0.
        -11    1    3    3    0    0  0.25232443859E+02 -0.82502703379E+02 -0.78768629623E+02  0.11682409555E+03  0.00000000000E+00 0.  1.
         12    1    3    3    0    0 -0.13549187079E+02 -0.11976606655E+02  0.16260756723E+02  0.24319370606E+02  0.00000000000E+00 0. -1.
         13    1    5    5    0    0 -0.10494381558E+02 -0.23874217972E+02  0.69126697626E+03  0.69175873163E+03  0.00000000000E+00 0. -1.
        -14    1    5    5    0    0  0.22297287068E+02  0.16199552538E+02  0.98158158870E+02  0.10195400270E+03  0.00000000000E+00 0.  1.
          5    1    4    4  501    0  0.46310771000E+02  0.13008067294E+02  0.10600386883E+03  0.11648257352E+03  0.41800000000E+01 0.  1.
         -5    1    4    4    0  501 -0.69796933290E+02  0.89145908174E+02  0.34652834610E+03  0.36457917095E+03  0.41800000000E+01 0.  1.
</event>
<event>
11    1  0.8551154E-009  0.1262085E+03  0.7561462E-02  0.1124017E+00
         22   -1    0    0    0    0  0.00000000000E+00  0.00000000000E+00  0.28303750863E+03  0.28303750863E+03  0.00000000000E+00 0. -1.
         22   -1    0    0    0    0 -0.00000000000E+00 -0.00000000000E+00 -0.71435019693E+03  0.71435019693E+03  0.00000000000E+00 0. -1.
        -24    2    1    2    0    0  0.26505821222E+00  0.17440566308E+02 -0.63825231097E+03  0.64354572620E+03  0.80503699543E+02 0.  0.
         25    2    1    2    0    0 -0.70454089788E+01 -0.14333198765E+01 -0.65988253219E+01  0.12546984094E+03  0.12508974497E+03 0.  0.
         24    2    1    2    0    0  0.67803507666E+01 -0.16007246431E+02  0.21353844798E+03  0.22837213843E+03  0.79075658377E+02 0.  0.
        -13    1    5    5    0    0  0.17657879074E+02 -0.37868158058E+02  0.61284802650E+02  0.74172940645E+02  0.00000000000E+00 0.  1.
         14    1    5    5    0    0 -0.10877528307E+02  0.21860911627E+02  0.15225364533E+03  0.15419919778E+03  0.00000000000E+00 0. -1.
         13    1    3    3    0    0  0.11428251838E+01  0.30895212678E+02 -0.62041967686E+03  0.62118950060E+03  0.00000000000E+00 0. -1.
        -14    1    3    3    0    0 -0.87776697155E+00 -0.13454646371E+02 -0.17832634106E+02  0.22356225598E+02  0.00000000000E+00 0.  1.
          5    1    4    4  501    0 -0.25972896592E+02 -0.58582981108E+02 -0.10160632037E+02  0.65017442862E+02  0.41800000000E+01 0.  1.
         -5    1    4    4    0  501  0.18927487613E+02  0.57149661231E+02  0.35618067151E+01  0.60452398077E+02  0.41800000000E+01 0.  1.
</event>
<event>
11    1  0.8551154E-009  0.1428813E+03  0.7561462E-02  0.1104383E+00
         22   -1    0    0    0    0  0.00000000000E+00  0.00000000000E+00  0.46409653962E+03  0.46409653962E+03  0.00000000000E+00 0. -1.
         22   -1    0    0    0    0 -0.00000000000E+00 -0.00000000000E+00 -0.12756050607E+03  0.12756050607E+03  0.00000000000E+00 0. -1.
        -24    2    1    2    0    0  0.20043213691E+02  0.10440330037E+03 -0.27605074626E+01  0.13572750588E+03  0.84335970428E+02 0.  0.
         25    2    1    2    0    0 -0.45166792163E+02  0.12387258867E+02  0.70015489033E+02  0.15080894559E+03  0.12509071137E+03 0.  0.
         24    2    1    2    0    0  0.25123578471E+02 -0.11679055923E+03  0.26928105198E+03  0.30512059421E+03  0.79467371540E+02 0.  0.
        -13    1    5    5    0    0  0.15135522076E+02 -0.64848093366E+02  0.61269406674E+02  0.90489222761E+02  0.00000000000E+00 0.  1.
         14    1    5    5    0    0  0.99880563950E+01 -0.51942465868E+02  0.20801164530E+03  0.21463137145E+03  0.00000000000E+00 0. -1.
         11    1    3    3    0    0 -0.18805545654E+02  0.91664417373E+02 -0.10352590207E+02  0.94144517014E+02  0.00000000000E+00 0. -1.
        -12    1    3    3    0    0  0.38848759345E+02  0.12738882994E+02  0.75920827446E+01  0.41582988865E+02  0.00000000000E+00 0.  1.
          5    1    4    4  501    0 -0.65060031246E+01 -0.54877495629E+02  0.35321487844E+02  0.65718699825E+02  0.41800000000E+01 0.  1.
         -5    1    4    4    0  501 -0.38660789038E+02  0.67264754496E+02  0.34694001189E+02  0.85090245768E+02  0.41800000000E+01 0.  1.
</event>
<event>
11    1  0.8551154E-009  0.1800542E+03  0.7561462E-02  0.1069599E+00
         22   -1    0    0    0    0  0.00000000000E+00  0.00000000000E+00  0.43411041322E+03  0.43411041322E+03  0.00000000000E+00 0. -1.
         22   -1    0    0    0    0 -0.00000000000E+00 -0.00000000000E+00 -0.87319182544E+03  0.87319182544E+03  0.00000000000E+00 0.  1.
         24    2    1    2    0    0  0.11060451734E+03 -0.52825352652E+02 -0.57696837347E+03  0.59538397189E+03  0.81028963105E+02 0.  0.
         25    2    1    2    0    0 -0.13797426724E+03  0.73674689930E+02 -0.24652621986E+03  0.31762695957E+03  0.12508736949E+03 0.  0.
        -24    2    1    2    0    0  0.27369749897E+02 -0.20849337279E+02  0.38441318111E+03  0.39429130720E+03  0.80674302270E+02 0.  0.
        -13    1    3    3    0    0  0.95044906852E+02 -0.40109509589E+02 -0.55896221162E+03  0.56840220012E+03  0.00000000000E+00 0.  1.
         14    1    3    3    0    0  0.15559610492E+02 -0.12715843063E+02 -0.18006161843E+02  0.26981771769E+02  0.00000000000E+00 0. -1.
         13    1    5    5    0    0  0.38798132692E+02  0.20922475184E+02  0.17712451718E+03  0.18252709294E+03  0.00000000000E+00 0. -1.
        -14    1    5    5    0    0 -0.11428382795E+02 -0.41771812462E+02  0.20728866393E+03  0.21176421426E+03  0.00000000000E+00 0.  1.
          5    1    4    4  501    0 -0.16042699706E+03  0.72259777012E+02 -0.22891461005E+03  0.28875191402E+03  0.41800000000E+01 0.  1.
         -5    1    4    4    0  501  0.22452729818E+02  0.14149129179E+01 -0.17611609818E+02  0.28875045545E+02  0.41800000000E+01 0.  1.
</event>
<event>
11    1  0.8551154E-009  0.1790984E+03  0.7561462E-02  0.1070374E+00
         22   -1    0    0    0    0  0.00000000000E+00  0.00000000000E+00  0.44168536297E+03  0.44168536297E+03  0.00000000000E+00 0. -1.
         22   -1    0    0    0    0 -0.00000000000E+00 -0.00000000000E+00 -0.32146068116E+03  0.32146068116E+03  0.00000000000E+00 0.  1.
        -24    2    1    2    0    0 -0.30902493978E+01 -0.10570500985E+03 -0.10141943057E+03  0.16719073701E+03  0.80521692073E+02 0.  0.
         25    2    1    2    0    0 -0.80235003602E+02  0.17264381282E+03 -0.99552740777E+02  0.24859885721E+03  0.12508837557E+03 0.  0.
         24    2    1    2    0    0  0.83325252999E+02 -0.66938802967E+02  0.32119685315E+03  0.34735644991E+03  0.77879289225E+02 0.  0.
        -13    1    5    5    0    0  0.31250230646E+01  0.16161559505E+02  0.32908809353E+02  0.36796080061E+02  0.00000000000E+00 0.  1.
         14    1    5    5    0    0  0.80200229935E+02 -0.83100362472E+02  0.28828804380E+03  0.31056036985E+03  0.00000000000E+00 0. -1.
         13    1    3    3    0    0 -0.23716787482E+02 -0.42770907653E+01 -0.28616313964E+01  0.24268672154E+02  0.00000000000E+00 0. -1.
        -14    1    3    3    0    0  0.20626538084E+02 -0.10142791909E+03 -0.98557799174E+02  0.14292206485E+03  0.00000000000E+00 0.  1.
          5    1    4    4  501    0  0.22838646887E+02  0.66446949871E+02 -0.66648267780E+02  0.96934333118E+02  0.41800000000E+01 0.  1.
         -5    1    4    4    0  501 -0.10307365049E+03  0.10619686295E+03 -0.32904472997E+02  0.15166452409E+03  0.41800000000E+01 0.  1.
</event>
<event>
11    1  0.8551154E-009  0.3421539E+03  0.7561462E-02  0.9837772E-01
         22   -1    0    0    0    0  0.00000000000E+00  0.00000000000E+00  0.59600964071E+03  0.59600964071E+03  0.00000000000E+00 0. -1.
         22   -1    0    0    0    0 -0.00000000000E+00 -0.00000000000E+00 -0.17567860837E+04  0.17567860837E+04  0.00000000000E+00 0. -1.
        -24    2    1    2    0    0  0.31723179382E+03 -0.12370218372E+02 -0.15754776583E+04  0.16089391933E+04  0.75937096616E+02 0.  0.
         25    2    1    2    0    0 -0.32915709941E+03  0.28089491024E+02  0.34607853280E+02  0.35493615695E+03  0.12509419012E+03 0.  0.
         24    2    1    2    0    0  0.11925305592E+02 -0.15719272652E+02  0.38009336206E+03  0.38892037413E+03  0.79992406437E+02 0.  0.
        -11    1    5    5    0    0 -0.18445498519E+02  0.25311921336E+02  0.14887755323E+03  0.15213630610E+03  0.00000000000E+00 0.  1.
         12    1    5    5    0    0  0.30370804111E+02 -0.41031193988E+02  0.23121580882E+03  0.23678406803E+03  0.00000000000E+00 0. -1.
         11    1    3    3    0    0  0.24301374967E+03 -0.41664709696E+02 -0.12052578877E+04  0.12302187636E+04  0.00000000000E+00 0. -1.
        -12    1    3    3    0    0  0.74218044153E+02  0.29294491324E+02 -0.37021977060E+03  0.37872042966E+03  0.00000000000E+00 0.  1.
          5    1    4    4  501    0 -0.27619547451E+03  0.48426178673E+02 -0.13023767911E+02  0.28074209847E+03  0.41800000000E+01 0.  1.
         -5    1    4    4    0  501 -0.52961624901E+02 -0.20336687649E+02  0.47631621191E+02  0.74194058481E+02  0.41800000000E+01 0.  1.
</event>
<event>
11    1  0.8551154E-009  0.1573455E+03  0.7561462E-02  0.1089601E+00
         22   -1    0    0    0    0  0.00000000000E+00  0.00000000000E+00  0.42052730391E+03  0.42052730391E+03  0.00000000000E+00 0. -1.
         22   -1    0    0    0    0 -0.00000000000E+00 -0.00000000000E+00 -0.35053500274E+03  0.35053500274E+03  0.00000000000E+00 0. -1.
        -24    2    1    2    0    0  0.89709483301E+02 -0.18651498969E+02 -0.27534157090E+03  0.30720813618E+03  0.10083743581E+03 0.  0.
         25    2    1    2    0    0 -0.13347253106E+03  0.67479573873E+02  0.16075434823E+03  0.25270156310E+03  0.12509080733E+03 0.  0.
         24    2    1    2    0    0  0.43763047763E+02 -0.48828074904E+02  0.18457952385E+03  0.21115260737E+03  0.78844389322E+02 0.  0.
        -11    1    5    5    0    0 -0.36177521539E+01 -0.35271788398E+02  0.23093952682E+02  0.42314510962E+02  0.00000000000E+00 0.  1.
         12    1    5    5    0    0  0.47380799917E+02 -0.13556286506E+02  0.16148557117E+03  0.16883809641E+03  0.00000000000E+00 0. -1.
         13    1    3    3    0    0  0.10604911080E+01 -0.26204615786E+02 -0.15687839310E+03  0.15905545181E+03  0.00000000000E+00 0. -1.
        -14    1    3    3    0    0  0.88648992193E+02  0.75531168178E+01 -0.11846317780E+03  0.14815268437E+03  0.00000000000E+00 0.  1.
          5    1    4    4  501    0 -0.13017980583E+03  0.58129235716E+01  0.12785292666E+03  0.18260453220E+03  0.41800000000E+01 0. -1.
         -5    1    4    4    0  501 -0.32927252360E+01  0.61666650301E+02  0.32901421569E+02  0.70097030893E+02  0.41800000000E+01 0. -1.
</event>
<event>
11    1  0.8551154E-009  0.1354077E+03  0.7561462E-02  0.1112798E+00
         22   -1    0    0    0    0  0.00000000000E+00  0.00000000000E+00  0.26350713536E+04  0.26350713536E+04  0.00000000000E+00 0. -1.
         22   -1    0    0    0    0 -0.00000000000E+00 -0.00000000000E+00 -0.68781235782E+02  0.68781235782E+02  0.00000000000E+00 0. -1.
        -24    2    1    2    0    0 -0.78934903543E+01 -0.79512344398E+01 -0.34847634938E+02  0.88393437886E+02  0.80458143661E+02 0.  0.
         25    2    1    2    0    0  0.56630569557E+02  0.19052002467E+02  0.82797402298E+03  0.83949877314E+03  0.12508879717E+03 0.  0.
         24    2    1    2    0    0 -0.48737079203E+02 -0.11100768027E+02  0.17731637297E+04  0.17759603783E+04  0.86180757341E+02 0.  0.
        -13    1    5    5    0    0  0.99858856650E+01 -0.19804703517E+01  0.28137576865E+02  0.29922623668E+02  0.00000000000E+00 0.  1.
         14    1    5    5    0    0 -0.58722964868E+02 -0.91202976756E+01  0.17450261529E+04  0.17460377546E+04  0.00000000000E+00 0. -1.
         11    1    3    3    0    0 -0.41242279327E+02  0.10110480425E+02 -0.12038022221E+02  0.44136848522E+02  0.00000000000E+00 0. -1.
        -12    1    3    3    0    0  0.33348788972E+02 -0.18061714865E+02 -0.22809612717E+02  0.44256589363E+02  0.00000000000E+00 0.  1.
          5    1    4    4  501    0  0.71203209994E+02  0.17807358103E+01  0.22401447989E+03  0.23510216446E+03  0.41800000000E+01 0. -1.
         -5    1    4    4    0  501 -0.14572640437E+02  0.17271266657E+02  0.60395954309E+03  0.60439660868E+03  0.41800000000E+01 0. -1.
</event>
<event>
11    1  0.8551154E-009  0.1786392E+03  0.7561462E-02  0.1070749E+00
         22   -1    0    0    0    0  0.00000000000E+00  0.00000000000E+00  0.96652689208E+03  0.96652689208E+03  0.00000000000E+00 0. -1.
         22   -1    0    0    0    0 -0.00000000000E+00 -0.00000000000E+00 -0.33759095311E+03  0.33759095311E+03  0.00000000000E+00 0.  1.
        -24    2    1    2    0    0  0.12569562245E+03 -0.28982984005E+01 -0.28673530736E+03  0.32357472191E+03  0.81704801180E+02 0.  0.
         25    2    1    2    0    0 -0.16272474608E+03  0.11763875014E+02  0.33261072247E+03  0.39101787130E+03  0.12508937301E+03 0.  0.
         24    2    1    2    0    0  0.37029123625E+02 -0.88655766135E+01  0.58306052386E+03  0.58952525198E+03  0.78298747060E+02 0.  0.
        -11    1    5    5    0    0 -0.86783919699E+01  0.24534151891E+02  0.10740212029E+03  0.11050997484E+03  0.00000000000E+00 0.  1.
         12    1    5    5    0    0  0.45707515595E+02 -0.33399728504E+02  0.47565840357E+03  0.47901527714E+03  0.00000000000E+00 0. -1.
         11    1    3    3    0    0  0.18641141826E+02  0.19217841638E+02 -0.15030532036E+02  0.30703981812E+02  0.00000000000E+00 0. -1.
        -12    1    3    3    0    0  0.10705448062E+03 -0.22116140039E+02 -0.27170477532E+03  0.29287074010E+03  0.00000000000E+00 0.  1.
          5    1    4    4  501    0 -0.31739887550E+02 -0.33136784933E+02  0.22297219490E+02  0.51186964887E+02  0.41800000000E+01 0.  1.
         -5    1    4    4    0  501 -0.13098485852E+03  0.44900659947E+02  0.31031350298E+03  0.33983090642E+03  0.41800000000E+01 0.  1.
</event>
<event>
11    1  0.8551154E-009  0.1626128E+03  0.7561462E-02  0.1084645E+00
         22   -1    0    0    0    0  0.00000000000E+00  0.00000000000E+00  0.15851204913E+03  0.15851204913E+03  0.00000000000E+00 0. -1.
         22   -1    0    0    0    0 -0.00000000000E+00 -0.00000000000E+00 -0.33478365810E+03  0.33478365810E+03  0.00000000000E+00 0.  1.
        -24    2    1    2    0    0  0.33802457662E+02 -0.62086087790E+02 -0.14057812845E+03  0.17565107571E+03  0.78062806503E+02 0.  0.
         25    2    1    2    0    0  0.78694969387E+02  0.24538944012E+02 -0.77351005047E+02  0.16859050848E+03  0.12507806997E+03 0.  0.
         24    2    1    2    0    0 -0.11249742705E+03  0.37547143778E+02  0.41657524529E+02  0.14905412304E+03  0.80101954705E+02 0.  0.
        -13    1    5    5    0    0 -0.91770148162E+02 -0.68734487007E+01  0.39040609322E+02  0.99965862008E+02  0.00000000000E+00 0.  1.
         14    1    5    5    0    0 -0.20727278887E+02  0.44420592479E+02  0.26169152072E+01  0.49088261035E+02  0.00000000000E+00 0. -1.
         11    1    3    3    0    0  0.43680075257E+02 -0.56880113688E+02 -0.57761676016E+02  0.92085327408E+02  0.00000000000E+00 0. -1.
        -12    1    3    3    0    0 -0.98776175960E+01 -0.52059741024E+01 -0.82816452437E+02  0.83565748307E+02  0.00000000000E+00 0.  1.
          5    1    4    4  501    0  0.48360028146E+02 -0.15411638525E+02 -0.10089533720E+03  0.11302014154E+03  0.41800000000E+01 0.  1.
         -5    1    4    4    0  501  0.30334941241E+02  0.39950582537E+02  0.23544332155E+02  0.55570366939E+02  0.41800000000E+01 0.  1.
</event>
<event>
11    1  0.8551154E-009  0.1844823E+03  0.7561462E-02  0.1066074E+00
         22   -1    0    0    0    0  0.00000000000E+00  0.00000000000E+00  0.71367972400E+03  0.71367972400E+03  0.00000000000E+00 0. -1.
         22   -1    0    0    0    0 -0.00000000000E+00 -0.00000000000E+00 -0.14697680121E+04  0.14697680121E+04  0.00000000000E+00 0. -1.
         24    2    1    2    0    0  0.71958932860E+01 -0.91701036831E+01 -0.13977448906E+04  0.14001039202E+04  0.80401097183E+02 0.  0.
         25    2    1    2    0    0  0.75384260417E+02  0.11614797560E+03  0.85276998760E+02  0.20516595947E+03  0.12509102867E+03 0.  0.
        -24    2    1    2    0    0 -0.82580153703E+02 -0.10697787192E+03  0.55637960376E+03  0.57817785642E+03  0.80421535126E+02 0.  0.
        -13    1    3    3    0    0  0.10763503474E+01  0.16316121044E+02 -0.62555480684E+02  0.64657269504E+02  0.00000000000E+00 0.  1.
         14    1    3    3    0    0  0.61195429386E+01 -0.25486224728E+02 -0.13351894100E+04  0.13354466507E+04  0.00000000000E+00 0. -1.
         13    1    5    5    0    0 -0.87356046135E+02 -0.63450534368E+02  0.45696788815E+03  0.46954946482E+03  0.00000000000E+00 0. -1.
        -14    1    5    5    0    0  0.47758924321E+01 -0.43527337551E+02  0.99411715606E+02  0.10862839160E+03  0.00000000000E+00 0.  1.
          5    1    4    4  501    0  0.10277781780E+03  0.78054750520E+02  0.90630538168E+02  0.15775674552E+03  0.41800000000E+01 0.  1.
         -5    1    4    4    0  501 -0.27393557380E+02  0.38093225082E+02 -0.53535394077E+01  0.47409213949E+02  0.41800000000E+01 0.  1.
</event>
<event>
11    1  0.8551154E-009  0.1432800E+03  0.7561462E-02  0.1103950E+00
         22   -1    0    0    0    0  0.00000000000E+00  0.00000000000E+00  0.17972146628E+04  0.17972146628E+04  0.00000000000E+00 0. -1.
         22   -1    0    0    0    0 -0.00000000000E+00 -0.00000000000E+00 -0.74780519276E+03  0.74780519276E+03  0.00000000000E+00 0. -1.
        -24    2    1    2    0    0  0.29967683262E+02 -0.63149936208E+02 -0.73306021973E+03  0.74078770038E+03  0.80642140375E+02 0.  0.
         25    2    1    2    0    0 -0.75490676543E+01  0.69660489036E+02  0.53528365629E+03  0.55415249522E+03  0.12508726198E+03 0.  0.
         24    2    1    2    0    0 -0.22418615607E+02 -0.65105528284E+01  0.12471860335E+04  0.12500796600E+04  0.81738439824E+02 0.  0.
        -11    1    5    5    0    0  0.26353997585E+02  0.16428214719E+02  0.47759778009E+03  0.47860637164E+03  0.00000000000E+00 0.  1.
         12    1    5    5    0    0 -0.48772613192E+02 -0.22938767547E+02  0.76958825338E+03  0.77147328833E+03  0.00000000000E+00 0. -1.
         11    1    3    3    0    0  0.52961857350E+02 -0.64464591532E+02 -0.55226125099E+03  0.55852764590E+03  0.00000000000E+00 0. -1.
        -12    1    3    3    0    0 -0.22994174088E+02  0.13146553237E+01 -0.18079896874E+03  0.18226005447E+03  0.00000000000E+00 0.  1.
          5    1    4    4  501    0  0.25203911745E+02 -0.51143318525E+01  0.35783430557E+03  0.35878162746E+03  0.41800000000E+01 0.  1.
         -5    1    4    4    0  501 -0.32752979399E+02  0.74774820889E+02  0.17744935072E+03  0.19537086776E+03  0.41800000000E+01 0.  1.
</event>
<event>
11    1  0.8551154E-009  0.2058593E+03  0.7561462E-02  0.1050456E+00
         22   -1    0    0    0    0  0.00000000000E+00  0.00000000000E+00  0.23887916432E+03  0.23887916432E+03  0.00000000000E+00 0. -1.
         22   -1    0    0    0    0 -0.00000000000E+00 -0.00000000000E+00 -0.73313122010E+03  0.73313122010E+03  0.00000000000E+00 0.  1.
        -24    2    1    2    0    0 -0.10400823152E+03  0.11225902110E+03 -0.49656027384E+03  0.52581557071E+03  0.80561211532E+02 0.  0.
         25    2    1    2    0    0  0.13708228930E+03 -0.17235618638E+03 -0.12531649625E+03  0.28257632051E+03  0.12508774383E+03 0.  0.
         24    2    1    2    0    0 -0.33074057776E+02  0.60097165284E+02  0.12762471431E+03  0.16361849320E+03  0.76009085260E+02 0.  0.
        -11    1    5    5    0    0 -0.12264833202E+02 -0.10862238340E+02  0.30990045830E+00  0.16386286752E+02  0.00000000000E+00 0.  1.
         12    1    5    5    0    0 -0.20809224574E+02  0.70959403625E+02  0.12731481385E+03  0.14723220645E+03  0.00000000000E+00 0. -1.
         13    1    3    3    0    0 -0.31217332260E+02  0.66443924023E+02 -0.12996176468E+03  0.14926277885E+03  0.00000000000E+00 0. -1.
        -14    1    3    3    0    0 -0.72790899263E+02  0.45815097076E+02 -0.36659850916E+03  0.37655279186E+03  0.00000000000E+00 0.  1.
          5    1    4    4  501    0  0.10293574228E+03 -0.12341301793E+03 -0.20733945349E+02  0.16209228520E+03  0.41800000000E+01 0. -1.
         -5    1    4    4    0  501  0.34146547022E+02 -0.48943168456E+02 -0.10458255090E+03  0.12048403531E+03  0.41800000000E+01 0. -1.
</event>
<event>
11    1  0.8551154E-009  0.1715766E+03  0.7561462E-02  0.1076668E+00
         22   -1    0    0    0    0  0.00000000000E+00  0.00000000000E+00  0.67790728917E+03  0.67790728917E+03  0.00000000000E+00 0.  1.
         22   -1    0    0    0    0 -0.00000000000E+00 -0.00000000000E+00 -0.96555507944E+03  0.96555507944E+03  0.00000000000E+00 0. -1.
         24    2    1    2    0    0 -0.10766413824E+03 -0.54103901071E+02 -0.92113077160E+03  0.93239315591E+03  0.79726407289E+02 0.  0.
         25    2    1    2    0    0  0.20531043756E+02  0.49034687816E+02  0.10888790155E+03  0.17415522266E+03  0.12509013594E+03 0.  0.
        -24    2    1    2    0    0  0.87133094480E+02  0.50692132553E+01  0.52459507978E+03  0.53691399004E+03  0.73883434526E+02 0.  0.
        -13    1    3    3    0    0 -0.34667169215E+01  0.85552662105E+01 -0.11858874448E+02  0.15028094001E+02  0.00000000000E+00 0.  1.
         14    1    3    3    0    0 -0.10419742131E+03 -0.62659167282E+02 -0.90927189715E+03  0.91736506190E+03  0.00000000000E+00 0. -1.
         11    1    5    5    0    0 -0.87472173527E+01  0.93585510057E+01  0.13761067416E+03  0.13820562193E+03  0.00000000000E+00 0. -1.
        -12    1    5    5    0    0  0.95880311832E+02 -0.42893377504E+01  0.38698440561E+03  0.39870836811E+03  0.00000000000E+00 0.  1.
          5    1    4    4  501    0  0.34854284642E+02  0.87640749131E+02  0.79008876879E+02  0.12310807078E+03  0.41800000000E+01 0.  1.
         -5    1    4    4    0  501 -0.14323240886E+02 -0.38606061315E+02  0.29879024672E+02  0.51047151881E+02  0.41800000000E+01 0.  1.
</event>
<event>
11    1  0.8551154E-009  0.1469241E+03  0.7561462E-02  0.1100064E+00
         22   -1    0    0    0    0  0.00000000000E+00  0.00000000000E+00  0.10468947669E+04  0.10468947669E+04  0.00000000000E+00 0. -1.
         22   -1    0    0    0    0 -0.00000000000E+00 -0.00000000000E+00 -0.25179424762E+03  0.25179424762E+03  0.00000000000E+00 0.  1.
         24    2    1    2    0    0  0.69503020724E+02 -0.33687631992E+02 -0.22124721134E+03  0.24739881481E+03  0.79311528815E+02 0.  0.
         25    2    1    2    0    0 -0.82875872727E+02 -0.44267660539E+02  0.62849643446E+03  0.64767537845E+03  0.12509033402E+03 0.  0.
        -24    2    1    2    0    0  0.13372852003E+02  0.77955292531E+02  0.38785129620E+03  0.40361482131E+03  0.78869735718E+02 0.  0.
        -13    1    3    3    0    0  0.44572753717E+02  0.78520070831E+01 -0.17376933259E+03  0.17956660418E+03  0.00000000000E+00 0.  1.
         14    1    3    3    0    0  0.24930267007E+02 -0.41539639075E+02 -0.47477878753E+02  0.67832210626E+02  0.00000000000E+00 0. -1.
         11    1    5    5    0    0  0.35823348092E+02  0.44181480161E+02  0.31626441004E+03  0.32133859481E+03  0.00000000000E+00 0. -1.
        -12    1    5    5    0    0 -0.22450496090E+02  0.33773812370E+02  0.71586886167E+02  0.82276226505E+02  0.00000000000E+00 0.  1.
          5    1    4    4  501    0  0.23933573378E+02 -0.38874062737E+02  0.13078300313E+03  0.13858454097E+03  0.41800000000E+01 0.  1.
         -5    1    4    4    0  501 -0.10680944611E+03 -0.53935978021E+01  0.49771343133E+03  0.50909083748E+03  0.41800000000E+01 0.  1.
</event>
<event>
11    1  0.8551154E-009  0.1470667E+03  0.7561462E-02  0.1099914E+00
         22   -1    0    0    0    0  0.00000000000E+00  0.00000000000E+00  0.23070710546E+04  0.23070710546E+04  0.00000000000E+00 0.  1.
         22   -1    0    0    0    0 -0.00000000000E+00 -0.00000000000E+00 -0.25868127294E+04  0.25868127294E+04  0.00000000000E+00 0.  1.
         24    2    1    2    0    0 -0.60931571145E+02 -0.47632747750E+02 -0.25689569007E+04  0.25721180093E+04  0.10134081532E+03 0.  0.
         25    2    1    2    0    0  0.12225025257E+02  0.10601753649E+03  0.44511897123E+03  0.47451906861E+03  0.12509307991E+03 0.  0.
        -24    2    1    2    0    0  0.48706545888E+02 -0.58384788740E+02  0.18440962547E+04  0.18472467061E+04  0.76474084532E+02 0.  0.
        -11    1    3    3    0    0 -0.84885437261E+02 -0.25122481197E+02 -0.21716821404E+04  0.21734856787E+04  0.00000000000E+00 0.  1.
         12    1    3    3    0    0  0.23953866115E+02 -0.22510266553E+02 -0.39727476030E+03  0.39863233057E+03  0.00000000000E+00 0. -1.
         11    1    5    5    0    0  0.33260015474E+02 -0.30858409388E+01  0.26360526474E+03  0.26571316611E+03  0.00000000000E+00 0. -1.
        -12    1    5    5    0    0  0.15446530414E+02 -0.55298947801E+02  0.15804909899E+04  0.15815335400E+04  0.00000000000E+00 0.  1.
          5    1    4    4  501    0 -0.21494068321E+01  0.11700474425E+03  0.43991655981E+03  0.45523486480E+03  0.41800000000E+01 0. -1.
         -5    1    4    4    0  501  0.14374432089E+02 -0.10987207764E+02  0.52024114199E+01  0.19284203818E+02  0.41800000000E+01 0. -1.
</event>
<event>
11    1  0.8551154E-009  0.1733404E+03  0.7561462E-02  0.1075161E+00
         22   -1    0    0    0    0  0.00000000000E+00  0.00000000000E+00  0.18451188448E+03  0.18451188448E+03  0.00000000000E+00 0.  1.
         22   -1    0    0    0    0 -0.00000000000E+00 -0.00000000000E+00 -0.97416705408E+03  0.97416705408E+03  0.00000000000E+00 0.  1.
         24    2    1    2    0    0  0.10887440792E+03 -0.48545221164E+02 -0.85238664754E+03  0.86451606075E+03  0.81331096082E+02 0.  0.
         25    2    1    2    0    0 -0.14257851547E+03  0.80501812615E+01  0.25271434397E+02  0.19152117297E+03  0.12509306859E+03 0.  0.
        -24    2    1    2    0    0  0.33704107548E+02  0.40495039902E+02  0.37460043545E+02  0.10264170483E+03  0.79726090994E+02 0.  0.
        -11    1    3    3    0    0  0.10759441561E+03 -0.41189434926E+02 -0.84813487082E+03  0.85592399599E+03  0.00000000000E+00 0.  1.
         12    1    3    3    0    0  0.12799923171E+01 -0.73557862377E+01 -0.42517767256E+01  0.85920647595E+01  0.00000000000E+00 0. -1.
         13    1    5    5    0    0 -0.11449232168E+02  0.30119540047E+02 -0.12448906189E+02  0.34543405669E+02  0.00000000000E+00 0. -1.
        -14    1    5    5    0    0  0.45153339716E+02  0.10375499855E+02  0.49908949734E+02  0.68098299159E+02  0.00000000000E+00 0.  1.
          5    1    4    4  501    0 -0.48999040880E+02  0.21969087662E+02 -0.47716184578E+02  0.71957303247E+02  0.41800000000E+01 0.  1.
         -5    1    4    4    0  501 -0.93579474591E+02 -0.13918906401E+02  0.72987618976E+02  0.11956386973E+03  0.41800000000E+01 0.  1.
</event>
<event>
11    1  0.8949468E-009  0.1653281E+03  0.7561462E-02  0.1082170E+00
         22   -1    0    0    0    0  0.00000000000E+00  0.00000000000E+00  0.10604089452E+04  0.10604089452E+04  0.00000000000E+00 0.  1.
         22   -1    0    0    0    0 -0.00000000000E+00 -0.00000000000E+00 -0.20829668420E+04  0.20829668420E+04  0.00000000000E+00 0. -1.
        -24    2    1    2    0    0  0.87291393089E+02 -0.62131700363E+02 -0.18486851636E+04  0.18544110720E+04  0.98607577812E+02 0.  0.
         25    2    1    2    0    0 -0.14258622488E+03  0.55668601964E+01 -0.18891066597E+03  0.26776098385E+03  0.12508750258E+03 0.  0.
         24    2    1    2    0    0  0.55294831789E+02  0.56564840166E+02  0.10150379328E+04  0.10212037314E+04  0.79359665510E+02 0.  0.
        -11    1    5    5    0    0  0.75876931484E+02  0.44641757934E+02  0.82460871244E+03  0.82929471475E+03  0.00000000000E+00 0.  1.
         12    1    5    5    0    0 -0.20582099695E+02  0.11923082232E+02  0.19042922033E+03  0.19190901665E+03  0.00000000000E+00 0. -1.
         13    1    3    3    0    0  0.10838288744E+03 -0.61180374389E+02 -0.15960828740E+04  0.16009279900E+04  0.00000000000E+00 0. -1.
        -14    1    3    3    0    0 -0.21091494353E+02 -0.95132597386E+00 -0.25260228961E+03  0.25348308202E+03  0.00000000000E+00 0.  1.
          5    1    4    4  501    0 -0.80547726049E+02  0.30778059786E+02 -0.18057412250E+03  0.20014922246E+03  0.41800000000E+01 0.  1.
         -5    1    4    4    0  501 -0.62038498830E+02 -0.25211199589E+02 -0.83365434696E+01  0.67611761394E+02  0.41800000000E+01 0.  1.
</event>
<event>
11    1  0.8551154E-009  0.1404489E+03  0.7561462E-02  0.1107058E+00
         22   -1    0    0    0    0  0.00000000000E+00  0.00000000000E+00  0.12808532245E+04  0.12808532245E+04  0.00000000000E+00 0.  1.
         22   -1    0    0    0    0 -0.00000000000E+00 -0.00000000000E+00 -0.11859466018E+04  0.11859466018E+04  0.00000000000E+00 0. -1.
        -24    2    1    2    0    0 -0.54953811290E+02 -0.30943620235E+02 -0.10936769807E+04  0.10978906042E+04  0.72505252845E+02 0.  0.
         25    2    1    2    0    0  0.74680180598E+02  0.48209616988E+02 -0.22396224104E+02  0.15508411046E+03  0.12509274127E+03 0.  0.
         24    2    1    2    0    0 -0.19726369308E+02 -0.17265996753E+02  0.12109798275E+04  0.12138251116E+04  0.78816335821E+02 0.  0.
        -13    1    5    5    0    0 -0.36558933018E+02 -0.16457198086E+02  0.11458256438E+04  0.11465268427E+04  0.00000000000E+00 0.  1.
         14    1    5    5    0    0  0.16832563710E+02 -0.80879866697E+00  0.65154183656E+02  0.67298268954E+02  0.00000000000E+00 0. -1.
         11    1    3    3    0    0 -0.42495703437E+02  0.15244180490E+02 -0.67049800224E+03  0.67201625044E+03  0.00000000000E+00 0. -1.
        -12    1    3    3    0    0 -0.12458107854E+02 -0.46187800725E+02 -0.42317897845E+03  0.42587435375E+03  0.00000000000E+00 0.  1.
          5    1    4    4  501    0  0.93012782836E+02  0.25627042395E+02  0.24603411566E+02  0.99654018151E+02  0.41800000000E+01 0.  1.
         -5    1    4    4    0  501 -0.18332602238E+02  0.22582574593E+02 -0.46999635670E+02  0.55430092307E+02  0.41800000000E+01 0.  1.
</event>
<event>
11    1  0.8551154E-009  0.1404853E+03  0.7561462E-02  0.1107018E+00
         22   -1    0    0    0    0  0.00000000000E+00  0.00000000000E+00  0.21729211783E+04  0.21729211783E+04  0.00000000000E+00 0.  1.
         22   -1    0    0    0    0 -0.00000000000E+00 -0.00000000000E+00 -0.10941712454E+03  0.10941712454E+03  0.00000000000E+00 0. -1.
         24    2    1    2    0    0  0.13639650433E+02 -0.29542339125E+02 -0.71830463460E+02  0.11361624369E+03  0.81793920830E+02 0.  0.
         25    2    1    2    0    0 -0.12101802880E+02 -0.36869894005E+02  0.26505694922E+03  0.29564973410E+03  0.12509091185E+03 0.  0.
        -24    2    1    2    0    0 -0.15378475523E+01  0.66412233129E+02  0.18702775680E+04  0.18730723251E+04  0.77774056041E+02 0.  0.
        -11    1    3    3    0    0 -0.13658415378E+02 -0.42770243071E+02 -0.11903583486E+02  0.46449341252E+02  0.00000000000E+00 0.  1.
         12    1    3    3    0    0  0.27298065811E+02  0.13227903946E+02 -0.59926879974E+02  0.67166902439E+02  0.00000000000E+00 0. -1.
         13    1    5    5    0    0 -0.16345865497E+02 -0.84414227892E+01  0.15327518533E+03  0.15437528098E+03  0.00000000000E+00 0. -1.
        -14    1    5    5    0    0  0.14808017945E+02  0.74853655919E+02  0.17170023827E+04  0.17186970441E+04  0.00000000000E+00 0.  1.
          5    1    4    4  501    0 -0.40335927458E+02 -0.17345285187E+02  0.25617790505E+03  0.25994698959E+03  0.41800000000E+01 0. -1.
         -5    1    4    4    0  501  0.28234124578E+02 -0.19524608818E+02  0.88790441717E+01  0.35702744510E+02  0.41800000000E+01 0. -1.
</event>
<event>
11    1  0.8551154E-009  0.1330507E+03  0.7561462E-02  0.1115576E+00
         22   -1    0    0    0    0  0.00000000000E+00  0.00000000000E+00  0.47178000642E+03  0.47178000642E+03  0.00000000000E+00 0. -1.
         22   -1    0    0    0    0 -0.00000000000E+00 -0.00000000000E+00 -0.54588170072E+03  0.54588170072E+03  0.00000000000E+00 0.  1.
        -24    2    1    2    0    0 -0.24371085489E+02 -0.22741458825E+02 -0.48276699004E+03  0.49083294642E+03  0.82109018177E+02 0.  0.
         25    2    1    2    0    0  0.26981012472E+02  0.65695466448E+02  0.42944610285E+02  0.15011860013E+03  0.12508990849E+03 0.  0.
         24    2    1    2    0    0 -0.26099269832E+01 -0.42954007623E+02  0.36572068544E+03  0.37671016059E+03  0.79417043767E+02 0.  0.
        -11    1    5    5    0    0  0.17076471095E+02 -0.13351827943E+02  0.21065557202E+02  0.30226393677E+02  0.00000000000E+00 0.  1.
         12    1    5    5    0    0 -0.19686398078E+02 -0.29602179680E+02  0.34465512824E+03  0.34648376691E+03  0.00000000000E+00 0. -1.
         11    1    3    3    0    0 -0.17098118510E+00 -0.33827365270E+02 -0.75911303132E+02  0.83107435401E+02  0.00000000000E+00 0. -1.
        -12    1    3    3    0    0 -0.24200104303E+02  0.11085906446E+02 -0.40685568691E+03  0.40772551102E+03  0.00000000000E+00 0.  1.
          5    1    4    4  501    0 -0.49734636893E+02  0.35060774589E+02  0.21495736578E+02  0.64670944888E+02  0.41800000000E+01 0.  1.
         -5    1    4    4    0  501  0.76715649365E+02  0.30634691860E+02  0.21448873707E+02  0.85447655241E+02  0.41800000000E+01 0.  1.
</event>
<event>
11    1  0.8551154E-009  0.1528624E+03  0.7561462E-02  0.1093989E+00
         22   -1    0    0    0    0  0.00000000000E+00  0.00000000000E+00  0.65040326860E+03  0.65040326860E+03  0.00000000000E+00 0. -1.
         22   -1    0    0    0    0 -0.00000000000E+00 -0.00000000000E+00 -0.53841293080E+03  0.53841293080E+03  0.00000000000E+00 0. -1.
        -24    2    1    2    0    0  0.24807749479E+02  0.46748987603E+02 -0.48199767908E+03  0.49159729457E+03  0.80902689148E+02 0.  0.
         25    2    1    2    0    0  0.59553554910E+02 -0.74533394523E+02  0.95379514148E+02  0.18397292984E+03  0.12508770681E+03 0.  0.
         24    2    1    2    0    0 -0.84361304389E+02  0.27784406920E+02  0.49860850274E+03  0.51324597499E+03  0.83199692912E+02 0.  0.
        -13    1    5    5    0    0 -0.36775036620E+02  0.48195045722E+02  0.16791669520E+03  0.17852501863E+03  0.00000000000E+00 0.  1.
         14    1    5    5    0    0 -0.47586267769E+02 -0.20410638802E+02  0.33069180754E+03  0.33472095637E+03  0.00000000000E+00 0. -1.
         13    1    3    3    0    0 -0.20657157638E+02  0.23972924964E+02 -0.32574197278E+03  0.32727549882E+03  0.00000000000E+00 0. -1.
        -14    1    3    3    0    0  0.45464907117E+02  0.22776062639E+02 -0.15625570630E+03  0.16432179575E+03  0.00000000000E+00 0.  1.
          5    1    4    4  501    0 -0.34337145337E+02 -0.80766883380E+01  0.47483621603E+02  0.59299571373E+02  0.41800000000E+01 0. -1.
         -5    1    4    4    0  501  0.93890700248E+02 -0.66456706185E+02  0.47895892544E+02  0.12467335847E+03  0.41800000000E+01 0. -1.
</event>
<event>
11    1  0.8551154E-009  0.1364399E+03  0.7561462E-02  0.1111600E+00
         22   -1    0    0    0    0  0.00000000000E+00  0.00000000000E+00  0.93800388053E+03  0.93800388053E+03  0.00000000000E+00 0. -1.
         22   -1    0    0    0    0 -0.00000000000E+00 -0.00000000000E+00 -0.78082749465E+02  0.78082749465E+02  0.00000000000E+00 0. -1.
         24    2    1    2    0    0  0.45496173494E+02 -0.11099045126E+02 -0.20735654076E+02  0.94513434957E+02  0.79433817938E+02 0.  0.
         25    2    1    2    0    0 -0.66691350541E+02  0.54485010762E+02  0.33228570008E+03  0.36534701174E+03  0.12509316480E+03 0.  0.
        -24    2    1    2    0    0  0.21195177047E+02 -0.43385965637E+02  0.54837108507E+03  0.55622618330E+03  0.79656402781E+02 0.  0.
        -11    1    3    3    0    0 -0.24674282932E+01 -0.36924521239E+02 -0.25944300583E+01  0.37097702603E+02  0.00000000000E+00 0.  1.
         12    1    3    3    0    0  0.47963601787E+02  0.25825476114E+02 -0.18141224018E+02  0.57415732354E+02  0.00000000000E+00 0. -1.
         13    1    5    5    0    0  0.19825757569E+02 -0.66046749978E+02  0.36518128985E+03  0.37163504720E+03  0.00000000000E+00 0. -1.
        -14    1    5    5    0    0  0.13694194781E+01  0.22660784341E+02  0.18318979521E+03  0.18459113610E+03  0.00000000000E+00 0.  1.
          5    1    4    4  501    0  0.79689715653E+01 -0.34239984256E+02  0.89886139909E+02  0.96606788464E+02  0.41800000000E+01 0. -1.
         -5    1    4    4    0  501 -0.74660322106E+02  0.88724995018E+02  0.24239956017E+03  0.26874022328E+03  0.41800000000E+01 0. -1.
</event>
<event>
11    1  0.8551154E-009  0.1630639E+03  0.7561462E-02  0.1084230E+00
         22   -1    0    0    0    0  0.00000000000E+00  0.00000000000E+00  0.17947321253E+03  0.17947321253E+03  0.00000000000E+00 0.  1.
         22   -1    0    0    0    0 -0.00000000000E+00 -0.00000000000E+00 -0.11874784833E+04  0.11874784833E+04  0.00000000000E+00 0.  1.
         24    2    1    2    0    0 -0.58283104538E+02  0.50284065945E+02 -0.73160139573E+03  0.74003110648E+03  0.80498625827E+02 0.  0.
         25    2    1    2    0    0  0.62947336985E+02 -0.15149957300E+03 -0.39902316424E+03  0.44920080495E+03  0.12508952681E+03 0.  0.
        -24    2    1    2    0    0 -0.46642324473E+01  0.10121550706E+03  0.12261928920E+03  0.17771978440E+03  0.79262208839E+02 0.  0.
        -13    1    3    3    0    0 -0.67481534420E+02  0.32399673031E+02 -0.35074286883E+03  0.35864196120E+03  0.00000000000E+00 0.  1.
         14    1    3    3    0    0  0.91984298820E+01  0.17884392914E+02 -0.38085852690E+03  0.38138914528E+03  0.00000000000E+00 0. -1.
         13    1    5    5    0    0  0.28122029654E+02  0.57703507051E+02  0.31377642706E+02  0.71449980684E+02  0.00000000000E+00 0. -1.
        -14    1    5    5    0    0 -0.32786262101E+02  0.43512000004E+02  0.91241646493E+02  0.10626980371E+03  0.00000000000E+00 0.  1.
          5    1    4    4  501    0  0.55123355569E+02 -0.10730866619E+03 -0.13392085965E+03  0.18029421293E+03  0.41800000000E+01 0. -1.
         -5    1    4    4    0  501  0.78239814156E+01 -0.44190906808E+02 -0.26510230459E+03  0.26890659202E+03  0.41800000000E+01 0. -1.
</event>
<event>
11    1  0.8551154E-009  0.2361625E+03  0.7561462E-02  0.1031540E+00
         22   -1    0    0    0    0  0.00000000000E+00  0.00000000000E+00  0.16856630735E+03  0.16856630735E+03  0.00000000000E+00 0.  1.
         22   -1    0    0    0    0 -0.00000000000E+00 -0.00000000000E+00 -0.21463084367E+04  0.21463084367E+04  0.00000000000E+00 0. -1.
         24    2    1    2    0    0  0.71325994387E+01  0.11341292743E+03 -0.10104649306E+04  0.10200368179E+04  0.80761177023E+02 0.  0.
         25    2    1    2    0    0 -0.19006240617E+03 -0.18601244177E+03 -0.10317734769E+04  0.10728133476E+04  0.12509046532E+03 0.  0.
        -24    2    1    2    0    0  0.18292980674E+03  0.72599514338E+02  0.64496278167E+02  0.22202457855E+03  0.80007124104E+02 0.  0.
        -11    1    3    3    0    0  0.91642993469E+01 -0.70475952589E+01 -0.23355699999E+03  0.23384294991E+03  0.00000000000E+00 0.  1.
         12    1    3    3    0    0 -0.20316999082E+01  0.12046052269E+03 -0.77690793066E+03  0.78619386798E+03  0.00000000000E+00 0. -1.
         13    1    5    5    0    0  0.54234604956E+02  0.60701809612E+02  0.10976653756E+02  0.82137622272E+02  0.00000000000E+00 0. -1.
        -14    1    5    5    0    0  0.12869520178E+03  0.11897704726E+02  0.53519624411E+02  0.13988695628E+03  0.00000000000E+00 0.  1.
          5    1    4    4  501    0 -0.20061784948E+03 -0.16613634504E+03 -0.83453437471E+03  0.87425047992E+03  0.41800000000E+01 0.  1.
         -5    1    4    4    0  501  0.10555443307E+02 -0.19876096728E+02 -0.19723910216E+03  0.19856286769E+03  0.41800000000E+01 0.  1.
</event>
<event>
11    1  0.8551154E-009  0.1330186E+03  0.7561462E-02  0.1115615E+00
         22   -1    0    0    0    0  0.00000000000E+00  0.00000000000E+00  0.83751712656E+03  0.83751712656E+03  0.00000000000E+00 0.  1.
         22   -1    0    0    0    0 -0.00000000000E+00 -0.00000000000E+00 -0.13098045332E+04  0.13098045332E+04  0.00000000000E+00 0. -1.
        -24    2    1    2    0    0  0.91210139141E+01  0.30159653474E+02 -0.12750331005E+04  0.12780673439E+04  0.82182299836E+02 0.  0.
         25    2    1    2    0    0 -0.30290291589E+01  0.17466409173E+02  0.10175620209E+03  0.16223319409E+03  0.12510409319E+03 0.  0.
         24    2    1    2    0    0 -0.60919847552E+01 -0.47626062648E+02  0.70098949184E+03  0.70702112176E+03  0.78659041652E+02 0.  0.
        -13    1    5    5    0    0 -0.17375533026E+01 -0.48767795578E+02  0.70081938637E+03  0.70251628401E+03  0.00000000000E+00 0.  1.
         14    1    5    5    0    0 -0.43544314526E+01  0.11417329309E+01  0.17010546371E+00  0.45048377584E+01  0.00000000000E+00 0. -1.
         13    1    3    3    0    0  0.45651958381E+02  0.20927767251E+02 -0.76067541459E+03  0.76233139717E+03  0.00000000000E+00 0. -1.
        -14    1    3    3    0    0 -0.36530944467E+02  0.92318862233E+01 -0.51435768594E+03  0.51573594669E+03  0.00000000000E+00 0.  1.
          5    1    4    4  501    0  0.58290400773E+02  0.14061651372E+02  0.72210072818E+02  0.93953541062E+02  0.41800000000E+01 0.  1.
         -5    1    4    4    0  501 -0.61319429932E+02  0.34047578010E+01  0.29546129274E+02  0.68279653031E+02  0.41800000000E+01 0.  1.
</event>
<event>
11    1  0.8551154E-009  0.1722052E+03  0.7561462E-02  0.1076128E+00
         22   -1    0    0    0    0  0.00000000000E+00  0.00000000000E+00  0.62666299783E+03  0.62666299783E+03  0.00000000000E+00 0.  1.
         22   -1    0    0    0    0 -0.00000000000E+00 -0.00000000000E+00 -0.36303782771E+03  0.36303782771E+03  0.00000000000E+00 0. -1.
        -24    2    1    2    0    0  0.19884575755E+02  0.55368781173E+02 -0.23239721978E+03  0.25331228725E+03  0.81838553439E+02 0.  0.
         25    2    1    2    0    0  0.78545734145E+02  0.17187128861E+02 -0.60380742432E+02  0.16049474138E+03  0.12509155928E+03 0.  0.
         24    2    1    2    0    0 -0.98430309901E+02 -0.72555910034E+02  0.55640313234E+03  0.57589379691E+03  0.84358364410E+02 0.  0.
        -11    1    5    5    0    0 -0.10720066605E+03 -0.46308496853E+02  0.49425520053E+03  0.50786283870E+03  0.00000000000E+00 0.  1.
         12    1    5    5    0    0  0.87703561500E+01 -0.26247413181E+02  0.62147931816E+02  0.68030958208E+02  0.00000000000E+00 0. -1.
         13    1    3    3    0    0  0.23804612881E+02  0.72656780307E+02 -0.21612143512E+03  0.22924690192E+03  0.00000000000E+00 0. -1.
        -14    1    3    3    0    0 -0.39200371255E+01 -0.17287999133E+02 -0.16275784662E+02  0.24065385338E+02  0.00000000000E+00 0.  1.
          5    1    4    4  501    0  0.64997875511E+00  0.36064295532E+02  0.24401523458E+02  0.43748858633E+02  0.41800000000E+01 0.  1.
         -5    1    4    4    0  501  0.77895755390E+02 -0.18877166671E+02 -0.84782265890E+02  0.11674588275E+03  0.41800000000E+01 0.  1.
</event>
<event>
11    1  0.8551154E-009  0.1831498E+03  0.7561462E-02  0.1067123E+00
         22   -1    0    0    0    0  0.00000000000E+00  0.00000000000E+00  0.98091871061E+03  0.98091871061E+03  0.00000000000E+00 0. -1.
         22   -1    0    0    0    0 -0.00000000000E+00 -0.00000000000E+00 -0.82219567671E+03  0.82219567671E+03  0.00000000000E+00 0.  1.
         24    2    1    2    0    0  0.39980450525E+02 -0.23559481753E+02 -0.49394104557E+03  0.50243630299E+03  0.79441780339E+02 0.  0.
         25    2    1    2    0    0  0.89693212463E+02 -0.12707366904E+02 -0.29892961910E+03  0.33647118158E+03  0.12509032465E+03 0.  0.
        -24    2    1    2    0    0 -0.12967366299E+03  0.36266848658E+02  0.95159369856E+03  0.96420690276E+03  0.77677802429E+02 0.  0.
        -11    1    3    3    0    0  0.37507085706E+02 -0.10943867272E+02 -0.48547185207E+03  0.48704154737E+03  0.00000000000E+00 0.  1.
         12    1    3    3    0    0  0.24733648190E+01 -0.12615614481E+02 -0.84691934961E+01  0.15394755624E+02  0.00000000000E+00 0. -1.
         11    1    5    5    0    0 -0.12323005586E+03  0.54250308654E+02  0.87317590223E+03  0.88349583977E+03  0.00000000000E+00 0. -1.
        -12    1    5    5    0    0 -0.64436071272E+01 -0.17983459997E+02  0.78417796331E+02  0.80711062982E+02  0.00000000000E+00 0.  1.
          5    1    4    4  501    0 -0.14026620746E+02  0.11348441684E+02 -0.16156751467E+03  0.16262554355E+03  0.41800000000E+01 0. -1.
         -5    1    4    4    0  501  0.10371983321E+03 -0.24055808589E+02 -0.13736210443E+03  0.17384563802E+03  0.41800000000E+01 0. -1.
</event>
<event>
11    1  0.8551154E-009  0.2862105E+03  0.7561462E-02  0.1006202E+00
         22   -1    0    0    0    0  0.00000000000E+00  0.00000000000E+00  0.23096106645E+03  0.23096106645E+03  0.00000000000E+00 0. -1.
         22   -1    0    0    0    0 -0.00000000000E+00 -0.00000000000E+00 -0.61792290307E+03  0.61792290307E+03  0.00000000000E+00 0. -1.
         24    2    1    2    0    0  0.16343602498E+03 -0.20009127237E+03 -0.37636106871E+03  0.46283324849E+03  0.76283093344E+02 0.  0.
         25    2    1    2    0    0 -0.16764955134E+03  0.19219654487E+03 -0.58232464224E+02  0.28997211306E+03  0.12508765943E+03 0.  0.
        -24    2    1    2    0    0  0.42135263627E+01  0.78947274959E+01  0.47631696319E+02  0.96078607953E+02  0.82959266422E+02 0.  0.
        -11    1    3    3    0    0  0.57185712916E+02 -0.10743916771E+03 -0.12390301583E+03  0.17368171421E+03  0.00000000000E+00 0.  1.
         12    1    3    3    0    0  0.10625031206E+03 -0.92652104652E+02 -0.25245805289E+03  0.28915153428E+03  0.00000000000E+00 0. -1.
         13    1    5    5    0    0  0.35689334288E+02 -0.13721152095E+02  0.43117729496E+02  0.57629308460E+02  0.00000000000E+00 0. -1.
        -14    1    5    5    0    0 -0.31475807925E+02  0.21615879591E+02  0.45139668238E+01  0.38449299493E+02  0.00000000000E+00 0.  1.
          5    1    4    4  501    0 -0.74606714161E+02  0.27854053090E+02 -0.62036417829E+02  0.10103464558E+03  0.41800000000E+01 0.  1.
         -5    1    4    4    0  501 -0.93042837179E+02  0.16434249178E+03  0.38039536047E+01  0.18893746748E+03  0.41800000000E+01 0.  1.
</event>
<event>
11    1  0.8551154E-009  0.1896998E+03  0.7561462E-02  0.1062056E+00
         22   -1    0    0    0    0  0.00000000000E+00  0.00000000000E+00  0.26584518017E+03  0.26584518017E+03  0.00000000000E+00 0. -1.
         22   -1    0    0    0    0 -0.00000000000E+00 -0.00000000000E+00 -0.34897387441E+03  0.34897387441E+03  0.00000000000E+00 0.  1.
        -24    2    1    2    0    0  0.13247676910E+03 -0.13588109477E+03 -0.17833105933E+03  0.27238165903E+03  0.79850079440E+02 0.  0.
         25    2    1    2    0    0 -0.59046535899E+02  0.58687640653E+02 -0.36136594692E+02  0.15454354675E+03  0.12508845589E+03 0.  0.
         24    2    1    2    0    0 -0.73430233196E+02  0.77193454119E+02  0.13133895978E+03  0.18789384881E+03  0.81873973630E+02 0.  0.
        -13    1    5    5    0    0 -0.46032475351E+02  0.56200200378E+02  0.26186938341E+02  0.77221804234E+02  0.00000000000E+00 0.  1.
         14    1    5    5    0    0 -0.27397757846E+02  0.20993253741E+02  0.10515202144E+03  0.11067204458E+03  0.00000000000E+00 0. -1.
         11    1    3    3    0    0  0.11000072934E+03 -0.68739699455E+02 -0.84396900346E+02  0.15475187729E+03  0.00000000000E+00 0. -1.
        -12    1    3    3    0    0  0.22476039759E+02 -0.67141395318E+02 -0.93934158987E+02  0.11762978174E+03  0.00000000000E+00 0.  1.
          5    1    4    4  501    0 -0.60122641537E+01 -0.18543422855E+02 -0.55336134142E+02  0.58818075396E+02  0.41800000000E+01 0. -1.
         -5    1    4    4    0  501 -0.53034271746E+02  0.77231063508E+02  0.19199539451E+02  0.95725471351E+02  0.41800000000E+01 0. -1.
</event>
<event>
11    1  0.8551154E-009  0.2872511E+03  0.7561462E-02  0.1005736E+00
         22   -1    0    0    0    0  0.00000000000E+00  0.00000000000E+00  0.89937836877E+03  0.89937836877E+03  0.00000000000E+00 0.  1.
         22   -1    0    0    0    0 -0.00000000000E+00 -0.00000000000E+00 -0.82029857328E+03  0.82029857328E+03  0.00000000000E+00 0.  1.
        -24    2    1    2    0    0  0.13435957140E+03  0.70335897223E+02 -0.60586804367E+03  0.62963573425E+03  0.79783699079E+02 0.  0.
         25    2    1    2    0    0 -0.34684939775E+03 -0.18179184978E+03  0.60169060220E+02  0.41547543348E+03  0.12508692439E+03 0.  0.
         24    2    1    2    0    0  0.21248982635E+03  0.11145595256E+03  0.62477877893E+03  0.67456577432E+03  0.84357012807E+02 0.  0.
        -11    1    5    5    0    0  0.14754870018E+03  0.94226429354E+02  0.53163132519E+03  0.55971519975E+03  0.00000000000E+00 0.  1.
         12    1    5    5    0    0  0.64941126171E+02  0.17229523205E+02  0.93147453745E+02  0.11485057456E+03  0.00000000000E+00 0. -1.
         11    1    3    3    0    0 -0.46907632180E+01  0.23655941031E+02 -0.10491305368E+03  0.10764922497E+03  0.00000000000E+00 0. -1.
        -12    1    3    3    0    0  0.13905033461E+03  0.46679956193E+02 -0.50095498999E+03  0.52198650928E+03  0.00000000000E+00 0.  1.
          5    1    4    4  501    0 -0.13807405559E+03 -0.12998386852E+03 -0.78236848907E+01  0.18983923027E+03  0.41800000000E+01 0.  1.
         -5    1    4    4    0  501 -0.20877534216E+03 -0.51807981267E+02  0.67992745111E+02  0.22563620322E+03  0.41800000000E+01 0.  1.
</event>
<event>
11    1  0.8551154E-009  0.1442088E+03  0.7561462E-02  0.1102948E+00
         22   -1    0    0    0    0  0.00000000000E+00  0.00000000000E+00  0.30549135930E+03  0.30549135930E+03  0.00000000000E+00 0.  1.
         22   -1    0    0    0    0 -0.00000000000E+00 -0.00000000000E+00 -0.20202436122E+04  0.20202436122E+04  0.00000000000E+00 0.  1.
         24    2    1    2    0    0  0.45980238908E+02 -0.15939215203E+02 -0.19340579372E+04  0.19362583938E+04  0.78410597719E+02 0.  0.
         25    2    1    2    0    0 -0.26216463324E+02 -0.57034503024E+02 -0.46525878669E+01  0.14003470119E+03  0.12509130058E+03 0.  0.
        -24    2    1    2    0    0 -0.19763775584E+02  0.72973718226E+02  0.22395827223E+03  0.24944187653E+03  0.79675414603E+02 0.  0.
        -13    1    3    3    0    0  0.54359657391E+02  0.99868572780E+01 -0.16426249850E+04  0.16435545477E+04  0.00000000000E+00 0.  1.
         14    1    3    3    0    0 -0.83794184830E+01 -0.25926072481E+02 -0.29143295219E+03  0.29270384608E+03  0.00000000000E+00 0. -1.
         11    1    5    5    0    0  0.79552096242E+01 -0.64225564347E+01  0.96701177383E-02  0.10224220500E+02  0.00000000000E+00 0. -1.
        -12    1    5    5    0    0 -0.27718985208E+02  0.79396274661E+02  0.22394860211E+03  0.23921765603E+03  0.00000000000E+00 0.  1.
          5    1    4    4  501    0 -0.54656408549E+02 -0.67397992391E+02  0.31760986055E+02  0.92498891934E+02  0.41800000000E+01 0. -1.
         -5    1    4    4    0  501  0.28439945224E+02  0.10363489367E+02 -0.36413573922E+02  0.47535809260E+02  0.41800000000E+01 0. -1.
</event>
<event>
11    1  0.8551154E-009  0.1347232E+04  0.7561462E-02  0.8404639E-01
         22   -1    0    0    0    0  0.00000000000E+00  0.00000000000E+00  0.14410578217E+04  0.14410578217E+04  0.00000000000E+00 0.  1.
         22   -1    0    0    0    0 -0.00000000000E+00 -0.00000000000E+00 -0.31487897197E+03  0.31487897197E+03  0.00000000000E+00 0.  1.
         24    2    1    2    0    0  0.12477934737E+02 -0.56594123634E+02  0.88121976125E+02  0.13558249564E+03  0.85197046681E+02 0.  0.
         25    2    1    2    0    0 -0.28867192099E+03  0.41185039323E+03  0.36534934910E+02  0.51954818493E+03  0.12507314112E+03 0.  0.
        -24    2    1    2    0    0  0.27619398625E+03 -0.35525626959E+03  0.10015219387E+04  0.11008061131E+04  0.78979553123E+02 0.  0.
        -13    1    3    3    0    0 -0.25600363384E+02 -0.55083627828E+02  0.72012208579E+02  0.94209038019E+02  0.00000000000E+00 0.  1.
         14    1    3    3    0    0  0.38078298120E+02 -0.15104958060E+01  0.16109767546E+02  0.41373457623E+02  0.00000000000E+00 0. -1.
         11    1    5    5    0    0  0.86530384129E+02 -0.13165396650E+03  0.26834462613E+03  0.31117376600E+03  0.00000000000E+00 0. -1.
        -12    1    5    5    0    0  0.18966360212E+03 -0.22360230309E+03  0.73317731260E+03  0.78963234712E+03  0.00000000000E+00 0.  1.
          5    1    4    4  501    0 -0.17456685926E+03  0.32027493680E+03 -0.13029350680E+02  0.36501624604E+03  0.41800000000E+01 0.  1.
         -5    1    4    4    0  501 -0.11410506172E+03  0.91575456425E+02  0.49564285590E+02  0.15453193889E+03  0.41800000000E+01 0.  1.
</event>
<event>
11    1  0.8551154E-009  0.1270036E+03  0.7561462E-02  0.1123006E+00
         22   -1    0    0    0    0  0.00000000000E+00  0.00000000000E+00  0.70670448890E+03  0.70670448890E+03  0.00000000000E+00 0.  1.
         22   -1    0    0    0    0 -0.00000000000E+00 -0.00000000000E+00 -0.27595886456E+03  0.27595886456E+03  0.00000000000E+00 0.  1.
        -24    2    1    2    0    0  0.23524530855E+02 -0.57593761909E+01 -0.25022109094E+03  0.26449386096E+03  0.82218210675E+02 0.  0.
         25    2    1    2    0    0  0.13125545255E+01 -0.63501818127E+01  0.26396366781E+03  0.29217646909E+03  0.12509285974E+03 0.  0.
         24    2    1    2    0    0 -0.24837085380E+02  0.12109558004E+02  0.41700304747E+03  0.42599302342E+03  0.82552965981E+02 0.  0.
        -13    1    5    5    0    0 -0.18152637662E+01 -0.28232554598E+02  0.27797640488E+03  0.27941233686E+03  0.00000000000E+00 0.  1.
         14    1    5    5    0    0 -0.23021821614E+02  0.40342112601E+02  0.13902664260E+03  0.14658068656E+03  0.00000000000E+00 0. -1.
         11    1    3    3    0    0  0.41989693535E+02 -0.78544727788E+01 -0.61617615687E+02  0.74977047613E+02  0.00000000000E+00 0. -1.
        -12    1    3    3    0    0 -0.18465162680E+02  0.20950965880E+01 -0.18860347525E+03  0.18951681334E+03  0.00000000000E+00 0.  1.
          5    1    4    4  501    0 -0.30945738555E+02  0.30193312789E+02  0.29128483588E+02  0.52299290894E+02  0.41800000000E+01 0. -1.
         -5    1    4    4    0  501  0.32258293081E+02 -0.36543494602E+02  0.23483518422E+03  0.23987717820E+03  0.41800000000E+01 0. -1.
</event>
<event>
11    1  0.8551154E-009  0.1318363E+03  0.7561462E-02  0.1117033E+00
         22   -1    0    0    0    0  0.00000000000E+00  0.00000000000E+00  0.24080127664E+04  0.24080127664E+04  0.00000000000E+00 0. -1.
         22   -1    0    0    0    0 -0.00000000000E+00 -0.00000000000E+00 -0.27743492393E+04  0.27743492393E+04  0.00000000000E+00 0. -1.
         24    2    1    2    0    0  0.23853469274E+02 -0.22830045770E+02 -0.27361623504E+04  0.27376754456E+04  0.84807066964E+02 0.  0.
         25    2    1    2    0    0 -0.64248714047E+01 -0.15799197947E+02  0.72606020076E+02  0.14563705697E+03  0.12509046560E+03 0.  0.
        -24    2    1    2    0    0 -0.17428597869E+02  0.38629243717E+02  0.22972198574E+04  0.22990495032E+04  0.81323860850E+02 0.  0.
        -11    1    3    3    0    0 -0.21116893213E+01 -0.89686376470E+01 -0.30696799601E+02  0.32049792492E+02  0.00000000000E+00 0.  1.
         12    1    3    3    0    0  0.25965158595E+02 -0.13861408123E+02 -0.27054655508E+04  0.27056256531E+04  0.00000000000E+00 0. -1.
         13    1    5    5    0    0 -0.43884183316E+02  0.74094211108E+01  0.16080746498E+04  0.16086903991E+04  0.00000000000E+00 0. -1.
        -14    1    5    5    0    0  0.26455585446E+02  0.31219822606E+02  0.68914520764E+03  0.69035910405E+03  0.00000000000E+00 0.  1.
          5    1    4    4  501    0 -0.17514696660E+02  0.47245809647E+02  0.62988242128E+02  0.80770800261E+02  0.41800000000E+01 0.  1.
         -5    1    4    4    0  501  0.11089825256E+02 -0.63045007594E+02  0.96177779480E+01  0.64866256708E+02  0.41800000000E+01 0.  1.
</event>
<event>
11    1  0.8551154E-009  0.1580480E+03  0.7561462E-02  0.1088928E+00
         22   -1    0    0    0    0  0.00000000000E+00  0.00000000000E+00  0.23371475782E+03  0.23371475782E+03  0.00000000000E+00 0. -1.
         22   -1    0    0    0    0 -0.00000000000E+00 -0.00000000000E+00 -0.11241006255E+04  0.11241006255E+04  0.00000000000E+00 0. -1.
         24    2    1    2    0    0 -0.68533171273E+02  0.70018243479E+02 -0.10143621685E+04  0.10222174707E+04  0.79991240738E+02 0.  0.
         25    2    1    2    0    0  0.30950102913E+02 -0.75453725453E+02 -0.34903911579E+02  0.15335170140E+03  0.12508911912E+03 0.  0.
        -24    2    1    2    0    0  0.37583068360E+02  0.54354819739E+01  0.15888021236E+03  0.18224621123E+03  0.80800545398E+02 0.  0.
        -11    1    3    3    0    0 -0.10709949652E+02  0.21493470437E+02 -0.63304981313E+03  0.63350512089E+03  0.00000000000E+00 0.  1.
         12    1    3    3    0    0 -0.57823221620E+02  0.48524773043E+02 -0.38131235535E+03  0.38871234981E+03  0.00000000000E+00 0. -1.
         11    1    5    5    0    0  0.42675676918E+02 -0.63814928660E+01  0.16309445567E+03  0.16870607079E+03  0.00000000000E+00 0. -1.
        -12    1    5    5    0    0 -0.50926085580E+01  0.11816974840E+02 -0.42142433140E+01  0.13540140435E+02  0.00000000000E+00 0.  1.
          5    1    4    4  501    0  0.63805841482E+02 -0.68977271699E+02  0.12794082587E+02  0.94922127913E+02  0.41800000000E+01 0. -1.
         -5    1    4    4    0  501 -0.32855738569E+02 -0.64764537538E+01 -0.47697994166E+02  0.58429573485E+02  0.41800000000E+01 0. -1.
</event>
<event>
11    1  0.8551154E-009  0.1295464E+03  0.7561462E-02  0.1119828E+00
         22   -1    0    0    0    0  0.00000000000E+00  0.00000000000E+00  0.11179182266E+04  0.11179182266E+04  0.00000000000E+00 0.  1.
         22   -1    0    0    0    0 -0.00000000000E+00 -0.00000000000E+00 -0.12133748537E+03  0.12133748537E+03  0.00000000000E+00 0. -1.
        -24    2    1    2    0    0  0.30111312737E+02 -0.14751003223E+02 -0.86215366445E+02  0.12213278829E+03  0.79743622407E+02 0.  0.
         25    2    1    2    0    0 -0.23540559739E+02  0.33822029784E+02  0.27535765077E+03  0.30523238072E+03  0.12508750037E+03 0.  0.
         24    2    1    2    0    0 -0.65707529982E+01 -0.19071026561E+02  0.80743845691E+03  0.81189054296E+03  0.82477349598E+02 0.  0.
        -13    1    5    5    0    0  0.27101861198E+02 -0.26496618895E+02  0.62961293609E+03  0.63075274949E+03  0.00000000000E+00 0.  1.
         14    1    5    5    0    0 -0.33672614196E+02  0.74255923345E+01  0.17782552082E+03  0.18113779347E+03  0.00000000000E+00 0. -1.
         13    1    3    3    0    0 -0.89844340078E+01 -0.36204962444E+02 -0.59261572593E+02  0.70024662414E+02  0.00000000000E+00 0. -1.
        -14    1    3    3    0    0  0.39095746745E+02  0.21453959220E+02 -0.26953793852E+02  0.52108125881E+02  0.00000000000E+00 0.  1.
          5    1    4    4  501    0  0.40189236436E+02  0.17101686122E+02  0.20127369622E+03  0.20600052326E+03  0.41800000000E+01 0.  1.
         -5    1    4    4    0  501 -0.63729796175E+02  0.16720343662E+02  0.74083954548E+02  0.99231857456E+02  0.41800000000E+01 0.  1.
</event>
<event>
11    1  0.8551154E-009  0.1377788E+03  0.7561462E-02  0.1110064E+00
         22   -1    0    0    0    0  0.00000000000E+00  0.00000000000E+00  0.81413610222E+03  0.81413610222E+03  0.00000000000E+00 0. -1.
         22   -1    0    0    0    0 -0.00000000000E+00 -0.00000000000E+00 -0.16303314968E+04  0.16303314968E+04  0.00000000000E+00 0. -1.
         24    2    1    2    0    0 -0.54702631624E+02 -0.41562729880E+01 -0.13301566324E+04  0.13337993383E+04  0.81819040879E+02 0.  0.
         25    2    1    2    0    0  0.87953342777E+02  0.26450776350E+02 -0.27584120982E+03  0.31649955333E+03  0.12509260629E+03 0.  0.
        -24    2    1    2    0    0 -0.33250711153E+02 -0.22294503362E+02  0.78980244770E+03  0.79416870739E+03  0.72892899053E+02 0.  0.
        -13    1    3    3    0    0 -0.32868987578E+02  0.18041516303E+02 -0.21757577802E+03  0.22078289299E+03  0.00000000000E+00 0.  1.
         14    1    3    3    0    0 -0.21833644046E+02 -0.22197789290E+02 -0.11125808544E+04  0.11130164453E+04  0.00000000000E+00 0. -1.
         11    1    5    5    0    0 -0.33093687652E+02 -0.45932260520E+02  0.64161804451E+03  0.64411076668E+03  0.00000000000E+00 0. -1.
        -12    1    5    5    0    0 -0.15702350003E+00  0.23637757158E+02  0.14818440319E+03  0.15005794071E+03  0.00000000000E+00 0.  1.
          5    1    4    4  501    0 -0.79768838941E+01  0.99920352133E+01 -0.17772232475E+03  0.17823066111E+03  0.41800000000E+01 0.  1.
         -5    1    4    4    0  501  0.95930226671E+02  0.16458741136E+02 -0.98118885066E+02  0.13826889222E+03  0.41800000000E+01 0.  1.
</event>
<event>
11    1  0.8551154E-009  0.1856082E+03  0.7561462E-02  0.1065195E+00
         22   -1    0    0    0    0  0.00000000000E+00  0.00000000000E+00  0.59805882081E+03  0.59805882081E+03  0.00000000000E+00 0.  1.
         22   -1    0    0    0    0 -0.00000000000E+00 -0.00000000000E+00 -0.21577287662E+03  0.21577287662E+03  0.00000000000E+00 0.  1.
         24    2    1    2    0    0 -0.25673229820E+02 -0.14068048223E+03 -0.10605932586E+03  0.19553463214E+03  0.80839958887E+02 0.  0.
         25    2    1    2    0    0 -0.46688081361E+02  0.12450006323E+03  0.87053318911E+02  0.20224964709E+03  0.12508635709E+03 0.  0.
        -24    2    1    2    0    0  0.72361311180E+02  0.16180419001E+02  0.40129195113E+03  0.41604741820E+03  0.81007770220E+02 0.  0.
        -13    1    3    3    0    0 -0.31926574535E+02 -0.12864756519E+03 -0.56388105871E+02  0.14404555070E+03  0.00000000000E+00 0.  1.
         14    1    3    3    0    0  0.62533447149E+01 -0.12032917039E+02 -0.49671219986E+02  0.51489081439E+02  0.00000000000E+00 0. -1.
         13    1    5    5    0    0  0.62112593847E+02  0.43051058905E+02  0.22317063328E+03  0.23561939552E+03  0.00000000000E+00 0. -1.
        -14    1    5    5    0    0  0.10248717334E+02 -0.26870639904E+02  0.17812131785E+03  0.18042802268E+03  0.00000000000E+00 0.  1.
          5    1    4    4  501    0 -0.79108236362E+02  0.11065246543E+03  0.94879535586E+02  0.16589659381E+03  0.41800000000E+01 0. -1.
         -5    1    4    4    0  501  0.32420155001E+02  0.13847597804E+02 -0.78262166746E+01  0.36353053278E+02  0.41800000000E+01 0. -1.
</event>
<event>
11    1  0.8551154E-009  0.1525188E+03  0.7561462E-02  0.1094333E+00
         22   -1    0    0    0    0  0.00000000000E+00  0.00000000000E+00  0.53646983776E+03  0.53646983776E+03  0.00000000000E+00 0.  1.
         22   -1    0    0    0    0 -0.00000000000E+00 -0.00000000000E+00 -0.44159237863E+03  0.44159237863E+03  0.00000000000E+00 0. -1.
        -24    2    1    2    0    0  0.22705137826E-01 -0.31535988405E+02 -0.16958465775E+03  0.18989192273E+03  0.79406971329E+02 0.  0.
         25    2    1    2    0    0 -0.79481600098E+02 -0.54407639733E+01 -0.23308179379E+03  0.27625743719E+03  0.12507646598E+03 0.  0.
         24    2    1    2    0    0  0.79458894961E+02  0.36976752379E+02  0.49754391067E+03  0.51191285646E+03  0.82606497116E+02 0.  0.
        -13    1    5    5    0    0  0.58702920270E+02  0.60294136415E+02  0.41950156307E+03  0.42785859481E+03  0.00000000000E+00 0.  1.
         14    1    5    5    0    0  0.20755974691E+02 -0.23317384036E+02  0.78042347592E+02  0.84054261649E+02  0.00000000000E+00 0. -1.
         11    1    3    3    0    0  0.13961217191E+02 -0.54715695604E+02 -0.13214063202E+03  0.14370062478E+03  0.00000000000E+00 0. -1.
        -12    1    3    3    0    0 -0.13938512053E+02  0.23179707198E+02 -0.37444025722E+02  0.46191297951E+02  0.00000000000E+00 0.  1.
          5    1    4    4  501    0 -0.10709012498E+03 -0.38109450631E+00 -0.12568427047E+03  0.16517399416E+03  0.41800000000E+01 0.  1.
         -5    1    4    4    0  501  0.27608524886E+02 -0.50596694670E+01 -0.10739752332E+03  0.11108344304E+03  0.41800000000E+01 0.  1.
</event>
<event>
11    1  0.8551154E-009  0.1323457E+03  0.7561462E-02  0.1116420E+00
         22   -1    0    0    0    0  0.00000000000E+00  0.00000000000E+00  0.52255329922E+03  0.52255329922E+03  0.00000000000E+00 0.  1.
         22   -1    0    0    0    0 -0.00000000000E+00 -0.00000000000E+00 -0.75996067581E+03  0.75996067581E+03  0.00000000000E+00 0. -1.
         24    2    1    2    0    0 -0.25182844700E+02 -0.35607620545E+02 -0.73480607621E+03  0.74048262747E+03  0.80451685157E+02 0.  0.
         25    2    1    2    0    0  0.57252243011E+01  0.13983948685E+01  0.26612222409E+03  0.29411426001E+03  0.12508967217E+03 0.  0.
        -24    2    1    2    0    0  0.19457620399E+02  0.34209225676E+02  0.23127647553E+03  0.24791708755E+03  0.80157370566E+02 0.  0.
        -13    1    3    3    0    0 -0.10976469047E+02  0.23706932634E+02 -0.12932406294E+03  0.13193640432E+03  0.00000000000E+00 0.  1.
         14    1    3    3    0    0 -0.14206375654E+02 -0.59314553179E+02 -0.60548201327E+03  0.60854622316E+03  0.00000000000E+00 0. -1.
         13    1    5    5    0    0  0.10454135960E+02  0.27437629290E+02  0.18204101945E+02  0.34547095209E+02  0.00000000000E+00 0. -1.
        -14    1    5    5    0    0  0.90034844385E+01  0.67715963860E+01  0.21307237358E+03  0.21336999234E+03  0.00000000000E+00 0.  1.
          5    1    4    4  501    0  0.29547709982E+02 -0.23883989677E+02  0.25433897905E+03  0.25719506370E+03  0.41800000000E+01 0. -1.
         -5    1    4    4    0  501 -0.23822485681E+02  0.25282384546E+02  0.11783245044E+02  0.36919196309E+02  0.41800000000E+01 0. -1.
</event>
<event>
11    1  0.8551154E-009  0.1384854E+03  0.7561462E-02  0.1109262E+00
         22   -1    0    0    0    0  0.00000000000E+00  0.00000000000E+00  0.77735272821E+03  0.77735272821E+03  0.00000000000E+00 0.  1.
         22   -1    0    0    0    0 -0.00000000000E+00 -0.00000000000E+00 -0.68080018289E+03  0.68080018289E+03  0.00000000000E+00 0.  1.
         24    2    1    2    0    0  0.78381727873E+01  0.53869620472E+02 -0.48029923911E+03  0.49003267243E+03  0.80506446908E+02 0.  0.
         25    2    1    2    0    0  0.21010245841E+01 -0.92610395974E+02 -0.16132617756E+03  0.22417505821E+03  0.12508885407E+03 0.  0.
        -24    2    1    2    0    0 -0.99391973714E+01  0.38740775501E+02  0.73817796198E+03  0.74394518047E+03  0.83355219732E+02 0.  0.
        -11    1    3    3    0    0 -0.24737655796E+02  0.17671721124E+02 -0.34315630702E+03  0.34450035180E+03  0.00000000000E+00 0.  1.
         12    1    3    3    0    0  0.32575828584E+02  0.36197899349E+02 -0.13714293209E+03  0.14553232062E+03  0.00000000000E+00 0. -1.
         11    1    5    5    0    0 -0.98114433233E+01 -0.65942923667E+01  0.13889054983E+02  0.18238831109E+02  0.00000000000E+00 0. -1.
        -12    1    5    5    0    0 -0.12775404817E+00  0.45335067868E+02  0.72428890700E+03  0.72570634936E+03  0.00000000000E+00 0.  1.
          5    1    4    4  501    0  0.44234372770E+02  0.92041712867E+01 -0.45754245642E+02  0.64438497017E+02  0.41800000000E+01 0.  1.
         -5    1    4    4    0  501 -0.42133348186E+02 -0.10181456726E+03 -0.11557193191E+03  0.15973656119E+03  0.41800000000E+01 0.  1.
</event>
<event>
11    1  0.8551154E-009  0.1964241E+03  0.7561462E-02  0.1057082E+00
         22   -1    0    0    0    0  0.00000000000E+00  0.00000000000E+00  0.13551787905E+04  0.13551787905E+04  0.00000000000E+00 0. -1.
         22   -1    0    0    0    0 -0.00000000000E+00 -0.00000000000E+00 -0.72960823180E+03  0.72960823180E+03  0.00000000000E+00 0. -1.
        -24    2    1    2    0    0 -0.13728238400E+02  0.22814508378E+02 -0.69629418252E+03  0.70094840303E+03  0.76119043422E+02 0.  0.
         25    2    1    2    0    0  0.13405221630E+03 -0.10423922933E+03  0.45784188677E+03  0.50408569085E+03  0.12508947523E+03 0.  0.
         24    2    1    2    0    0 -0.12032397789E+03  0.81424720951E+02  0.86402285443E+03  0.87975292841E+03  0.79510233514E+02 0.  0.
        -13    1    5    5    0    0  0.20498965087E+01  0.30860411218E+02  0.11344321992E+03  0.11758371997E+03  0.00000000000E+00 0.  1.
         14    1    5    5    0    0 -0.12237387440E+03  0.50564309733E+02  0.75057963450E+03  0.76216920844E+03  0.00000000000E+00 0. -1.
         11    1    3    3    0    0 -0.40221446351E+02  0.26840632839E+02 -0.55735176679E+03  0.55944541849E+03  0.00000000000E+00 0. -1.
        -12    1    3    3    0    0  0.26493207950E+02 -0.40261244610E+01 -0.13894241572E+03  0.14150298454E+03  0.00000000000E+00 0.  1.
          5    1    4    4  501    0  0.13035606553E+02 -0.36083522110E+01 -0.51429176841E+01  0.15062179331E+02  0.41800000000E+01 0.  1.
         -5    1    4    4    0  501  0.12101660974E+03 -0.10063087712E+03  0.46298480446E+03  0.48902351152E+03  0.41800000000E+01 0.  1.
</event>
<event>
11    1  0.8551154E-009  0.1339386E+03  0.7561462E-02  0.1114522E+00
         22   -1    0    0    0    0  0.00000000000E+00  0.00000000000E+00  0.20423679155E+03  0.20423679155E+03  0.00000000000E+00 0. -1.
         22   -1    0    0    0    0 -0.00000000000E+00 -0.00000000000E+00 -0.11743036998E+04  0.11743036998E+04  0.00000000000E+00 0. -1.
         24    2    1    2    0    0  0.44146595157E+02 -0.18199586971E+02 -0.10352245223E+04  0.10394162540E+04  0.80101128415E+02 0.  0.
         25    2    1    2    0    0 -0.58339833597E+02 -0.12468270551E+02 -0.87971139319E+02  0.16415560189E+03  0.12509654801E+03 0.  0.
        -24    2    1    2    0    0  0.14193238440E+02  0.30667857522E+02  0.15312875336E+03  0.17496863544E+03  0.77612130358E+02 0.  0.
        -11    1    3    3    0    0 -0.19752148450E+02 -0.21546629974E+02 -0.31107850494E+03  0.31244878119E+03  0.00000000000E+00 0.  1.
         12    1    3    3    0    0  0.63898743606E+02  0.33470430033E+01 -0.72414601732E+03  0.72696747282E+03  0.00000000000E+00 0. -1.
         13    1    5    5    0    0  0.17270700194E+02  0.22214230656E+02  0.16074016346E+03  0.16318440268E+03  0.00000000000E+00 0. -1.
        -14    1    5    5    0    0 -0.30774617543E+01  0.84536268660E+01 -0.76114100981E+01  0.11784232759E+02  0.00000000000E+00 0.  1.
          5    1    4    4  501    0 -0.23824869610E+02  0.10902139087E+02 -0.11251654830E+03  0.11560245278E+03  0.41800000000E+01 0.  1.
         -5    1    4    4    0  501 -0.34514963987E+02 -0.23370409638E+02  0.24545408981E+02  0.48553149102E+02  0.41800000000E+01 0.  1.
</event>
<event>
11    1  0.8551154E-009  0.1414793E+03  0.7561462E-02  0.1105918E+00
         22   -1    0    0    0    0  0.00000000000E+00  0.00000000000E+00  0.26284456964E+03  0.26284456964E+03  0.00000000000E+00 0.  1.
         22   -1    0    0    0    0 -0.00000000000E+00 -0.00000000000E+00 -0.72479347585E+03  0.72479347585E+03  0.00000000000E+00 0.  1.
        -24    2    1    2    0    0  0.66211347210E+02  0.23680242230E+02 -0.53559612764E+03  0.54654477587E+03  0.83086001894E+02 0.  0.
         25    2    1    2    0    0 -0.23717913431E+02 -0.57715456501E+02 -0.14555888190E+03  0.20181226206E+03  0.12508871923E+03 0.  0.
         24    2    1    2    0    0 -0.42493433778E+02  0.34035214271E+02  0.21920610333E+03  0.23928100757E+03  0.78993652411E+02 0.  0.
        -13    1    5    5    0    0 -0.38343472207E+02  0.66780744145E+01  0.20405644392E+03  0.20773504963E+03  0.00000000000E+00 0.  1.
         14    1    5    5    0    0 -0.41499615707E+01  0.27357139856E+02  0.15149659411E+02  0.31545957941E+02  0.00000000000E+00 0. -1.
         11    1    3    3    0    0  0.33932838962E+02  0.16676242678E+02 -0.68169744733E+02  0.77952862211E+02  0.00000000000E+00 0. -1.
        -12    1    3    3    0    0  0.32278508247E+02  0.70039995520E+01 -0.46742638291E+03  0.46859191366E+03  0.00000000000E+00 0.  1.
          5    1    4    4  501    0 -0.43525904788E+02 -0.71763820081E+02 -0.15427243818E+03  0.17567586016E+03  0.41800000000E+01 0. -1.
         -5    1    4    4    0  501  0.19807991357E+02  0.14048363580E+02  0.87135562827E+01  0.26136401894E+02  0.41800000000E+01 0. -1.
</event>
<event>
11    1  0.8551154E-009  0.1279382E+03  0.7561462E-02  0.1121828E+00
         22   -1    0    0    0    0  0.00000000000E+00  0.00000000000E+00  0.15241812862E+03  0.15241812862E+03  0.00000000000E+00 0. -1.
         22   -1    0    0    0    0 -0.00000000000E+00 -0.00000000000E+00 -0.13988028403E+04  0.13988028403E+04  0.00000000000E+00 0. -1.
        -24    2    1    2    0    0 -0.24874384386E+02  0.95537760781E+01 -0.12735425444E+04  0.12764075113E+04  0.81212763105E+02 0.  0.
         25    2    1    2    0    0  0.27656900289E+02 -0.18644159374E+02 -0.70396997328E+02  0.14736047300E+03  0.12508742126E+03 0.  0.
         24    2    1    2    0    0 -0.27825159030E+01  0.90903832960E+01  0.97554830055E+02  0.12745298460E+03  0.81467422656E+02 0.  0.
        -11    1    5    5    0    0  0.65473245254E+01 -0.35675910841E+02  0.41746075947E+02  0.55302558076E+02  0.00000000000E+00 0.  1.
         12    1    5    5    0    0 -0.93298404284E+01  0.44766294137E+02  0.55808754108E+02  0.72150426528E+02  0.00000000000E+00 0. -1.
         11    1    3    3    0    0 -0.35977968105E+02 -0.27068923381E+02 -0.82857150917E+03  0.82979388200E+03  0.00000000000E+00 0. -1.
        -12    1    3    3    0    0  0.11103583719E+02  0.36622699459E+02 -0.44497103522E+03  0.44661362929E+03  0.00000000000E+00 0.  1.
          5    1    4    4  501    0 -0.10234639856E+02 -0.10709972323E+02 -0.98273830097E+02  0.99471953042E+02  0.41800000000E+01 0.  1.
         -5    1    4    4    0  501  0.37891540146E+02 -0.79341870514E+01  0.27876832768E+02  0.47888519960E+02  0.41800000000E+01 0.  1.
</event>
<event>
11    1  0.8551154E-009  0.1648178E+03  0.7561462E-02  0.1082632E+00
         22   -1    0    0    0    0  0.00000000000E+00  0.00000000000E+00  0.44353968166E+03  0.44353968166E+03  0.00000000000E+00 0. -1.
         22   -1    0    0    0    0 -0.00000000000E+00 -0.00000000000E+00 -0.19419905089E+04  0.19419905089E+04  0.00000000000E+00 0.  1.
        -24    2    1    2    0    0 -0.17301688966E+02  0.10792946101E+03 -0.18744542535E+04  0.18794115049E+04  0.81613352417E+02 0.  0.
         25    2    1    2    0    0  0.12171823791E+02 -0.44240644111E+02  0.19131532842E+02  0.13460757004E+03  0.12509114468E+03 0.  0.
         24    2    1    2    0    0  0.51298651745E+01 -0.63688816902E+02  0.35687189343E+03  0.37151111561E+03  0.81119540104E+02 0.  0.
        -13    1    5    5    0    0  0.27250991048E+02 -0.37310415776E+02  0.79030899243E+02  0.91545435024E+02  0.00000000000E+00 0.  1.
         14    1    5    5    0    0 -0.22121125873E+02 -0.26378401126E+02  0.27784099418E+03  0.27996568058E+03  0.00000000000E+00 0. -1.
         11    1    3    3    0    0  0.45106857698E+01 -0.12321484469E+02 -0.12280006323E+03  0.12349907204E+03  0.00000000000E+00 0. -1.
        -12    1    3    3    0    0 -0.21812374735E+02  0.12025094548E+03 -0.17516541903E+04  0.17559124329E+04  0.00000000000E+00 0.  1.
          5    1    4    4  501    0  0.34597994147E+02  0.31957616544E+02  0.27383260503E+02  0.54640880392E+02  0.41800000000E+01 0.  1.
         -5    1    4    4    0  501 -0.22426170356E+02 -0.76198260656E+02 -0.82517276611E+01  0.79966689648E+02  0.41800000000E+01 0.  1.
</event>
<event>
11    1  0.8551154E-009  0.1422200E+03  0.7561462E-02  0.1105104E+00
         22   -1    0    0    0    0  0.00000000000E+00  0.00000000000E+00  0.74578052359E+02  0.74578052359E+02  0.00000000000E+00 0.  1.
         22   -1    0    0    0    0 -0.00000000000E+00 -0.00000000000E+00 -0.59265069619E+03  0.59265069619E+03  0.00000000000E+00 0. -1.
        -24    2    1    2    0    0  0.68465023828E+02  0.24754161651E+02 -0.26495471075E+03  0.28598672076E+03  0.79291725258E+02 0.  0.
         25    2    1    2    0    0 -0.38419817491E+02 -0.54560567338E+02 -0.25316034805E+03  0.29015580742E+03  0.12508913971E+03 0.  0.
         24    2    1    2    0    0 -0.30045206337E+02  0.29806405687E+02  0.42414977812E-01  0.91086220358E+02  0.80657061044E+02 0.  0.
        -13    1    5    5    0    0  0.13771893817E+02  0.13164995889E+02  0.29942871595E+02  0.35490248455E+02  0.00000000000E+00 0.  1.
         14    1    5    5    0    0 -0.43817100154E+02  0.16641409798E+02 -0.29900456617E+02  0.55595971904E+02  0.00000000000E+00 0. -1.
         11    1    3    3    0    0  0.83321689555E+02  0.64661729789E+01 -0.21752891836E+03  0.23303035353E+03  0.00000000000E+00 0. -1.
        -12    1    3    3    0    0 -0.14856665727E+02  0.18287988672E+02 -0.47425792390E+02  0.52956367228E+02  0.00000000000E+00 0.  1.
          5    1    4    4  501    0 -0.60752224814E+02 -0.62379845345E+01 -0.21748902102E+03  0.22593957585E+03  0.41800000000E+01 0.  1.
         -5    1    4    4    0  501  0.22332407324E+02 -0.48322582804E+02 -0.35671327034E+02  0.64216231578E+02  0.41800000000E+01 0.  1.
</event>
<event>
11    1  0.8551154E-009  0.1287390E+03  0.7561462E-02  0.1120828E+00
         22   -1    0    0    0    0  0.00000000000E+00  0.00000000000E+00  0.44420073623E+03  0.44420073623E+03  0.00000000000E+00 0.  1.
         22   -1    0    0    0    0 -0.00000000000E+00 -0.00000000000E+00 -0.76999290152E+03  0.76999290152E+03  0.00000000000E+00 0. -1.
         24    2    1    2    0    0 -0.36533185131E+01 -0.14999544188E+02 -0.73725223648E+03  0.74192749495E+03  0.81714224576E+02 0.  0.
         25    2    1    2    0    0  0.31673272020E+02  0.21371314609E+02  0.15842763788E+03  0.20543902203E+03  0.12508375626E+03 0.  0.
        -24    2    1    2    0    0 -0.28019953507E+02 -0.63717704208E+01  0.25303243331E+03  0.26682712078E+03  0.79659166592E+02 0.  0.
        -13    1    3    3    0    0 -0.16203553943E+02  0.14583096940E+02 -0.58739339841E+02  0.62654065485E+02  0.00000000000E+00 0.  1.
         14    1    3    3    0    0  0.12550235430E+02 -0.29582641128E+02 -0.67851289664E+03  0.67927342946E+03  0.00000000000E+00 0. -1.
         11    1    5    5    0    0  0.13051629089E+02 -0.12372167590E+02  0.10617178506E+02  0.20883965911E+02  0.00000000000E+00 0. -1.
        -12    1    5    5    0    0 -0.41071582597E+02  0.60003971691E+01  0.24241525480E+03  0.24594315486E+03  0.00000000000E+00 0.  1.
          5    1    4    4  501    0 -0.11357984926E+02  0.52380070701E+02  0.20379715189E+02  0.57493311084E+02  0.41800000000E+01 0. -1.
         -5    1    4    4    0  501  0.43031256947E+02 -0.31008756092E+02  0.13804792269E+03  0.14794571095E+03  0.41800000000E+01 0. -1.
</event>
<event>
11    1  0.8551154E-009  0.1429590E+03  0.7561462E-02  0.1104298E+00
         22   -1    0    0    0    0  0.00000000000E+00  0.00000000000E+00  0.26546413741E+04  0.26546413741E+04  0.00000000000E+00 0.  1.
         22   -1    0    0    0    0 -0.00000000000E+00 -0.00000000000E+00 -0.79913562900E+03  0.79913562900E+03  0.00000000000E+00 0.  1.
        -24    2    1    2    0    0 -0.19208053126E+02 -0.28162128754E+02 -0.39119036337E+03  0.40134242273E+03  0.82968578900E+02 0.  0.
         25    2    1    2    0    0 -0.46650815182E+02  0.49533818669E+02 -0.38920811969E+03  0.41443870585E+03  0.12508630111E+03 0.  0.
         24    2    1    2    0    0  0.65858868308E+02 -0.21371689915E+02  0.26359042282E+04  0.26379958746E+04  0.78974643213E+02 0.  0.
        -11    1    5    5    0    0  0.54044289318E+02 -0.24690957884E+02  0.86037637988E+03  0.86242561631E+03  0.00000000000E+00 0.  1.
         12    1    5    5    0    0  0.11814578990E+02  0.33192679696E+01  0.17755278483E+04  0.17755702583E+04  0.00000000000E+00 0. -1.
         11    1    3    3    0    0 -0.33367916586E+02 -0.20144063561E+02 -0.73151403318E+02  0.82887447551E+02  0.00000000000E+00 0. -1.
        -12    1    3    3    0    0  0.14159863460E+02 -0.80180651927E+01 -0.31803896005E+03  0.31845497518E+03  0.00000000000E+00 0.  1.
          5    1    4    4  501    0 -0.45576717878E+02 -0.17860361683E+02 -0.56177064949E+02  0.74629516669E+02  0.41800000000E+01 0.  1.
         -5    1    4    4    0  501 -0.10740973044E+01  0.67394180352E+02 -0.33303105474E+03  0.33980918918E+03  0.41800000000E+01 0.  1.
</event>
<event>
11    1  0.8551154E-009  0.1424009E+03  0.7561462E-02  0.1104907E+00
         22   -1    0    0    0    0  0.00000000000E+00  0.00000000000E+00  0.11271418087E+04  0.11271418087E+04  0.00000000000E+00 0.  1.
         22   -1    0    0    0    0 -0.00000000000E+00 -0.00000000000E+00 -0.51794817562E+02  0.51794817562E+02  0.00000000000E+00 0.  1.
         24    2    1    2    0    0  0.46521814160E+01 -0.92995497034E+01  0.67660156954E+02  0.11997623531E+03  0.98530582988E+02 0.  0.
         25    2    1    2    0    0 -0.71649306683E+02  0.15640775569E+02  0.21469658213E+03  0.25907613469E+03  0.12509022417E+03 0.  0.
        -24    2    1    2    0    0  0.66997125267E+02 -0.63412258657E+01  0.79299025201E+03  0.79988425621E+03  0.80327190958E+02 0.  0.
        -13    1    3    3    0    0 -0.28389480139E+02 -0.56455736901E+01 -0.13746402599E+02  0.32043699369E+02  0.00000000000E+00 0.  1.
         14    1    3    3    0    0  0.33041661555E+02 -0.36539760133E+01  0.81406559553E+02  0.87932535942E+02  0.00000000000E+00 0. -1.
         13    1    5    5    0    0  0.72371766947E+02 -0.31578233095E+02  0.58967359150E+03  0.59493680502E+03  0.00000000000E+00 0. -1.
        -14    1    5    5    0    0 -0.53746416792E+01  0.25237007229E+02  0.20331666051E+03  0.20494745119E+03  0.00000000000E+00 0.  1.
          5    1    4    4  501    0 -0.49732851464E+01 -0.16652495115E+02  0.17307874929E+03  0.17399932476E+03  0.41800000000E+01 0. -1.
         -5    1    4    4    0  501 -0.66676021537E+02  0.32293270684E+02  0.41617832833E+02  0.85076809938E+02  0.41800000000E+01 0. -1.
</event>
<event>
11    1  0.9078610E-009  0.1699399E+03  0.7561462E-02  0.1078084E+00
         22   -1    0    0    0    0  0.00000000000E+00  0.00000000000E+00  0.80661961659E+03  0.80661961659E+03  0.00000000000E+00 0. -1.
         22   -1    0    0    0    0 -0.00000000000E+00 -0.00000000000E+00 -0.21303193789E+03  0.21303193789E+03  0.00000000000E+00 0. -1.
        -24    2    1    2    0    0 -0.61356523877E+02 -0.23199745581E+02 -0.95484612309E+02  0.14006502827E+03  0.78727693602E+02 0.  0.
         25    2    1    2    0    0  0.15923864507E+03 -0.30715004422E+02  0.31055018268E+02  0.20715306622E+03  0.12509045169E+03 0.  0.
         24    2    1    2    0    0 -0.97882121196E+02  0.53914750003E+02  0.65801727275E+03  0.67243345999E+03  0.81806582598E+02 0.  0.
        -13    1    5    5    0    0 -0.51690838109E+02  0.70809308243E+02  0.36981639910E+03  0.38006587576E+03  0.00000000000E+00 0.  1.
         14    1    5    5    0    0 -0.46191283087E+02 -0.16894558240E+02  0.28820087365E+03  0.29236758422E+03  0.00000000000E+00 0. -1.
         13    1    3    3    0    0 -0.77200930938E+02 -0.32822713415E+02 -0.76532944875E+02  0.11355441825E+03  0.00000000000E+00 0. -1.
        -14    1    3    3    0    0  0.15844407061E+02  0.96229678336E+01 -0.18951667434E+02  0.26510610019E+02  0.00000000000E+00 0.  1.
          5    1    4    4  501    0  0.44507094081E+02  0.40456380695E+02  0.39058841995E+02  0.71837773493E+02  0.41800000000E+01 0. -1.
         -5    1    4    4    0  501  0.11473155099E+03 -0.71171385116E+02 -0.80038237266E+01  0.13531529273E+03  0.41800000000E+01 0. -1.
</event>
<event>
11    1  0.8551154E-009  0.1360325E+03  0.7561462E-02  0.1112071E+00
         22   -1    0    0    0    0  0.00000000000E+00  0.00000000000E+00  0.15663469012E+04  0.15663469012E+04  0.00000000000E+00 0. -1.
         22   -1    0    0    0    0 -0.00000000000E+00 -0.00000000000E+00 -0.57894900859E+02  0.57894900859E+02  0.00000000000E+00 0. -1.
        -24    2    1    2    0    0  0.18408863655E+02  0.59459611649E+02  0.17023113011E+02  0.10209693446E+03  0.79118050856E+02 0.  0.
         25    2    1    2    0    0 -0.23916051352E+02 -0.72826203860E+00  0.29092695180E+03  0.31758218343E+03  0.12508974406E+03 0.  0.
         24    2    1    2    0    0  0.55071876975E+01 -0.58731349610E+02  0.12005019356E+04  0.12045626842E+04  0.79288475441E+02 0.  0.
        -11    1    5    5    0    0 -0.23622934300E+02 -0.42667171509E+01  0.12472373859E+03  0.12701282954E+03  0.00000000000E+00 0.  1.
         12    1    5    5    0    0  0.29130121998E+02 -0.54464632459E+02  0.10757781970E+04  0.10775498547E+04  0.00000000000E+00 0. -1.
         13    1    3    3    0    0  0.29674711179E+02  0.65347185731E+02 -0.97796578474E+01  0.72432622996E+02  0.00000000000E+00 0. -1.
        -14    1    3    3    0    0 -0.11265847525E+02 -0.58875740818E+01  0.26802770858E+02  0.29664311465E+02  0.00000000000E+00 0.  1.
          5    1    4    4  501    0 -0.62259851973E+02  0.37296807087E+02  0.18042737841E+03  0.19452211254E+03  0.41800000000E+01 0.  1.
         -5    1    4    4    0  501  0.38343800621E+02 -0.38025069126E+02  0.11049957339E+03  0.12306007089E+03  0.41800000000E+01 0.  1.
</event>
<event>
11    1  0.8551154E-009  0.1742178E+03  0.7561462E-02  0.1074418E+00
         22   -1    0    0    0    0  0.00000000000E+00  0.00000000000E+00  0.21046359837E+04  0.21046359837E+04  0.00000000000E+00 0. -1.
         22   -1    0    0    0    0 -0.00000000000E+00 -0.00000000000E+00 -0.65586936273E+03  0.65586936273E+03  0.00000000000E+00 0. -1.
        -24    2    1    2    0    0  0.55879754409E+02  0.10929887849E+03 -0.61872930101E+03  0.63550889745E+03  0.77309889526E+02 0.  0.
         25    2    1    2    0    0 -0.69318615097E+01 -0.89712231989E+02  0.18798230147E+03  0.24306012615E+03  0.12507815152E+03 0.  0.
         24    2    1    2    0    0 -0.48947892900E+02 -0.19586646501E+02  0.18795136205E+04  0.18819363228E+04  0.79582288277E+02 0.  0.
        -13    1    5    5    0    0 -0.43151052054E+02 -0.43844296245E+02  0.89737923288E+03  0.89948531017E+03  0.00000000000E+00 0.  1.
         14    1    5    5    0    0 -0.57968408461E+01  0.24257649744E+02  0.98213438760E+03  0.98245101264E+03  0.00000000000E+00 0. -1.
         13    1    3    3    0    0 -0.30758744040E+01  0.73671355605E+02 -0.37766402927E+03  0.38479481369E+03  0.00000000000E+00 0. -1.
        -14    1    3    3    0    0  0.58955628813E+02  0.35627522885E+02 -0.24106527174E+03  0.25071408376E+03  0.00000000000E+00 0.  1.
          5    1    4    4  501    0  0.16411130686E+02 -0.98409449982E+02  0.19300515446E+03  0.21730671206E+03  0.41800000000E+01 0. -1.
         -5    1    4    4    0  501 -0.23342992196E+02  0.86972179934E+01 -0.50228529921E+01  0.25753414097E+02  0.41800000000E+01 0. -1.
</event>
<event>
11    1  0.8551154E-009  0.1481960E+03  0.7561462E-02  0.1098736E+00
         22   -1    0    0    0    0  0.00000000000E+00  0.00000000000E+00  0.11546216015E+04  0.11546216015E+04  0.00000000000E+00 0.  1.
         22   -1    0    0    0    0 -0.00000000000E+00 -0.00000000000E+00 -0.45961657512E+03  0.45961657512E+03  0.00000000000E+00 0.  1.
         24    2    1    2    0    0 -0.31903434335E+02  0.48883585786E+02 -0.28073731677E+03  0.29809259056E+03  0.81475870284E+02 0.  0.
         25    2    1    2    0    0  0.95168520431E+02 -0.95400383797E+02 -0.11678286704E+03  0.21781873584E+03  0.12509389729E+03 0.  0.
        -24    2    1    2    0    0 -0.63265086096E+02  0.46516798011E+02  0.10925252102E+04  0.10983268503E+04  0.80896547692E+02 0.  0.
        -13    1    3    3    0    0 -0.52892470418E+02  0.16931682807E+02 -0.11118028928E+03  0.12427933068E+03  0.00000000000E+00 0.  1.
         14    1    3    3    0    0  0.20989036083E+02  0.31951902980E+02 -0.16955702749E+03  0.17381325988E+03  0.00000000000E+00 0. -1.
         11    1    5    5    0    0 -0.12756740483E+02  0.36002273794E+02  0.16480524130E+03  0.16917347814E+03  0.00000000000E+00 0. -1.
        -12    1    5    5    0    0 -0.50508345613E+02  0.10514524217E+02  0.92771996891E+03  0.92915337211E+03  0.00000000000E+00 0.  1.
          5    1    4    4  501    0  0.10273470570E+03 -0.70399522888E+02 -0.31505063889E+02  0.12853230733E+03  0.41800000000E+01 0. -1.
         -5    1    4    4    0  501 -0.75661852646E+01 -0.25000860910E+02 -0.85277803149E+02  0.89286428507E+02  0.41800000000E+01 0. -1.
</event>
<event>
11    1  0.8551154E-009  0.1265672E+03  0.7561462E-02  0.1123560E+00
         22   -1    0    0    0    0  0.00000000000E+00  0.00000000000E+00  0.52555776504E+03  0.52555776504E+03  0.00000000000E+00 0. -1.
         22   -1    0    0    0    0 -0.00000000000E+00 -0.00000000000E+00 -0.69601824812E+03  0.69601824812E+03  0.00000000000E+00 0. -1.
        -24    2    1    2    0    0 -0.24931289740E+02 -0.13544785404E+01 -0.62163895242E+03  0.62725040061E+03  0.79904155557E+02 0.  0.
         25    2    1    2    0    0  0.37851488330E+01 -0.13344669370E+01 -0.54237452741E+01  0.12529123398E+03  0.12510942469E+03 0.  0.
         24    2    1    2    0    0  0.21146140907E+02  0.26889454775E+01  0.45660221462E+03  0.46903437857E+03  0.10513456225E+03 0.  0.
        -13    1    5    5    0    0 -0.57878333634E+01  0.12066683094E+01 -0.43207036668E+01  0.73228098178E+01  0.00000000000E+00 0.  1.
         14    1    5    5    0    0  0.26933974271E+02  0.14822771681E+01  0.46092291829E+03  0.46171156875E+03  0.00000000000E+00 0. -1.
         13    1    3    3    0    0  0.11007218597E+02  0.28588051094E+02 -0.37254144814E+03  0.37379883107E+03  0.00000000000E+00 0. -1.
        -14    1    3    3    0    0 -0.35938508338E+02 -0.29942529634E+02 -0.24909750429E+03  0.25345156954E+03  0.00000000000E+00 0.  1.
          5    1    4    4  501    0  0.55589066552E+02 -0.12259831737E+02 -0.32496591890E+02  0.65680656809E+02  0.41800000000E+01 0.  1.
         -5    1    4    4    0  501 -0.51803917719E+02  0.10925364800E+02  0.27072846616E+02  0.59610577174E+02  0.41800000000E+01 0.  1.
</event>
<event>
11    1  0.8551154E-009  0.1573106E+03  0.7561462E-02  0.1089634E+00
         22   -1    0    0    0    0  0.00000000000E+00  0.00000000000E+00  0.22660282178E+03  0.22660282178E+03  0.00000000000E+00 0. -1.
         22   -1    0    0    0    0 -0.00000000000E+00 -0.00000000000E+00 -0.71217741229E+03  0.71217741229E+03  0.00000000000E+00 0. -1.
         24    2    1    2    0    0 -0.24854835416E+02  0.45978348842E+02 -0.54464471874E+03  0.55292578276E+03  0.79732554163E+02 0.  0.
         25    2    1    2    0    0 -0.38050859173E+02  0.34815011783E+02 -0.10874299689E+03  0.17358699275E+03  0.12508977476E+03 0.  0.
        -24    2    1    2    0    0  0.62905694590E+02 -0.80793360625E+02  0.16781312512E+03  0.21226745856E+03  0.80072064223E+02 0.  0.
        -11    1    3    3    0    0  0.26277126286E+02  0.68920552784E+01 -0.24157503479E+03  0.24309768659E+03  0.00000000000E+00 0.  1.
         12    1    3    3    0    0 -0.51131961702E+02  0.39086293563E+02 -0.30306968395E+03  0.30982809618E+03  0.00000000000E+00 0. -1.
         13    1    5    5    0    0  0.11832208579E+02 -0.37506121244E+02  0.12904099042E+03  0.13490102853E+03  0.00000000000E+00 0. -1.
        -14    1    5    5    0    0  0.51073486011E+02 -0.43287239381E+02  0.38772134703E+02  0.77366430032E+02  0.00000000000E+00 0.  1.
          5    1    4    4  501    0  0.10521950277E+02  0.37257021055E+01 -0.11482906066E+03  0.11544599545E+03  0.41800000000E+01 0. -1.
         -5    1    4    4    0  501 -0.48572809450E+02  0.31089309678E+02  0.60860637709E+01  0.58140997294E+02  0.41800000000E+01 0. -1.
</event>
<event>
11    1  0.8551154E-009  0.2804521E+03  0.7561462E-02  0.1008821E+00
         22   -1    0    0    0    0  0.00000000000E+00  0.00000000000E+00  0.36232117804E+03  0.36232117804E+03  0.00000000000E+00 0.  1.
         22   -1    0    0    0    0 -0.00000000000E+00 -0.00000000000E+00 -0.54599814857E+03  0.54599814857E+03  0.00000000000E+00 0.  1.
         24    2    1    2    0    0  0.25960203668E+03  0.13872282117E+03 -0.34690773780E+03  0.46197648349E+03  0.80249948233E+02 0.  0.
         25    2    1    2    0    0 -0.13332251469E+03 -0.11556287560E+03 -0.97191028949E+01  0.21649874692E+03  0.12509026866E+03 0.  0.
        -24    2    1    2    0    0 -0.12627952199E+03 -0.23159945575E+02  0.17294987017E+03  0.22984409620E+03  0.80210661465E+02 0.  0.
        -13    1    3    3    0    0  0.24159107845E+03  0.14708023162E+03 -0.33642665512E+03  0.43952444528E+03  0.00000000000E+00 0.  1.
         14    1    3    3    0    0  0.18010958229E+02 -0.83574104509E+01 -0.10481082676E+02  0.22452038211E+02  0.00000000000E+00 0. -1.
         13    1    5    5    0    0 -0.77656724820E+02 -0.26323520339E+01  0.41270718995E+02  0.87981636910E+02  0.00000000000E+00 0. -1.
        -14    1    5    5    0    0 -0.48622797171E+02 -0.20527593541E+02  0.13167915118E+03  0.14186245929E+03  0.00000000000E+00 0.  1.
          5    1    4    4  501    0 -0.15719562008E+03 -0.10218351252E+03 -0.15648635659E+02  0.18818683642E+03  0.41800000000E+01 0. -1.
         -5    1    4    4    0  501  0.23873105387E+02 -0.13379363077E+02  0.59295327642E+01  0.28311910497E+02  0.41800000000E+01 0. -1.
</event>
<event>
11    1  0.8551154E-009  0.1455529E+03  0.7561462E-02  0.1101511E+00
         22   -1    0    0    0    0  0.00000000000E+00  0.00000000000E+00  0.31733896236E+03  0.31733896236E+03  0.00000000000E+00 0. -1.
         22   -1    0    0    0    0 -0.00000000000E+00 -0.00000000000E+00 -0.10773525469E+04  0.10773525469E+04  0.00000000000E+00 0. -1.
        -24    2    1    2    0    0  0.27820395992E+02  0.69785378031E+02 -0.98877014952E+03  0.99494349993E+03  0.81253837177E+02 0.  0.
         25    2    1    2    0    0 -0.10473485461E+02 -0.60427524578E+02 -0.17113591579E+02  0.14036800856E+03  0.12509645553E+03 0.  0.
         24    2    1    2    0    0 -0.17346910532E+02 -0.93578534526E+01  0.24587015655E+03  0.25938000078E+03  0.80233198848E+02 0.  0.
        -13    1    5    5    0    0 -0.11715225921E+02 -0.14663057198E+02  0.64661659675E+01  0.19851021814E+02  0.00000000000E+00 0.  1.
         14    1    5    5    0    0 -0.56316846110E+01  0.53052037454E+01  0.23940399058E+03  0.23952897896E+03  0.00000000000E+00 0. -1.
         11    1    3    3    0    0  0.47693521426E+02  0.76034152702E+02 -0.81646086683E+03  0.82137945642E+03  0.00000000000E+00 0. -1.
        -12    1    3    3    0    0 -0.19873125434E+02 -0.62487746715E+01 -0.17230928268E+03  0.17356404351E+03  0.00000000000E+00 0.  1.
          5    1    4    4  501    0 -0.15259124435E+02  0.11604713578E+02 -0.55239593417E+02  0.58620775640E+02  0.41800000000E+01 0.  1.
         -5    1    4    4    0  501  0.47856389739E+01 -0.72032238156E+02  0.38126001839E+02  0.81747232922E+02  0.41800000000E+01 0.  1.
</event>
<event>
11    1  0.8551154E-009  0.1374506E+03  0.7561462E-02  0.1110439E+00
         22   -1    0    0    0    0  0.00000000000E+00  0.00000000000E+00  0.10959483705E+03  0.10959483705E+03  0.00000000000E+00 0. -1.
         22   -1    0    0    0    0 -0.00000000000E+00 -0.00000000000E+00 -0.68291373397E+03  0.68291373397E+03  0.00000000000E+00 0.  1.
        -24    2    1    2    0    0 -0.35827290513E+02  0.11417214201E+02 -0.52399731376E+03  0.53160275763E+03  0.81328713076E+02 0.  0.
         25    2    1    2    0    0  0.66975125935E+02 -0.49239493191E+02 -0.68933308774E+02  0.16525828943E+03  0.12509318920E+03 0.  0.
         24    2    1    2    0    0 -0.31147835422E+02  0.37822278990E+02  0.19611725616E+02  0.95647523957E+02  0.79769145776E+02 0.  0.
        -13    1    5    5    0    0  0.19577550039E+02 -0.78088356740E+01 -0.72951403333E+01  0.22304202577E+02  0.00000000000E+00 0.  1.
         14    1    5    5    0    0 -0.50725385461E+02  0.45631114664E+02  0.26906865950E+02  0.73343321379E+02  0.00000000000E+00 0. -1.
         13    1    3    3    0    0  0.11274436384E+02 -0.40848438439E+01 -0.11184028041E+02  0.16397601905E+02  0.00000000000E+00 0. -1.
        -14    1    3    3    0    0 -0.47101726897E+02  0.15502058045E+02 -0.51281328572E+03  0.51520515573E+03  0.00000000000E+00 0.  1.
          5    1    4    4  501    0  0.89077706497E+02 -0.39195794472E+02 -0.59068814933E+01  0.97588481636E+02  0.41800000000E+01 0.  1.
         -5    1    4    4    0  501 -0.22102580562E+02 -0.10043698719E+02 -0.63026427280E+02  0.67669807796E+02  0.41800000000E+01 0.  1.
</event>
<event>
11    1  0.8551154E-009  0.1580642E+03  0.7561462E-02  0.1088912E+00
         22   -1    0    0    0    0  0.00000000000E+00  0.00000000000E+00  0.11251335249E+04  0.11251335249E+04  0.00000000000E+00 0. -1.
         22   -1    0    0    0    0 -0.00000000000E+00 -0.00000000000E+00 -0.28951438133E+03  0.28951438133E+03  0.00000000000E+00 0. -1.
        -24    2    1    2    0    0 -0.34165061963E+02  0.55715094811E+01 -0.19689755011E+03  0.21547364149E+03  0.80386265999E+02 0.  0.
         25    2    1    2    0    0  0.73707341379E+02  0.82178060505E+02  0.71692456639E+01  0.16698910644E+03  0.12509179743E+03 0.  0.
         24    2    1    2    0    0 -0.39542279416E+02 -0.87749569986E+02  0.10253474480E+04  0.10321851583E+04  0.69319787765E+02 0.  0.
        -11    1    5    5    0    0  0.99918835450E+01 -0.37731387899E+01  0.26218405602E+02  0.28310406310E+02  0.00000000000E+00 0.  1.
         12    1    5    5    0    0 -0.49534162961E+02 -0.83976431196E+02  0.99912904237E+03  0.10038747519E+04  0.00000000000E+00 0. -1.
         13    1    3    3    0    0  0.51288990496E+01 -0.28920917447E+02 -0.11182666419E+03  0.11561975564E+03  0.00000000000E+00 0. -1.
        -14    1    3    3    0    0 -0.39293961013E+02  0.34492426929E+02 -0.85070885922E+02  0.99853885849E+02  0.00000000000E+00 0.  1.
          5    1    4    4  501    0  0.10473343373E+03  0.45809562143E+02 -0.12615276102E+02  0.11508355971E+03  0.41800000000E+01 0. -1.
         -5    1    4    4    0  501 -0.31026092352E+02  0.36368498362E+02  0.19784521766E+02  0.51905546729E+02  0.41800000000E+01 0. -1.
</event>
<event>
11    1  0.8551154E-009  0.1638898E+03  0.7561462E-02  0.1083475E+00
         22   -1    0    0    0    0  0.00000000000E+00  0.00000000000E+00  0.94104033369E+03  0.94104033369E+03  0.00000000000E+00 0. -1.
         22   -1    0    0    0    0 -0.00000000000E+00 -0.00000000000E+00 -0.19800877564E+04  0.19800877564E+04  0.00000000000E+00 0.  1.
         24    2    1    2    0    0 -0.70921368409E+02  0.79935301356E+02 -0.18999222572E+04  0.19046176298E+04  0.80276020281E+02 0.  0.
         25    2    1    2    0    0  0.48842343735E+02 -0.59063991678E+02 -0.51093460063E+01  0.14678947543E+03  0.12508762939E+03 0.  0.
        -24    2    1    2    0    0  0.22079024674E+02 -0.20871309678E+02  0.86598418051E+03  0.86972098485E+03  0.74584822183E+02 0.  0.
        -13    1    3    3    0    0 -0.67252116058E+02  0.93669996902E+02 -0.14927249224E+04  0.14971722043E+04  0.00000000000E+00 0.  1.
         14    1    3    3    0    0 -0.36692523511E+01 -0.13734695546E+02 -0.40719733481E+03  0.40744542548E+03  0.00000000000E+00 0. -1.
         13    1    5    5    0    0 -0.41464184728E+01 -0.15384047916E+02  0.76726502258E+03  0.76743043762E+03  0.00000000000E+00 0. -1.
        -14    1    5    5    0    0  0.26225443147E+02 -0.54872617628E+01  0.98719157934E+02  0.10229054723E+03  0.00000000000E+00 0.  1.
          5    1    4    4  501    0  0.63426514851E+02 -0.59760687718E+02 -0.49196296043E+02  0.10015992475E+03  0.41800000000E+01 0.  1.
         -5    1    4    4    0  501 -0.14584171116E+02  0.69669603956E+00  0.44086950036E+02  0.46629550674E+02  0.41800000000E+01 0.  1.
</event>
<event>
11    1  0.8551154E-009  0.2364703E+03  0.7561462E-02  0.1031364E+00
         22   -1    0    0    0    0  0.00000000000E+00  0.00000000000E+00  0.46746548544E+03  0.46746548544E+03  0.00000000000E+00 0.  1.
         22   -1    0    0    0    0 -0.00000000000E+00 -0.00000000000E+00 -0.13540345735E+04  0.13540345735E+04  0.00000000000E+00 0.  1.
        -24    2    1    2    0    0 -0.10360126464E+03  0.41139934263E+02 -0.11169218901E+04  0.11253449505E+04  0.80380549381E+02 0.  0.
         25    2    1    2    0    0  0.26167781917E+03  0.68198151242E+02 -0.92703809021E+02  0.31203786151E+03  0.12508941573E+03 0.  0.
         24    2    1    2    0    0 -0.15807655454E+03 -0.10933808550E+03  0.32305661110E+03  0.38411724694E+03  0.78977663838E+02 0.  0.
        -13    1    5    5    0    0 -0.11373818964E+03 -0.11606173175E+03  0.26322817401E+03  0.30934733384E+03  0.00000000000E+00 0.  1.
         14    1    5    5    0    0 -0.44338364896E+02  0.67236462493E+01  0.59828437084E+02  0.74769913096E+02  0.00000000000E+00 0. -1.
         13    1    3    3    0    0  0.38387480079E+01  0.25290890219E+02 -0.32593389019E+03  0.32693618015E+03  0.00000000000E+00 0. -1.
        -14    1    3    3    0    0 -0.10744001264E+03  0.15849044043E+02 -0.79098799992E+03  0.79840877033E+03  0.00000000000E+00 0.  1.
          5    1    4    4  501    0  0.16170823662E+03 -0.16310821968E+02 -0.77749912829E+02  0.18021686394E+03  0.41800000000E+01 0. -1.
         -5    1    4    4    0  501  0.99969582559E+02  0.84508973210E+02 -0.14953896192E+02  0.13182099757E+03  0.41800000000E+01 0. -1.
</event>
<event>
11    1  0.8551154E-009  0.1510195E+03  0.7561462E-02  0.1095842E+00
         22   -1    0    0    0    0  0.00000000000E+00  0.00000000000E+00  0.10773065478E+03  0.10773065478E+03  0.00000000000E+00 0.  1.
         22   -1    0    0    0    0 -0.00000000000E+00 -0.00000000000E+00 -0.10279261019E+04  0.10279261019E+04  0.00000000000E+00 0. -1.
         24    2    1    2    0    0  0.80766235895E+02 -0.21157970325E+02 -0.79766750904E+03  0.80611767220E+03  0.81125839795E+02 0.  0.
         25    2    1    2    0    0 -0.91065486866E+02  0.17254613104E+02 -0.17257549559E+03  0.23242574252E+03  0.12509508199E+03 0.  0.
        -24    2    1    2    0    0  0.10299250972E+02  0.39033572206E+01  0.50047557536E+02  0.97113341938E+02  0.82492014152E+02 0.  0.
        -11    1    3    3    0    0  0.59149514307E+02 -0.40296175655E+02 -0.33549318293E+03  0.34304245015E+03  0.00000000000E+00 0.  1.
         12    1    3    3    0    0  0.21616721588E+02  0.19138205331E+02 -0.46217432611E+03  0.46307522205E+03  0.00000000000E+00 0. -1.
         11    1    5    5    0    0  0.21360569533E+02 -0.32258046916E+02  0.61520137952E+01  0.39175282964E+02  0.00000000000E+00 0. -1.
        -12    1    5    5    0    0 -0.11061318561E+02  0.36161404136E+02  0.43895543741E+02  0.57938058974E+02  0.00000000000E+00 0.  1.
          5    1    4    4  501    0 -0.82816527902E+02 -0.41426480159E+02 -0.80070862682E+02  0.12248896278E+03  0.41800000000E+01 0.  1.
         -5    1    4    4    0  501 -0.82489589646E+01  0.58681093264E+02 -0.92504632908E+02  0.10993677974E+03  0.41800000000E+01 0.  1.
</event>
<event>
11    1  0.8551154E-009  0.1421010E+03  0.7561462E-02  0.1105235E+00
         22   -1    0    0    0    0  0.00000000000E+00  0.00000000000E+00  0.31097576481E+03  0.31097576481E+03  0.00000000000E+00 0.  1.
         22   -1    0    0    0    0 -0.00000000000E+00 -0.00000000000E+00 -0.52599607022E+03  0.52599607022E+03  0.00000000000E+00 0.  1.
        -24    2    1    2    0    0 -0.80629975530E+00 -0.71833325638E+02 -0.32383360251E+03  0.34144680568E+03  0.80975565453E+02 0.  0.
         25    2    1    2    0    0  0.25382102783E+02  0.53118070155E+02 -0.16092757539E+03  0.21215748400E+03  0.12508930002E+03 0.  0.
         24    2    1    2    0    0 -0.24575803027E+02  0.18715255483E+02  0.26974087250E+03  0.28336754534E+03  0.81134435178E+02 0.  0.
        -11    1    5    5    0    0 -0.53085171812E+01 -0.16408245888E+02  0.21416343908E+03  0.21485667206E+03  0.00000000000E+00 0.  1.
         12    1    5    5    0    0 -0.19267285846E+02  0.35123501371E+02  0.55577433417E+02  0.68510873281E+02  0.00000000000E+00 0. -1.
         11    1    3    3    0    0  0.17873805453E+02 -0.59281347482E+01 -0.12349981826E+02  0.22519719227E+02  0.00000000000E+00 0. -1.
        -12    1    3    3    0    0 -0.18680105208E+02 -0.65905190890E+02 -0.31148362069E+03  0.31892708645E+03  0.00000000000E+00 0.  1.
          5    1    4    4  501    0  0.50514089797E+01  0.89680345898E+02 -0.13673135364E+03  0.16364906551E+03  0.41800000000E+01 0. -1.
         -5    1    4    4    0  501  0.20330693803E+02 -0.36562275743E+02 -0.24196221753E+02  0.48508418498E+02  0.41800000000E+01 0. -1.
</event>
<event>
11    1  0.8551154E-009  0.1259255E+03  0.7561462E-02  0.1124379E+00
         22   -1    0    0    0    0  0.00000000000E+00  0.00000000000E+00  0.13538517725E+02  0.13538517725E+02  0.00000000000E+00 0. -1.
         22   -1    0    0    0    0 -0.00000000000E+00 -0.00000000000E+00 -0.29939451157E+04  0.29939451157E+04  0.00000000000E+00 0.  1.
        -24    2    1    2    0    0 -0.33379122766E+01 -0.40162121237E+02 -0.15022670184E+04  0.15049848808E+04  0.80926875420E+02 0.  0.
         25    2    1    2    0    0 -0.74479196604E+01  0.42256108032E+02 -0.11787998393E+04  0.11861945300E+04  0.12508937488E+03 0.  0.
         24    2    1    2    0    0  0.10785831937E+02 -0.20939867945E+01 -0.29933974022E+03  0.31630422259E+03  0.10160394775E+03 0.  0.
        -11    1    5    5    0    0 -0.44011443539E+02 -0.56335499844E+00 -0.17437808471E+03  0.17984727121E+03  0.00000000000E+00 0.  1.
         12    1    5    5    0    0  0.54797275476E+02 -0.15306317961E+01 -0.12496165551E+03  0.13645695138E+03  0.00000000000E+00 0. -1.
         11    1    3    3    0    0  0.36465506189E+02 -0.49447241950E+01 -0.69059084973E+03  0.69157060751E+03  0.00000000000E+00 0. -1.
        -12    1    3    3    0    0 -0.39803418465E+02 -0.35217397042E+02 -0.81167616865E+03  0.81341427325E+03  0.00000000000E+00 0.  1.
          5    1    4    4  501    0 -0.36067335462E+02 -0.26058961243E+02 -0.21794827341E+03  0.22248335765E+03  0.41800000000E+01 0. -1.
         -5    1    4    4    0  501  0.28619415802E+02  0.68315069274E+02 -0.96085156592E+03  0.96371117239E+03  0.41800000000E+01 0. -1.
</event>
<event>
11    1  0.8551154E-009  0.1465642E+03  0.7561462E-02  0.1100442E+00
         22   -1    0    0    0    0  0.00000000000E+00  0.00000000000E+00  0.26753305047E+03  0.26753305047E+03  0.00000000000E+00 0.  1.
         22   -1    0    0    0    0 -0.00000000000E+00 -0.00000000000E+00 -0.20945538113E+03  0.20945538113E+03  0.00000000000E+00 0.  1.
        -24    2    1    2    0    0 -0.62355777985E+02  0.31777535641E+02 -0.89103053995E+02  0.13974358271E+03  0.81797676353E+02 0.  0.
         25    2    1    2    0    0  0.90520229184E+02 -0.30695270477E+02 -0.11062295130E+02  0.15781558611E+03  0.12508906157E+03 0.  0.
         24    2    1    2    0    0 -0.28164451199E+02 -0.10822651639E+01  0.15824301847E+03  0.17942926279E+03  0.79747099263E+02 0.  0.
        -13    1    5    5    0    0 -0.92875490058E+01  0.21635991408E+02  0.14527478695E+03  0.14717044001E+03  0.00000000000E+00 0.  1.
         14    1    5    5    0    0 -0.18876902193E+02 -0.22718256572E+02  0.12968231523E+02  0.32258822777E+02  0.00000000000E+00 0. -1.
         11    1    3    3    0    0 -0.15768422954E+02 -0.70894808089E+01  0.12548346011E+02  0.21362698524E+02  0.00000000000E+00 0. -1.
        -12    1    3    3    0    0 -0.46587355031E+02  0.38867016450E+02 -0.10165140001E+03  0.11838088418E+03  0.00000000000E+00 0.  1.
          5    1    4    4  501    0  0.59819374774E+02  0.44825127326E+02 -0.13854691420E+02  0.76138521870E+02  0.41800000000E+01 0.  1.
         -5    1    4    4    0  501  0.30700854410E+02 -0.75520397803E+02  0.27923962895E+01  0.81677064239E+02  0.41800000000E+01 0.  1.
</event>
<event>
11    1  0.8551154E-009  0.2895171E+03  0.7561462E-02  0.1004728E+00
         22   -1    0    0    0    0  0.00000000000E+00  0.00000000000E+00  0.53622956326E+03  0.53622956326E+03  0.00000000000E+00 0.  1.
         22   -1    0    0    0    0 -0.00000000000E+00 -0.00000000000E+00 -0.95967291943E+03  0.95967291943E+03  0.00000000000E+00 0.  1.
        -24    2    1    2    0    0  0.14748621888E+02  0.40164683109E+02 -0.54394274768E+03  0.55145885198E+03  0.80015180218E+02 0.  0.
         25    2    1    2    0    0 -0.17554636531E+03  0.16826343920E+03 -0.32259059238E+03  0.42289689512E+03  0.12509189530E+03 0.  0.
         24    2    1    2    0    0  0.16079774342E+03 -0.20842812231E+03  0.44308998388E+03  0.52154673558E+03  0.79900357485E+02 0.  0.
        -13    1    5    5    0    0  0.13500082908E+03 -0.18808765370E+03  0.32540620569E+03  0.39936372898E+03  0.00000000000E+00 0.  1.
         14    1    5    5    0    0  0.25796914339E+02 -0.20340468607E+02  0.11768377819E+03  0.12218300660E+03  0.00000000000E+00 0. -1.
         11    1    3    3    0    0 -0.21835372336E+02  0.37637047372E+02 -0.41878330929E+03  0.42103775479E+03  0.00000000000E+00 0. -1.
        -12    1    3    3    0    0  0.36583994224E+02  0.25276357362E+01 -0.12515943839E+03  0.13042109720E+03  0.00000000000E+00 0.  1.
          5    1    4    4  501    0 -0.14871867193E+03  0.18794392705E+03 -0.27727472838E+03  0.36652272848E+03  0.41800000000E+01 0.  1.
         -5    1    4    4    0  501 -0.26827693375E+02 -0.19680487856E+02 -0.45315863996E+02  0.56374166635E+02  0.41800000000E+01 0.  1.
</event>
<event>
11    1  0.8551154E-009  0.1357881E+03  0.7561462E-02  0.1112355E+00
         22   -1    0    0    0    0  0.00000000000E+00  0.00000000000E+00  0.10559758876E+04  0.10559758876E+04  0.00000000000E+00 0.  1.
         22   -1    0    0    0    0 -0.00000000000E+00 -0.00000000000E+00 -0.32842344894E+03  0.32842344894E+03  0.00000000000E+00 0.  1.
        -24    2    1    2    0    0 -0.32116552043E+02  0.42097228061E+02 -0.30491606559E+03  0.31994534338E+03  0.81163823023E+02 0.  0.
         25    2    1    2    0    0  0.41480313747E+02 -0.28554232847E+02  0.31699931547E+03  0.34448676211E+03  0.12508638062E+03 0.  0.
         24    2    1    2    0    0 -0.93637617040E+01 -0.13542995214E+02  0.71546918882E+03  0.71996723109E+03  0.78648337239E+02 0.  0.
        -13    1    5    5    0    0  0.15790380249E+02 -0.89221313495E+01  0.64048105971E+03  0.64073780002E+03  0.00000000000E+00 0.  1.
         14    1    5    5    0    0 -0.25154141953E+02 -0.46208638649E+01  0.74988129107E+02  0.79229431068E+02  0.00000000000E+00 0. -1.
         13    1    3    3    0    0 -0.17889953318E+02 -0.15802728358E+02 -0.28516150695E+02  0.37188002147E+02  0.00000000000E+00 0. -1.
        -14    1    3    3    0    0 -0.14226598724E+02  0.57899956419E+02 -0.27639991490E+03  0.28275734123E+03  0.00000000000E+00 0.  1.
          5    1    4    4  501    0 -0.89056119788E+01 -0.63966256486E+02  0.22161585901E+03  0.23087237440E+03  0.41800000000E+01 0. -1.
         -5    1    4    4    0  501  0.50385925725E+02  0.35412023639E+02  0.95383456461E+02  0.11361438771E+03  0.41800000000E+01 0. -1.
</event>
<event>
11    1  0.8551154E-009  0.1340266E+03  0.7561462E-02  0.1114418E+00
         22   -1    0    0    0    0  0.00000000000E+00  0.00000000000E+00  0.12018778630E+04  0.12018778630E+04  0.00000000000E+00 0. -1.
         22   -1    0    0    0    0 -0.00000000000E+00 -0.00000000000E+00 -0.14881750419E+04  0.14881750419E+04  0.00000000000E+00 0. -1.
         24    2    1    2    0    0 -0.45467602521E+02  0.89199832494E+01 -0.12293860829E+04  0.12329090609E+04  0.80794446836E+02 0.  0.
         25    2    1    2    0    0  0.64299016413E+02 -0.27348106304E+02 -0.23538666181E+03  0.27556553527E+03  0.12508877344E+03 0.  0.
        -24    2    1    2    0    0 -0.18831413892E+02  0.18428123054E+02  0.11784755658E+04  0.11815783087E+04  0.81415124325E+02 0.  0.
        -11    1    3    3    0    0 -0.21481809235E+02  0.19987532464E+02 -0.13271946456E+03  0.13592433872E+03  0.00000000000E+00 0.  1.
         12    1    3    3    0    0 -0.23985793287E+02 -0.11067549214E+02 -0.10966666183E+04  0.10969847222E+04  0.00000000000E+00 0. -1.
         11    1    5    5    0    0 -0.22510487092E+02  0.19932581821E+02  0.11769293704E+04  0.11773133707E+04  0.00000000000E+00 0. -1.
        -12    1    5    5    0    0  0.36790732004E+01 -0.15044587666E+01  0.15461953709E+01  0.42649379736E+01  0.00000000000E+00 0.  1.
          5    1    4    4  501    0 -0.31006187543E+02 -0.47584562302E+01 -0.16415757239E+02  0.35650751147E+02  0.41800000000E+01 0. -1.
         -5    1    4    4    0  501  0.95305203956E+02 -0.22589650074E+02 -0.21897090457E+03  0.23991478412E+03  0.41800000000E+01 0. -1.
</event>
<event>
11    1  0.8551154E-009  0.1541318E+03  0.7561462E-02  0.1092730E+00
         22   -1    0    0    0    0  0.00000000000E+00  0.00000000000E+00  0.13237299898E+03  0.13237299898E+03  0.00000000000E+00 0. -1.
         22   -1    0    0    0    0 -0.00000000000E+00 -0.00000000000E+00 -0.67138194704E+03  0.67138194704E+03  0.00000000000E+00 0. -1.
        -24    2    1    2    0    0  0.64065222136E+02  0.69300823056E+02 -0.39780990083E+03  0.41704031017E+03  0.82237134871E+02 0.  0.
         25    2    1    2    0    0 -0.10841627430E+03  0.10063286903E+02 -0.19411310032E+03  0.25531107256E+03  0.12509392384E+03 0.  0.
         24    2    1    2    0    0  0.44351052164E+02 -0.79364109959E+02  0.52914053093E+02  0.13140356328E+03  0.78748470786E+02 0.  0.
        -11    1    5    5    0    0 -0.17260566537E+02  0.76383538283E+00 -0.78845966407E-01  0.17277639259E+02  0.00000000000E+00 0.  1.
         12    1    5    5    0    0  0.61611618701E+02 -0.80127945342E+02  0.52992899060E+02  0.11412592402E+03  0.00000000000E+00 0. -1.
         13    1    3    3    0    0  0.39277630782E+02 -0.82230265847E+01 -0.18251698366E+03  0.18687642915E+03  0.00000000000E+00 0. -1.
        -14    1    3    3    0    0  0.24787591354E+02  0.77523849641E+02 -0.21529291717E+03  0.23016388103E+03  0.00000000000E+00 0.  1.
          5    1    4    4  501    0  0.67257282431E+01  0.64806026333E+01 -0.11510825398E+03  0.11556217446E+03  0.41800000000E+01 0.  1.
         -5    1    4    4    0  501 -0.11514200254E+03  0.35826842694E+01 -0.79004846337E+02  0.13974889810E+03  0.41800000000E+01 0.  1.
</event>
<event>
11    1  0.8551154E-009  0.1851883E+03  0.7561462E-02  0.1065522E+00
         22   -1    0    0    0    0  0.00000000000E+00  0.00000000000E+00  0.47325528107E+03  0.47325528107E+03  0.00000000000E+00 0.  1.
         22   -1    0    0    0    0 -0.00000000000E+00 -0.00000000000E+00 -0.83104346406E+03  0.83104346406E+03  0.00000000000E+00 0. -1.
        -24    2    1    2    0    0 -0.34956987352E+02 -0.12584984490E+03 -0.68398303474E+03  0.70101350114E+03  0.80789619019E+02 0.  0.
         25    2    1    2    0    0  0.77852858067E+02  0.23139363733E+03  0.29738895873E+02  0.27591034912E+03  0.12505213278E+03 0.  0.
         24    2    1    2    0    0 -0.42895870715E+02 -0.10554379244E+03  0.29645595588E+03  0.32737489488E+03  0.79426948673E+02 0.  0.
        -13    1    5    5    0    0 -0.43273253921E+02 -0.11751868194E+03  0.28229095354E+03  0.30882259885E+03  0.00000000000E+00 0.  1.
         14    1    5    5    0    0  0.37738320599E+00  0.11974889504E+02  0.14165002340E+02  0.18552296031E+02  0.00000000000E+00 0. -1.
         11    1    3    3    0    0 -0.47846250504E+02 -0.50048590444E+02 -0.43350733907E+03  0.43900197963E+03  0.00000000000E+00 0. -1.
        -12    1    3    3    0    0  0.12889263152E+02 -0.75801254453E+02 -0.25047569567E+03  0.26201152151E+03  0.00000000000E+00 0.  1.
          5    1    4    4  501    0  0.31065232596E+02  0.15068066261E+03 -0.40396284538E+02  0.15911958699E+03  0.41800000000E+01 0.  1.
         -5    1    4    4    0  501  0.46787625471E+02  0.80712974728E+02  0.70135180411E+02  0.11679076213E+03  0.41800000000E+01 0.  1.
</event>
<event>
11    1  0.8551154E-009  0.1442603E+03  0.7561462E-02  0.1102892E+00
         22   -1    0    0    0    0  0.00000000000E+00  0.00000000000E+00  0.60644782998E+03  0.60644782998E+03  0.00000000000E+00 0.  1.
         22   -1    0    0    0    0 -0.00000000000E+00 -0.00000000000E+00 -0.43861490218E+03  0.43861490218E+03  0.00000000000E+00 0. -1.
         24    2    1    2    0    0  0.17027846018E+02 -0.72742874324E+02 -0.37052264091E+03  0.38702857382E+03  0.83202260925E+02 0.  0.
         25    2    1    2    0    0  0.45631104018E+02  0.49784214287E+02  0.38359279382E+02  0.14723799310E+03  0.12508767586E+03 0.  0.
        -24    2    1    2    0    0 -0.62658950036E+02  0.22958660038E+02  0.49999628932E+03  0.51079616524E+03  0.80393961158E+02 0.  0.
        -11    1    3    3    0    0  0.12430537695E+02 -0.12121939471E+02 -0.74369301735E+01  0.18888293050E+02  0.00000000000E+00 0.  1.
         12    1    3    3    0    0  0.45973083226E+01 -0.60620934854E+02 -0.36308571073E+03  0.36814028077E+03  0.00000000000E+00 0. -1.
         11    1    5    5    0    0 -0.55379322960E+01  0.19154354281E+02  0.23265880530E+02  0.30640809044E+02  0.00000000000E+00 0. -1.
        -12    1    5    5    0    0 -0.57121017740E+02  0.38043057569E+01  0.47673040879E+03  0.48015535619E+03  0.00000000000E+00 0.  1.
          5    1    4    4  501    0  0.17379909320E+02  0.44459684783E+02 -0.40788114355E+02  0.62927478033E+02  0.41800000000E+01 0.  1.
         -5    1    4    4    0  501  0.28251194698E+02  0.53245295036E+01  0.79147393737E+02  0.84310515071E+02  0.41800000000E+01 0.  1.
</event>
<event>
11    1  0.8551154E-009  0.1410532E+03  0.7561462E-02  0.1106388E+00
         22   -1    0    0    0    0  0.00000000000E+00  0.00000000000E+00  0.60522503953E+03  0.60522503953E+03  0.00000000000E+00 0. -1.
         22   -1    0    0    0    0 -0.00000000000E+00 -0.00000000000E+00 -0.42388960481E+03  0.42388960481E+03  0.00000000000E+00 0. -1.
         24    2    1    2    0    0 -0.15930098249E+02  0.40324362166E+02 -0.35852789206E+03  0.37144546875E+03  0.86888806254E+02 0.  0.
         25    2    1    2    0    0  0.46809733672E+02 -0.93171577138E+02  0.70569931534E+02  0.17748460839E+03  0.12509427256E+03 0.  0.
        -24    2    1    2    0    0 -0.30879635423E+02  0.52847214972E+02  0.46929339525E+03  0.48018456719E+03  0.81206820714E+02 0.  0.
        -11    1    3    3    0    0  0.26576050065E+02  0.34699939861E+02 -0.96554865846E+02  0.10598685948E+03  0.00000000000E+00 0.  1.
         12    1    3    3    0    0 -0.42506148314E+02  0.56244223054E+01 -0.26197302622E+03  0.26545860927E+03  0.00000000000E+00 0. -1.
         13    1    5    5    0    0 -0.19843228545E+02  0.65421291127E+02  0.22110144722E+03  0.23142936074E+03  0.00000000000E+00 0. -1.
        -14    1    5    5    0    0 -0.11036406878E+02 -0.12574076156E+02  0.24819194803E+03  0.24875520645E+03  0.00000000000E+00 0.  1.
          5    1    4    4  501    0  0.84980589065E+02 -0.85370604030E+02  0.67591821928E+02  0.13818815920E+03  0.41800000000E+01 0.  1.
         -5    1    4    4    0  501 -0.38170855393E+02 -0.78009731078E+01  0.29781096058E+01  0.39296449199E+02  0.41800000000E+01 0.  1.
</event>
<event>
11    1  0.8551154E-009  0.1284057E+03  0.7561462E-02  0.1121243E+00
         22   -1    0    0    0    0  0.00000000000E+00  0.00000000000E+00  0.47471227524E+02  0.47471227524E+02  0.00000000000E+00 0.  1.
         22   -1    0    0    0    0 -0.00000000000E+00 -0.00000000000E+00 -0.25224807682E+04  0.25224807682E+04  0.00000000000E+00 0. -1.
         24    2    1    2    0    0  0.15625786305E+02 -0.24474274454E+02 -0.21204381824E+04  0.21222562037E+04  0.82886391034E+02 0.  0.
         25    2    1    2    0    0 -0.29685427406E+02  0.14325029128E+02 -0.33484008525E+03  0.35895924204E+03  0.12508966263E+03 0.  0.
        -24    2    1    2    0    0  0.14059641101E+02  0.10149245326E+02 -0.19731273047E+02  0.88736549920E+02  0.84759491900E+02 0.  0.
        -13    1    3    3    0    0 -0.26800064706E+02 -0.23154581388E+02 -0.49569526106E+03  0.49695892179E+03  0.00000000000E+00 0.  1.
         14    1    3    3    0    0  0.42425851011E+02 -0.13196930660E+01 -0.16247429213E+04  0.16252972820E+04  0.00000000000E+00 0. -1.
         11    1    5    5    0    0  0.20938392898E+02 -0.16940869079E+02 -0.44087445368E+02  0.51663451117E+02  0.00000000000E+00 0. -1.
        -12    1    5    5    0    0 -0.68787517966E+01  0.27090114405E+02  0.24356172320E+02  0.37073098803E+02  0.00000000000E+00 0.  1.
          5    1    4    4  501    0 -0.20039049464E+02  0.43622109473E+02 -0.40408562663E+02  0.62887011972E+02  0.41800000000E+01 0.  1.
         -5    1    4    4    0  501 -0.96463779425E+01 -0.29297080346E+02 -0.29443152259E+03  0.29607223007E+03  0.41800000000E+01 0.  1.
</event>
<event>
11    1  0.8551154E-009  0.2076962E+03  0.7561462E-02  0.1049211E+00
         22   -1    0    0    0    0  0.00000000000E+00  0.00000000000E+00  0.14548327526E+04  0.14548327526E+04  0.00000000000E+00 0.  1.
         22   -1    0    0    0    0 -0.00000000000E+00 -0.00000000000E+00 -0.15555236891E+03  0.15555236891E+03  0.00000000000E+00 0. -1.
         24    2    1    2    0    0  0.13984850658E+03 -0.98321280647E+02 -0.73667079262E+02  0.20223980646E+03  0.79053284133E+02 0.  0.
         25    2    1    2    0    0 -0.12979837468E+03  0.16003288029E+02  0.60366401282E+03  0.63020519658E+03  0.12507847985E+03 0.  0.
        -24    2    1    2    0    0 -0.10050131893E+02  0.82317992619E+02  0.76928345016E+03  0.77794011848E+03  0.80725115060E+02 0.  0.
        -13    1    3    3    0    0 -0.99502940872E+00 -0.89145841778E+01 -0.27819430457E+02  0.29229789694E+02  0.00000000000E+00 0.  1.
         14    1    3    3    0    0  0.14084353598E+03 -0.89406696470E+02 -0.45847648806E+02  0.17301001677E+03  0.00000000000E+00 0. -1.
         13    1    5    5    0    0  0.48234894082E+01  0.72605648250E+02  0.31443070453E+03  0.32274062985E+03  0.00000000000E+00 0. -1.
        -14    1    5    5    0    0 -0.14873621301E+02  0.97123443693E+01  0.45485274563E+03  0.45519948863E+03  0.00000000000E+00 0.  1.
          5    1    4    4  501    0 -0.84737290404E+02  0.31894098947E+02  0.55323093065E+03  0.56060643678E+03  0.41800000000E+01 0. -1.
         -5    1    4    4    0  501 -0.45061084278E+02 -0.15890810919E+02  0.50433082169E+02  0.69598759795E+02  0.41800000000E+01 0. -1.
</event>
<event>
11    1  0.8551154E-009  0.1739906E+03  0.7561462E-02  0.1074610E+00
         22   -1    0    0    0    0  0.00000000000E+00  0.00000000000E+00  0.54122663412E+03  0.54122663412E+03  0.00000000000E+00 0.  1.
         22   -1    0    0    0    0 -0.00000000000E+00 -0.00000000000E+00 -0.88249928747E+02  0.88249928747E+02  0.00000000000E+00 0.  1.
        -24    2    1    2    0    0 -0.74591082272E+01  0.44312902230E+02  0.62239908753E+02  0.11068492138E+03  0.79737531816E+02 0.  0.
         25    2    1    2    0    0 -0.92871096318E+02  0.39532575395E+02  0.98323316734E+02  0.18841698394E+03  0.12508245350E+03 0.  0.
         24    2    1    2    0    0  0.10033020455E+03 -0.83845477625E+02  0.29241347988E+03  0.33037465755E+03  0.80904617108E+02 0.  0.
        -13    1    5    5    0    0  0.10879208196E+03 -0.89160603514E+02  0.28535761928E+03  0.31814195133E+03  0.00000000000E+00 0.  1.
         14    1    5    5    0    0 -0.84618774099E+01  0.53151258887E+01  0.70558606013E+01  0.12232706215E+02  0.00000000000E+00 0. -1.
         11    1    3    3    0    0  0.29298551821E+02 -0.42480403849E+01  0.28335201669E+02  0.40979685694E+02  0.00000000000E+00 0. -1.
        -12    1    3    3    0    0 -0.36757660049E+02  0.48560942615E+02  0.33904707084E+02  0.69705235688E+02  0.00000000000E+00 0.  1.
          5    1    4    4  501    0 -0.73782315297E+02 -0.24418704869E+01 -0.60972561989E+01  0.74191924866E+02  0.41800000000E+01 0.  1.
         -5    1    4    4    0  501 -0.19088781021E+02  0.41974445882E+02  0.10442057293E+03  0.11422505907E+03  0.41800000000E+01 0.  1.
</event>
<event>
11    1  0.8551154E-009  0.1397292E+03  0.7561462E-02  0.1107861E+00
         22   -1    0    0    0    0  0.00000000000E+00  0.00000000000E+00  0.88037647471E+03  0.88037647471E+03  0.00000000000E+00 0.  1.
         22   -1    0    0    0    0 -0.00000000000E+00 -0.00000000000E+00 -0.97933747092E+02  0.97933747092E+02  0.00000000000E+00 0. -1.
         24    2    1    2    0    0  0.25382178785E+02  0.55687222620E+02 -0.43808110346E+02  0.11162399086E+03  0.82434477258E+02 0.  0.
         25    2    1    2    0    0 -0.29336547425E+02 -0.65663767330E+02  0.28777604201E+03  0.32192214915E+03  0.12508579616E+03 0.  0.
        -24    2    1    2    0    0  0.39543686402E+01  0.99765447099E+01  0.53847479595E+03  0.54476408179E+03  0.81839052173E+02 0.  0.
        -13    1    3    3    0    0  0.35267450763E+02 -0.72232740938E+01 -0.33016158048E+01  0.36150649218E+02  0.00000000000E+00 0.  1.
         14    1    3    3    0    0 -0.98852719786E+01  0.62910496714E+02 -0.40506494541E+02  0.75473341644E+02  0.00000000000E+00 0. -1.
         13    1    5    5    0    0 -0.15492558968E+02 -0.31511460614E+02  0.18197612621E+03  0.18533294916E+03  0.00000000000E+00 0. -1.
        -14    1    5    5    0    0  0.19446927608E+02  0.41488005323E+02  0.35649866974E+03  0.35943113263E+03  0.00000000000E+00 0.  1.
          5    1    4    4  501    0  0.46930247218E+02 -0.14545779411E+02  0.70763127479E+02  0.86249176305E+02  0.41800000000E+01 0. -1.
         -5    1    4    4    0  501 -0.76266794643E+02 -0.51117987919E+02  0.21701291454E+03  0.23567297284E+03  0.41800000000E+01 0. -1.
</event>
<event>
11    1  0.8551154E-009  0.1300645E+03  0.7561462E-02  0.1119190E+00
         22   -1    0    0    0    0  0.00000000000E+00  0.00000000000E+00  0.29781149093E+03  0.29781149093E+03  0.00000000000E+00 0. -1.
         22   -1    0    0    0    0 -0.00000000000E+00 -0.00000000000E+00 -0.12668995728E+04  0.12668995728E+04  0.00000000000E+00 0.  1.
         24    2    1    2    0    0  0.33263882314E+02 -0.10608500954E+02 -0.98692840298E+03  0.99089743490E+03  0.81431122556E+02 0.  0.
         25    2    1    2    0    0 -0.44212527734E+02 -0.45293415255E+01 -0.25561435590E+03  0.28803322193E+03  0.12509666442E+03 0.  0.
        -24    2    1    2    0    0  0.10948645420E+02  0.15137842480E+02  0.27345467697E+03  0.28578040695E+03  0.80894706434E+02 0.  0.
        -11    1    3    3    0    0  0.16744142680E+02 -0.15232632451E+02 -0.94900014210E+03  0.94927007175E+03  0.00000000000E+00 0.  1.
         12    1    3    3    0    0  0.16519739634E+02  0.46241314970E+01 -0.37928260875E+02  0.41627363148E+02  0.00000000000E+00 0. -1.
         13    1    5    5    0    0 -0.14942197998E+02  0.35534004916E+02  0.21709411795E+03  0.22048988828E+03  0.00000000000E+00 0. -1.
        -14    1    5    5    0    0  0.25890843419E+02 -0.20396162436E+02  0.56360559022E+02  0.65290518671E+02  0.00000000000E+00 0.  1.
          5    1    4    4  501    0  0.37221153597E+02  0.46152564588E+01 -0.30794777412E+02  0.48708372824E+02  0.41800000000E+01 0. -1.
         -5    1    4    4    0  501 -0.81433681331E+02 -0.91445979843E+01 -0.22481957849E+03  0.23932484911E+03  0.41800000000E+01 0. -1.
</event>
<event>
11    1  0.8551154E-009  0.1931275E+03  0.7561462E-02  0.1059493E+00
         22   -1    0    0    0    0  0.00000000000E+00  0.00000000000E+00  0.69997541686E+03  0.69997541686E+03  0.00000000000E+00 0. -1.
         22   -1    0    0    0    0 -0.00000000000E+00 -0.00000000000E+00 -0.38657717459E+03  0.38657717459E+03  0.00000000000E+00 0.  1.
        -24    2    1    2    0    0 -0.88928740674E+02 -0.10893177922E+03 -0.26749505074E+03  0.30630460626E+03  0.49944531280E+02 0.  0.
         25    2    1    2    0    0  0.18317995240E+03  0.10948762104E+03  0.72159604871E+02  0.25767663555E+03  0.12509118997E+03 0.  0.
         24    2    1    2    0    0 -0.94251211729E+02 -0.55584182378E+00  0.50873368815E+03  0.52257134964E+03  0.73397889197E+02 0.  0.
        -11    1    5    5    0    0 -0.30155491765E+02  0.91507577983E+01  0.48794322302E+02  0.58085935826E+02  0.00000000000E+00 0.  1.
         12    1    5    5    0    0 -0.64095719964E+02 -0.97065996220E+01  0.45993936584E+03  0.46448541381E+03  0.00000000000E+00 0. -1.
         13    1    3    3    0    0 -0.78337832217E+02 -0.11276730912E+03 -0.25390033669E+03  0.28864972360E+03  0.00000000000E+00 0. -1.
        -14    1    3    3    0    0 -0.10590908457E+02  0.38355299071E+01 -0.13594714046E+02  0.17654882656E+02  0.00000000000E+00 0.  1.
          5    1    4    4  501    0  0.13524529500E+03  0.13507054648E+03  0.68389318062E+02  0.20305150472E+03  0.41800000000E+01 0.  1.
         -5    1    4    4    0  501  0.47934657407E+02 -0.25582925441E+02  0.37702868085E+01  0.54625130823E+02  0.41800000000E+01 0.  1.
</event>
<event>
11    1  0.8551154E-009  0.1759661E+03  0.7561462E-02  0.1072953E+00
         22   -1    0    0    0    0  0.00000000000E+00  0.00000000000E+00  0.60546373213E+03  0.60546373213E+03  0.00000000000E+00 0.  1.
         22   -1    0    0    0    0 -0.00000000000E+00 -0.00000000000E+00 -0.10346868938E+03  0.10346868938E+03  0.00000000000E+00 0.  1.
         24    2    1    2    0    0  0.26691898553E+02  0.22636061116E+02 -0.22105399039E+02  0.91082182871E+02  0.81132402027E+02 0.  0.
         25    2    1    2    0    0 -0.45249980214E+02 -0.13364408010E+03  0.29182376040E+03  0.34744306163E+03  0.12508906062E+03 0.  0.
        -24    2    1    2    0    0  0.18558081661E+02  0.11100801898E+03  0.23227668139E+03  0.27040717700E+03  0.80625070426E+02 0.  0.
        -11    1    3    3    0    0  0.49876688318E+02  0.26329320667E+02  0.32925145199E+01  0.56495644223E+02  0.00000000000E+00 0.  1.
         12    1    3    3    0    0 -0.23184789764E+02 -0.36932595513E+01 -0.25397913559E+02  0.34586538648E+02  0.00000000000E+00 0. -1.
         11    1    5    5    0    0 -0.26716946713E+02  0.31891168154E+02  0.40462761496E+02  0.58035135183E+02  0.00000000000E+00 0. -1.
        -12    1    5    5    0    0  0.45275028374E+02  0.79116850831E+02  0.19181391990E+03  0.21237204182E+03  0.00000000000E+00 0.  1.
          5    1    4    4  501    0  0.20452848085E+02 -0.11730755553E+03  0.20687837560E+03  0.23873733740E+03  0.41800000000E+01 0.  1.
         -5    1    4    4    0  501 -0.65702828300E+02 -0.16336524573E+02  0.84945384802E+02  0.10870572423E+03  0.41800000000E+01 0.  1.
</event>
<event>
11    1  0.8551154E-009  0.1559744E+03  0.7561462E-02  0.1090926E+00
         22   -1    0    0    0    0  0.00000000000E+00  0.00000000000E+00  0.25726636948E+04  0.25726636948E+04  0.00000000000E+00 0. -1.
         22   -1    0    0    0    0 -0.00000000000E+00 -0.00000000000E+00 -0.78944861560E+03  0.78944861560E+03  0.00000000000E+00 0.  1.
        -24    2    1    2    0    0  0.61561242805E+02 -0.68541058085E+02 -0.72198017386E+03  0.73230601649E+03  0.80802642735E+02 0.  0.
         25    2    1    2    0    0 -0.14385127938E+03  0.36578420255E+02  0.94001314581E+02  0.21567129270E+03  0.12508672170E+03 0.  0.
         24    2    1    2    0    0  0.82290036574E+02  0.31962637829E+02  0.24111939385E+04  0.24141350012E+04  0.79989591662E+02 0.  0.
        -13    1    5    5    0    0  0.71751905000E+02 -0.11125238884E+02  0.12639588484E+04  0.12660426838E+04  0.00000000000E+00 0.  1.
         14    1    5    5    0    0  0.10538131574E+02  0.43087876713E+02  0.11472350900E+04  0.11480923174E+04  0.00000000000E+00 0. -1.
         13    1    3    3    0    0  0.73236108192E+02 -0.26981036110E+02 -0.51412335419E+03  0.52001377595E+03  0.00000000000E+00 0. -1.
        -14    1    3    3    0    0 -0.11674865387E+02 -0.41560021974E+02 -0.20785681967E+03  0.21229224054E+03  0.00000000000E+00 0.  1.
          5    1    4    4  501    0 -0.11168107570E+03  0.71340356515E+02  0.10222168019E+03  0.16741819924E+03  0.41800000000E+01 0.  1.
         -5    1    4    4    0  501 -0.32170203682E+02 -0.34761936259E+02 -0.82203656118E+01  0.48253093458E+02  0.41800000000E+01 0.  1.
</event>
<event>
11    1  0.8551154E-009  0.3900415E+03  0.7561462E-02  0.9679607E-01
         22   -1    0    0    0    0  0.00000000000E+00  0.00000000000E+00  0.68367278603E+03  0.68367278603E+03  0.00000000000E+00 0. -1.
         22   -1    0    0    0    0 -0.00000000000E+00 -0.00000000000E+00 -0.62533795144E+03  0.62533795144E+03  0.00000000000E+00 0. -1.
         24    2    1    2    0    0  0.16113067374E+03  0.27340234253E+02 -0.22839427899E+03  0.29200190556E+03  0.79941126752E+02 0.  0.
         25    2    1    2    0    0 -0.61106803607E+02  0.34092629929E+03 -0.17928652115E+03  0.40957959116E+03  0.12508797639E+03 0.  0.
        -24    2    1    2    0    0 -0.10002387014E+03 -0.36826653355E+03  0.46601563472E+03  0.60742924075E+03  0.78579236321E+02 0.  0.
        -13    1    3    3    0    0  0.12642113541E+03  0.50389148664E+02 -0.14551276490E+03  0.19923688045E+03  0.00000000000E+00 0.  1.
         14    1    3    3    0    0  0.34709538336E+02 -0.23048914411E+02 -0.82881514087E+02  0.92765025113E+02  0.00000000000E+00 0. -1.
         11    1    5    5    0    0 -0.59333817392E+02 -0.32165354113E+03  0.37839879918E+03  0.50016712569E+03  0.00000000000E+00 0. -1.
        -12    1    5    5    0    0 -0.40690052745E+02 -0.46612992419E+02  0.87616835544E+02  0.10726211505E+03  0.00000000000E+00 0.  1.
          5    1    4    4  501    0 -0.51754480140E+02  0.24147987585E+03 -0.18627151480E+03  0.30936322710E+03  0.41800000000E+01 0. -1.
         -5    1    4    4    0  501 -0.93523234669E+01  0.99446423446E+02  0.69849936530E+01  0.10021636407E+03  0.41800000000E+01 0. -1.
</event>
<event>
11    1  0.8551154E-009  0.5840298E+03  0.7561462E-02  0.9223165E-01
         22   -1    0    0    0    0  0.00000000000E+00  0.00000000000E+00  0.15071871060E+04  0.15071871060E+04  0.00000000000E+00 0. -1.
         22   -1    0    0    0    0 -0.00000000000E+00 -0.00000000000E+00 -0.26675289811E+03  0.26675289811E+03  0.00000000000E+00 0. -1.
         24    2    1    2    0    0  0.50107002190E+02  0.29565472884E+02  0.77823510421E+02  0.12595879390E+03  0.80151669545E+02 0.  0.
         25    2    1    2    0    0  0.49563654923E+03 -0.25161245293E+03  0.62699960701E+03  0.84719472768E+03  0.12508390793E+03 0.  0.
        -24    2    1    2    0    0 -0.54574355142E+03  0.22204698004E+03  0.53561109045E+03  0.80078648252E+03  0.85081520399E+02 0.  0.
        -13    1    3    3    0    0 -0.16008840960E+02 -0.96733656476E+01  0.30193311575E+02  0.35517503511E+02  0.00000000000E+00 0.  1.
         14    1    3    3    0    0  0.66115843150E+02  0.39238838532E+02  0.47630198846E+02  0.90441290387E+02  0.00000000000E+00 0. -1.
         11    1    5    5    0    0 -0.51901746019E+03  0.19473374951E+03  0.47981871988E+03  0.73316189285E+03  0.00000000000E+00 0. -1.
        -12    1    5    5    0    0 -0.26726091232E+02  0.27313230528E+02  0.55792370569E+02  0.67624589670E+02  0.00000000000E+00 0.  1.
          5    1    4    4  501    0  0.43712062313E+03 -0.18748828025E+03  0.47568177657E+03  0.67269377829E+03  0.41800000000E+01 0.  1.
         -5    1    4    4    0  501  0.58515926106E+02 -0.64124172679E+02  0.15131783044E+03  0.17450094939E+03  0.41800000000E+01 0.  1.
</event>
<event>
11    1  0.8551154E-009  0.1484035E+03  0.7561462E-02  0.1098521E+00
         22   -1    0    0    0    0  0.00000000000E+00  0.00000000000E+00  0.71652689218E+02  0.71652689218E+02  0.00000000000E+00 0. -1.
         22   -1    0    0    0    0 -0.00000000000E+00 -0.00000000000E+00 -0.96467148614E+03  0.96467148614E+03  0.00000000000E+00 0. -1.
         24    2    1    2    0    0  0.45656849928E+02  0.42761974196E+01 -0.67091392122E+03  0.67732024107E+03  0.80835545864E+02 0.  0.
         25    2    1    2    0    0 -0.77694190005E+02  0.63270343320E+02 -0.18182317323E+03  0.24237702539E+03  0.12508969825E+03 0.  0.
        -24    2    1    2    0    0  0.32037340077E+02 -0.67546540740E+02 -0.40281702475E+02  0.11662690890E+03  0.79939314479E+02 0.  0.
        -11    1    3    3    0    0  0.46302045007E+02  0.36085328741E+02 -0.35651437142E+03  0.36131499741E+03  0.00000000000E+00 0.  1.
         12    1    3    3    0    0 -0.64519507826E+00 -0.31809131322E+02 -0.31439954980E+03  0.31600524367E+03  0.00000000000E+00 0. -1.
         11    1    5    5    0    0  0.48076040344E+02 -0.23105417966E+02  0.17802612875E+01  0.53369797871E+02  0.00000000000E+00 0. -1.
        -12    1    5    5    0    0 -0.16038700268E+02 -0.44441122774E+02 -0.42061963763E+02  0.63257111025E+02  0.00000000000E+00 0.  1.
          5    1    4    4  501    0  0.27894863327E+01  0.12453364642E+02  0.17142367704E+02  0.21776149692E+02  0.41800000000E+01 0. -1.
         -5    1    4    4    0  501 -0.80483676338E+02  0.50816978678E+02 -0.19896554094E+03  0.22060087570E+03  0.41800000000E+01 0. -1.
</event>
<event>
11    1  0.9441772E-009  0.1579657E+03  0.7561462E-02  0.1089006E+00
         22   -1    0    0    0    0  0.00000000000E+00  0.00000000000E+00  0.20914172206E+03  0.20914172206E+03  0.00000000000E+00 0.  1.
         22   -1    0    0    0    0 -0.00000000000E+00 -0.00000000000E+00 -0.16472527315E+04  0.16472527315E+04  0.00000000000E+00 0. -1.
        -24    2    1    2    0    0  0.28051474336E+02 -0.57294761740E+02 -0.10965011277E+04  0.11013168956E+04  0.80713111997E+02 0.  0.
         25    2    1    2    0    0 -0.36139033049E+02  0.15122114152E+03 -0.50932519221E+03  0.54702238995E+03  0.12508988901E+03 0.  0.
         24    2    1    2    0    0  0.80875587135E+01 -0.93926379780E+02  0.16771531051E+03  0.20805516803E+03  0.79189356227E+02 0.  0.
        -11    1    5    5    0    0  0.32331704158E+02 -0.93310428186E+02  0.13813068032E+03  0.16980064767E+03  0.00000000000E+00 0.  1.
         12    1    5    5    0    0 -0.24244145445E+02 -0.61595159344E+00  0.29584630182E+02  0.38254520356E+02  0.00000000000E+00 0. -1.
         11    1    3    3    0    0  0.80565842059E+01 -0.30176675151E+02 -0.96701020631E+03  0.96751448535E+03  0.00000000000E+00 0. -1.
        -12    1    3    3    0    0  0.19994890130E+02 -0.27118086589E+02 -0.12949092143E+03  0.13380241023E+03  0.00000000000E+00 0.  1.
          5    1    4    4  501    0  0.16852575671E+02  0.13594597222E+03 -0.42161505567E+03  0.44333062632E+03  0.41800000000E+01 0. -1.
         -5    1    4    4    0  501 -0.52991608720E+02  0.15275169303E+02 -0.87710136548E+02  0.10369176363E+03  0.41800000000E+01 0. -1.
</event>
<event>
11    1  0.8551154E-009  0.1306623E+03  0.7561462E-02  0.1118458E+00
         22   -1    0    0    0    0  0.00000000000E+00  0.00000000000E+00  0.49817965906E+03  0.49817965906E+03  0.00000000000E+00 0.  1.
         22   -1    0    0    0    0 -0.00000000000E+00 -0.00000000000E+00 -0.69083454875E+03  0.69083454875E+03  0.00000000000E+00 0.  1.
        -24    2    1    2    0    0  0.12449078548E+02 -0.75477670346E+01 -0.65041569514E+03  0.65547668868E+03  0.79982276584E+02 0.  0.
         25    2    1    2    0    0  0.20179415206E+01 -0.29216177572E+02  0.96778647527E+02  0.16084731601E+03  0.12509234721E+03 0.  0.
         24    2    1    2    0    0 -0.14467020068E+02  0.36763944606E+02  0.36098215793E+03  0.37269020312E+03  0.83839053340E+02 0.  0.
        -13    1    5    5    0    0 -0.45843880362E+02  0.38354976990E+02  0.26652486643E+03  0.27314514467E+03  0.00000000000E+00 0.  1.
         14    1    5    5    0    0  0.31376860294E+02 -0.15910323837E+01  0.94457291499E+02  0.99545058458E+02  0.00000000000E+00 0. -1.
         13    1    3    3    0    0  0.29341398430E+02  0.82090500408E+01 -0.99116109961E+02  0.10369334317E+03  0.00000000000E+00 0. -1.
        -14    1    3    3    0    0 -0.16892319883E+02 -0.15756817075E+02 -0.55129958518E+03  0.55178334551E+03  0.00000000000E+00 0.  1.
          5    1    4    4  501    0 -0.15539865834E+02  0.44837822999E+02  0.58836532842E+02  0.75704212553E+02  0.41800000000E+01 0.  1.
         -5    1    4    4    0  501  0.17557807354E+02 -0.74054000570E+02  0.37942114684E+02  0.85143103457E+02  0.41800000000E+01 0.  1.
</event>
<event>
11    1  0.8551154E-009  0.1890927E+03  0.7561462E-02  0.1062516E+00
         22   -1    0    0    0    0  0.00000000000E+00  0.00000000000E+00  0.16329129067E+04  0.16329129067E+04  0.00000000000E+00 0.  1.
         22   -1    0    0    0    0 -0.00000000000E+00 -0.00000000000E+00 -0.49833200672E+03  0.49833200672E+03  0.00000000000E+00 0.  1.
         24    2    1    2    0    0 -0.75905427430E+00  0.95601015828E+01 -0.45808317503E+03  0.46515052640E+03  0.80205020158E+02 0.  0.
         25    2    1    2    0    0 -0.96914157714E+02 -0.11115601528E+03  0.26279896183E+03  0.32628339178E+03  0.12509813633E+03 0.  0.
        -24    2    1    2    0    0  0.97673211988E+02  0.10159591370E+03  0.13298651132E+04  0.13398109952E+04  0.81795462562E+02 0.  0.
        -13    1    3    3    0    0  0.57526910342E+01  0.38654051767E-01 -0.45213578459E+03  0.45217238158E+03  0.00000000000E+00 0.  1.
         14    1    3    3    0    0 -0.65117453085E+01  0.95214475310E+01 -0.59473904320E+01  0.12978144821E+02  0.00000000000E+00 0. -1.
         11    1    5    5    0    0  0.10383718970E+02  0.30841413810E+02  0.10816025276E+03  0.11294978841E+03  0.00000000000E+00 0. -1.
        -12    1    5    5    0    0  0.87289493018E+02  0.70754499888E+02  0.12217048604E+04  0.12268612068E+04  0.00000000000E+00 0.  1.
          5    1    4    4  501    0 -0.28137170291E+02 -0.97390710507E+02  0.22425862150E+03  0.24614234208E+03  0.41800000000E+01 0. -1.
         -5    1    4    4    0  501 -0.68776987423E+02 -0.13765304775E+02  0.38540340322E+02  0.80141049698E+02  0.41800000000E+01 0. -1.
</event>
<event>
11    1  0.8551154E-009  0.1431106E+03  0.7561462E-02  0.1104134E+00
         22   -1    0    0    0    0  0.00000000000E+00  0.00000000000E+00  0.35162158764E+03  0.35162158764E+03  0.00000000000E+00 0. -1.
         22   -1    0    0    0    0 -0.00000000000E+00 -0.00000000000E+00 -0.36141684083E+03  0.36141684083E+03  0.00000000000E+00 0. -1.
         24    2    1    2    0    0 -0.22719621163E+02  0.16066819653E+02 -0.27840197768E+03  0.29101936955E+03  0.80064276678E+02 0.  0.
         25    2    1    2    0    0  0.63910630997E+02  0.39707441701E+02  0.14702439804E+02  0.14671208545E+03  0.12508806737E+03 0.  0.
        -24    2    1    2    0    0 -0.41191009833E+02 -0.55774261354E+02  0.25390428468E+03  0.27530697347E+03  0.80740797255E+02 0.  0.
        -13    1    3    3    0    0  0.18274990967E+02 -0.21477379375E+02 -0.73933501261E+02  0.79129107972E+02  0.00000000000E+00 0.  1.
         14    1    3    3    0    0 -0.40994612131E+02  0.37544199028E+02 -0.20446847642E+03  0.21189026158E+03  0.00000000000E+00 0. -1.
         11    1    5    5    0    0 -0.54393739992E+02 -0.35077110193E+02  0.23654494133E+03  0.24523986600E+03  0.00000000000E+00 0. -1.
        -12    1    5    5    0    0  0.13202730158E+02 -0.20697151161E+02  0.17359343356E+02  0.30067107470E+02  0.00000000000E+00 0.  1.
          5    1    4    4  501    0  0.62543942415E+02  0.12135266840E+02  0.63781282429E+02  0.90247070990E+02  0.41800000000E+01 0. -1.
         -5    1    4    4    0  501  0.13666885820E+01  0.27572174861E+02 -0.49078842625E+02  0.56465014457E+02  0.41800000000E+01 0. -1.
</event>
<event>
11    1  0.8551154E-009  0.1377913E+03  0.7561462E-02  0.1110050E+00
         22   -1    0    0    0    0  0.00000000000E+00  0.00000000000E+00  0.15187481449E+04  0.15187481449E+04  0.00000000000E+00 0. -1.
         22   -1    0    0    0    0 -0.00000000000E+00 -0.00000000000E+00 -0.55194866781E+03  0.55194866781E+03  0.00000000000E+00 0. -1.
        -24    2    1    2    0    0 -0.75932382252E+01 -0.15239816138E+02 -0.43414695153E+03  0.44313319403E+03  0.87140936764E+02 0.  0.
         25    2    1    2    0    0  0.34453296963E+02 -0.36099922919E+02 -0.71037829587E+02  0.15225869673E+03  0.12508438509E+03 0.  0.
         24    2    1    2    0    0 -0.26860058737E+02  0.51339739057E+02  0.14719842582E+04  0.14753049219E+04  0.80185564460E+02 0.  0.
        -13    1    5    5    0    0 -0.99685128754E+01  0.30410027806E+02  0.16672363099E+03  0.16976722349E+03  0.00000000000E+00 0.  1.
         14    1    5    5    0    0 -0.16891545862E+02  0.20929711251E+02  0.13052606272E+04  0.13055376984E+04  0.00000000000E+00 0. -1.
         11    1    3    3    0    0 -0.37181740616E+02 -0.21748677521E+02 -0.11941668677E+03  0.12694814646E+03  0.00000000000E+00 0. -1.
        -12    1    3    3    0    0  0.29588502391E+02  0.65088613829E+01 -0.31473026476E+03  0.31618504757E+03  0.00000000000E+00 0.  1.
          5    1    4    4  501    0  0.30221831524E+00 -0.79302990582E+02 -0.43430974549E+02  0.90513963571E+02  0.41800000000E+01 0. -1.
         -5    1    4    4    0  501  0.34151078647E+02  0.43203067663E+02 -0.27606855038E+02  0.61744733163E+02  0.41800000000E+01 0. -1.
</event>
<event>
11    1  0.8551154E-009  0.1717494E+03  0.7561462E-02  0.1076519E+00
         22   -1    0    0    0    0  0.00000000000E+00  0.00000000000E+00  0.74953756713E+03  0.74953756713E+03  0.00000000000E+00 0.  1.
         22   -1    0    0    0    0 -0.00000000000E+00 -0.00000000000E+00 -0.21196857043E+03  0.21196857043E+03  0.00000000000E+00 0.  1.
        -24    2    1    2    0    0 -0.11348322723E+03  0.18138311198E+02 -0.13684129406E+03  0.19695746514E+03  0.82820662387E+02 0.  0.
         25    2    1    2    0    0  0.12921179358E+03 -0.60743074137E+02  0.17986357822E+03  0.26150312722E+03  0.12509024790E+03 0.  0.
         24    2    1    2    0    0 -0.15728566347E+02  0.42604762939E+02  0.49454671254E+03  0.50304554520E+03  0.80098789232E+02 0.  0.
        -13    1    5    5    0    0 -0.69127229222E+01  0.54222622613E+02  0.47747027894E+03  0.48058895723E+03  0.00000000000E+00 0.  1.
         14    1    5    5    0    0 -0.88158434251E+01 -0.11617859674E+02  0.17076433601E+02  0.22456587970E+02  0.00000000000E+00 0. -1.
         11    1    3    3    0    0 -0.11085867093E+02  0.33116633256E+02 -0.17718090543E+02  0.39160421089E+02  0.00000000000E+00 0. -1.
        -12    1    3    3    0    0 -0.10239736014E+03 -0.14978322058E+02 -0.11912320351E+03  0.15779704405E+03  0.00000000000E+00 0.  1.
          5    1    4    4  501    0  0.32441054356E+02 -0.28115469958E+02 -0.11426123953E+02  0.44619842753E+02  0.41800000000E+01 0.  1.
         -5    1    4    4    0  501  0.96770739221E+02 -0.32627604179E+02  0.19128970217E+03  0.21688328446E+03  0.41800000000E+01 0.  1.
</event>
<event>
11    1  0.8551154E-009  0.2003630E+03  0.7561462E-02  0.1054267E+00
         22   -1    0    0    0    0  0.00000000000E+00  0.00000000000E+00  0.12250910417E+04  0.12250910417E+04  0.00000000000E+00 0.  1.
         22   -1    0    0    0    0 -0.00000000000E+00 -0.00000000000E+00 -0.13952769805E+04  0.13952769805E+04  0.00000000000E+00 0.  1.
        -24    2    1    2    0    0  0.30143746647E+02 -0.23192886516E+01 -0.13645266159E+04  0.13671379825E+04  0.78862875432E+02 0.  0.
         25    2    1    2    0    0  0.54443131300E+02 -0.13744882553E+03  0.52031440554E+03  0.55518540317E+03  0.12509003596E+03 0.  0.
         24    2    1    2    0    0 -0.84586877948E+02  0.13976811418E+03  0.67402627145E+03  0.69804463656E+03  0.79150706704E+02 0.  0.
        -11    1    5    5    0    0 -0.30393362631E+02  0.95267943968E+02  0.50913233451E+03  0.51885978037E+03  0.00000000000E+00 0.  1.
         12    1    5    5    0    0 -0.54193515316E+02  0.44500170209E+02  0.16489393694E+03  0.17918485620E+03  0.00000000000E+00 0. -1.
         13    1    3    3    0    0  0.57308661805E+01  0.11108027884E+02 -0.32510422597E+02  0.34830427618E+02  0.00000000000E+00 0. -1.
        -14    1    3    3    0    0  0.24412880467E+02 -0.13427316536E+02 -0.13320161933E+04  0.13323075548E+04  0.00000000000E+00 0.  1.
          5    1    4    4  501    0 -0.29323370339E+02 -0.13893922216E+02  0.37308515002E+02  0.49621555944E+02  0.41800000000E+01 0. -1.
         -5    1    4    4    0  501  0.83766501640E+02 -0.12355490331E+03  0.48300589054E+03  0.50556384723E+03  0.41800000000E+01 0. -1.
</event>
<event>
11    1  0.8551154E-009  0.1701550E+03  0.7561462E-02  0.1077897E+00
         22   -1    0    0    0    0  0.00000000000E+00  0.00000000000E+00  0.97094355351E+03  0.97094355351E+03  0.00000000000E+00 0. -1.
         22   -1    0    0    0    0 -0.00000000000E+00 -0.00000000000E+00 -0.83162397908E+02  0.83162397908E+02  0.00000000000E+00 0. -1.
         24    2    1    2    0    0 -0.90177722917E+02  0.68738969241E+02  0.34766809016E+02  0.14364719299E+03  0.81047624535E+02 0.  0.
         25    2    1    2    0    0  0.10445505163E+03 -0.63638697883E+02  0.26837427508E+03  0.32036375135E+03  0.12508972770E+03 0.  0.
        -24    2    1    2    0    0 -0.14277328712E+02 -0.51002713584E+01  0.58464007151E+03  0.59009500708E+03  0.78601840191E+02 0.  0.
        -13    1    3    3    0    0 -0.60031408232E+02  0.28296606487E+02  0.57974920356E+02  0.88122410902E+02  0.00000000000E+00 0.  1.
         14    1    3    3    0    0 -0.30146314685E+02  0.40442362755E+02 -0.23208111339E+02  0.55524782091E+02  0.00000000000E+00 0. -1.
         13    1    5    5    0    0  0.13069855343E+02  0.31642841383E+02  0.25508126116E+03  0.25736849132E+03  0.00000000000E+00 0. -1.
        -14    1    5    5    0    0 -0.27347184056E+02 -0.36743112742E+02  0.32955881035E+03  0.33272651576E+03  0.00000000000E+00 0.  1.
          5    1    4    4  501    0  0.77547722634E+02  0.25496921591E+02  0.12719758606E+03  0.15119669506E+03  0.41800000000E+01 0. -1.
         -5    1    4    4    0  501  0.26907328995E+02 -0.89135619474E+02  0.14117668901E+03  0.16916705629E+03  0.41800000000E+01 0. -1.
</event>
<event>
11    1  0.8551154E-009  0.1310751E+03  0.7561462E-02  0.1117955E+00
         22   -1    0    0    0    0  0.00000000000E+00  0.00000000000E+00  0.87951545592E+02  0.87951545592E+02  0.00000000000E+00 0.  1.
         22   -1    0    0    0    0 -0.00000000000E+00 -0.00000000000E+00 -0.13484336828E+04  0.13484336828E+04  0.00000000000E+00 0.  1.
         24    2    1    2    0    0 -0.33908706604E+02  0.12849694682E+02 -0.11692349036E+04  0.11724779392E+04  0.79242305436E+02 0.  0.
         25    2    1    2    0    0  0.14594689227E+02  0.27116703841E+02 -0.11027149774E+03  0.16957265900E+03  0.12508702126E+03 0.  0.
        -24    2    1    2    0    0  0.19314017377E+02 -0.39966398523E+02  0.19024264110E+02  0.94334630255E+02  0.81035520374E+02 0.  0.
        -11    1    3    3    0    0 -0.22611637676E+02  0.34614537454E+02 -0.10465461398E+04  0.10473625328E+04  0.00000000000E+00 0.  1.
         12    1    3    3    0    0 -0.11297068928E+02 -0.21764842772E+02 -0.12268876383E+03  0.12511540640E+03  0.00000000000E+00 0. -1.
         13    1    5    5    0    0  0.16184065731E+02  0.16364540709E+02 -0.15907483416E+02  0.27978030754E+02  0.00000000000E+00 0. -1.
        -14    1    5    5    0    0  0.31299516461E+01 -0.56330939233E+02  0.34931747526E+02  0.66356599501E+02  0.00000000000E+00 0.  1.
          5    1    4    4  501    0 -0.14542932191E+02 -0.36346967497E+02 -0.46410712069E+00  0.39373680528E+02  0.41800000000E+01 0.  1.
         -5    1    4    4    0  501  0.29137621418E+02  0.63463671338E+02 -0.10980739062E+03  0.13019897847E+03  0.41800000000E+01 0.  1.
</event>
<event>
11    1  0.8551154E-009  0.1354192E+03  0.7561462E-02  0.1112784E+00
         22   -1    0    0    0    0  0.00000000000E+00  0.00000000000E+00  0.27001876888E+04  0.27001876888E+04  0.00000000000E+00 0.  1.
         22   -1    0    0    0    0 -0.00000000000E+00 -0.00000000000E+00 -0.12818262812E+03  0.12818262812E+03  0.00000000000E+00 0. -1.
         24    2    1    2    0    0  0.45648202257E+02  0.25449270375E+02 -0.93653615126E+02  0.13710403321E+03  0.85411314037E+02 0.  0.
         25    2    1    2    0    0 -0.19272144654E+02 -0.55679414842E+02  0.39054911159E+03  0.41430357844E+03  0.12508890339E+03 0.  0.
        -24    2    1    2    0    0 -0.26376057603E+02  0.30230144468E+02  0.22751095642E+04  0.22769627052E+04  0.82620057382E+02 0.  0.
        -13    1    3    3    0    0 -0.97150287961E+01 -0.22684463627E+02 -0.36720965108E+02  0.44242467754E+02  0.00000000000E+00 0.  1.
         14    1    3    3    0    0  0.55363231053E+02  0.48133734001E+02 -0.56932650018E+02  0.92861565460E+02  0.00000000000E+00 0. -1.
         11    1    5    5    0    0 -0.31667573915E+02 -0.10038083911E+02  0.38900649645E+03  0.39042240285E+03  0.00000000000E+00 0. -1.
        -12    1    5    5    0    0  0.52915163116E+01  0.40268228379E+02  0.18861030677E+04  0.18865403024E+04  0.00000000000E+00 0.  1.
          5    1    4    4  501    0  0.35207898210E+01  0.34092494274E+02  0.19319649861E+03  0.19625762049E+03  0.41800000000E+01 0.  1.
         -5    1    4    4    0  501 -0.22792934475E+02 -0.89771909117E+02  0.19735261298E+03  0.21804595795E+03  0.41800000000E+01 0.  1.
</event>
<event>
11    1  0.8551154E-009  0.1744520E+03  0.7561462E-02  0.1074221E+00
         22   -1    0    0    0    0  0.00000000000E+00  0.00000000000E+00  0.57616656980E+03  0.57616656980E+03  0.00000000000E+00 0.  1.
         22   -1    0    0    0    0 -0.00000000000E+00 -0.00000000000E+00 -0.58622973802E+03  0.58622973802E+03  0.00000000000E+00 0.  1.
         24    2    1    2    0    0 -0.79678222980E+02 -0.90086846186E+02 -0.49095099188E+03  0.51033199338E+03  0.70296571513E+02 0.  0.
         25    2    1    2    0    0  0.11230236319E+03  0.82289217594E+02  0.26253414348E+02  0.18899935377E+03  0.12509267704E+03 0.  0.
        -24    2    1    2    0    0 -0.32624140206E+02  0.77976285918E+01  0.45463440930E+03  0.46306496068E+03  0.81311586833E+02 0.  0.
        -11    1    3    3    0    0 -0.30272945363E+02  0.36796592914E+01 -0.72191312427E+02  0.78368212327E+02  0.00000000000E+00 0.  1.
         12    1    3    3    0    0 -0.49405277617E+02 -0.93766505477E+02 -0.41875967945E+03  0.43196378105E+03  0.00000000000E+00 0. -1.
         11    1    5    5    0    0  0.64852721570E+01 -0.30839357396E+02  0.12708766658E+03  0.13093662481E+03  0.00000000000E+00 0. -1.
        -12    1    5    5    0    0 -0.39109412363E+02  0.38636985988E+02  0.32754674272E+03  0.33212833587E+03  0.00000000000E+00 0.  1.
          5    1    4    4  501    0 -0.27642331144E+02  0.11793889099E+02  0.23405443701E+01  0.30432627871E+02  0.41800000000E+01 0.  1.
         -5    1    4    4    0  501  0.13994469433E+03  0.70495328495E+02  0.23912869978E+02  0.15856672590E+03  0.41800000000E+01 0.  1.
</event>
<event>
11    1  0.8551154E-009  0.1344941E+03  0.7561462E-02  0.1113867E+00
         22   -1    0    0    0    0  0.00000000000E+00  0.00000000000E+00  0.88198215303E+03  0.88198215303E+03  0.00000000000E+00 0. -1.
         22   -1    0    0    0    0 -0.00000000000E+00 -0.00000000000E+00 -0.57914405215E+03  0.57914405215E+03  0.00000000000E+00 0.  1.
         24    2    1    2    0    0 -0.30867164845E+02  0.38634989922E+02 -0.55950224468E+03  0.56613324820E+03  0.70842420968E+02 0.  0.
         25    2    1    2    0    0  0.52635975055E+02 -0.14504660774E+02  0.35347994419E+03  0.37891530184E+03  0.12509118261E+03 0.  0.
        -24    2    1    2    0    0 -0.21768810210E+02 -0.24130329148E+02  0.50886040136E+03  0.51607765515E+03  0.79630924782E+02 0.  0.
        -13    1    3    3    0    0 -0.17849930836E+02  0.44156032727E+01 -0.45557146544E+03  0.45594240613E+03  0.00000000000E+00 0.  1.
         14    1    3    3    0    0 -0.13017234009E+02  0.34219386649E+02 -0.10393077923E+03  0.11019084207E+03  0.00000000000E+00 0. -1.
         13    1    5    5    0    0 -0.12711934790E+02 -0.16242979172E+02  0.50164110886E+03  0.50206496567E+03  0.00000000000E+00 0. -1.
        -14    1    5    5    0    0 -0.90568754197E+01 -0.78873499754E+01  0.72192925052E+01  0.14012689473E+02  0.00000000000E+00 0.  1.
          5    1    4    4  501    0 -0.26768465595E+01  0.42234271873E+02  0.52032618964E+02  0.67199442441E+02  0.41800000000E+01 0. -1.
         -5    1    4    4    0  501  0.55312821614E+02 -0.56738932647E+02  0.30144732523E+03  0.31171585940E+03  0.41800000000E+01 0. -1.
</event>
<event>
11    1  0.1200579E-008  0.1717601E+03  0.7561462E-02  0.1076510E+00
         22   -1    0    0    0    0  0.00000000000E+00  0.00000000000E+00  0.81746039873E+03  0.81746039873E+03  0.00000000000E+00 0.  1.
         22   -1    0    0    0    0 -0.00000000000E+00 -0.00000000000E+00 -0.22910207533E+04  0.22910207533E+04  0.00000000000E+00 0.  1.
        -24    2    1    2    0    0 -0.39597455662E+02  0.40116768997E+02 -0.18088042127E+04  0.18116231533E+04  0.83835887035E+02 0.  0.
         25    2    1    2    0    0  0.15606393208E+03 -0.26661481615E+02 -0.45302489293E+03  0.49593005356E+03  0.12509308097E+03 0.  0.
         24    2    1    2    0    0 -0.11646647642E+03 -0.13455287382E+02  0.78826875109E+03  0.80092794516E+03  0.79827717685E+02 0.  0.
        -11    1    5    5    0    0 -0.81006054134E+02  0.18719744826E+02  0.63320100017E+03  0.63863598103E+03  0.00000000000E+00 0.  1.
         12    1    5    5    0    0 -0.35460422284E+02 -0.32175032209E+02  0.15506775092E+03  0.16229196413E+03  0.00000000000E+00 0. -1.
         11    1    3    3    0    0 -0.50242707230E+02  0.18071466150E+01 -0.57970834021E+03  0.58188431420E+03  0.00000000000E+00 0. -1.
        -12    1    3    3    0    0  0.10645251568E+02  0.38309622382E+02 -0.12290958725E+04  0.12297388391E+04  0.00000000000E+00 0.  1.
          5    1    4    4  501    0  0.63098751380E+02 -0.40261202142E+02 -0.34341730492E+03  0.35150438766E+03  0.41800000000E+01 0.  1.
         -5    1    4    4    0  501  0.92965180699E+02  0.13599720527E+02 -0.10960758801E+03  0.14442566590E+03  0.41800000000E+01 0.  1.
</event>
<event>
11    1  0.8551154E-009  0.1354591E+03  0.7561462E-02  0.1112738E+00
         22   -1    0    0    0    0  0.00000000000E+00  0.00000000000E+00  0.17833176713E+03  0.17833176713E+03  0.00000000000E+00 0.  1.
         22   -1    0    0    0    0 -0.00000000000E+00 -0.00000000000E+00 -0.84724225622E+03  0.84724225622E+03  0.00000000000E+00 0.  1.
         24    2    1    2    0    0 -0.42497903873E+02  0.30664739500E+02 -0.75985866776E+03  0.76574548399E+03  0.78959186934E+02 0.  0.
         25    2    1    2    0    0  0.24180414385E+02 -0.39796881765E+02 -0.72649676544E+01  0.13366955929E+03  0.12508511937E+03 0.  0.
        -24    2    1    2    0    0  0.18317489488E+02  0.91321422649E+01  0.98213146331E+02  0.12615898006E+03  0.76494050061E+02 0.  0.
        -13    1    3    3    0    0 -0.63476460176E+02  0.34651477982E+02 -0.63082092235E+03  0.63495277147E+03  0.00000000000E+00 0.  1.
         14    1    3    3    0    0  0.20978556303E+02 -0.39867384819E+01 -0.12903774542E+03  0.13079271253E+03  0.00000000000E+00 0. -1.
         11    1    5    5    0    0  0.32481050139E+02  0.31957482842E+02  0.34942377968E+02  0.57421852162E+02  0.00000000000E+00 0. -1.
        -12    1    5    5    0    0 -0.14163560651E+02 -0.22825340577E+02  0.63270768363E+02  0.68737127901E+02  0.00000000000E+00 0.  1.
          5    1    4    4  501    0 -0.31002237456E+02  0.30523220285E+02  0.16791145508E+01  0.43738970375E+02  0.41800000000E+01 0.  1.
         -5    1    4    4    0  501  0.55182651841E+02 -0.70320102049E+02 -0.89440822053E+01  0.89930588917E+02  0.41800000000E+01 0.  1.
</event>
<event>
11    1  0.8551154E-009  0.1414558E+03  0.7561462E-02  0.1105944E+00
         22   -1    0    0    0    0  0.00000000000E+00  0.00000000000E+00  0.41961877525E+03  0.41961877525E+03  0.00000000000E+00 0.  1.
         22   -1    0    0    0    0 -0.00000000000E+00 -0.00000000000E+00 -0.27637511140E+03  0.27637511140E+03  0.00000000000E+00 0.  1.
         24    2    1    2    0    0  0.16054782574E+02 -0.18422597189E+02 -0.22170792065E+03  0.23698969472E+03  0.80078493953E+02 0.  0.
         25    2    1    2    0    0 -0.63810877325E+02 -0.27257723344E+02  0.10075674567E+03  0.17496895119E+03  0.12508957006E+03 0.  0.
        -24    2    1    2    0    0  0.47756094751E+02  0.45680320533E+02  0.26419483883E+03  0.28403524074E+03  0.80683138530E+02 0.  0.
        -13    1    3    3    0    0 -0.50498676781E+01 -0.13365567947E+02 -0.21320205287E+03  0.21368026329E+03  0.00000000000E+00 0.  1.
         14    1    3    3    0    0  0.21104650252E+02 -0.50570292428E+01 -0.85058677783E+01  0.23309431432E+02  0.00000000000E+00 0. -1.
         13    1    5    5    0    0 -0.20827874261E+02 -0.13328508886E+01  0.45191739608E+02  0.49778209756E+02  0.00000000000E+00 0. -1.
        -14    1    5    5    0    0  0.68583969012E+02  0.47013171422E+02  0.21900309923E+03  0.23425703098E+03  0.00000000000E+00 0.  1.
          5    1    4    4  501    0 -0.93573349274E+02  0.19494050098E+01  0.93640344744E+02  0.13246040328E+03  0.41800000000E+01 0. -1.
         -5    1    4    4    0  501  0.29762471949E+02 -0.29207128354E+02  0.71164009218E+01  0.42508547908E+02  0.41800000000E+01 0. -1.
</event>
<event>
11    1  0.8551154E-009  0.1349135E+03  0.7561462E-02  0.1113375E+00
         22   -1    0    0    0    0  0.00000000000E+00  0.00000000000E+00  0.26855087179E+03  0.26855087179E+03  0.00000000000E+00 0. -1.
         22   -1    0    0    0    0 -0.00000000000E+00 -0.00000000000E+00 -0.13050915956E+04  0.13050915956E+04  0.00000000000E+00 0. -1.
         24    2    1    2    0    0 -0.30120421477E+02  0.39549305918E+02 -0.10174684214E+04  0.10217387559E+04  0.78972840123E+02 0.  0.
         25    2    1    2    0    0  0.52091079081E+02 -0.31598356028E+02 -0.26105056239E+03  0.29581595814E+03  0.12509096028E+03 0.  0.
        -24    2    1    2    0    0 -0.21970657603E+02 -0.79509498897E+01  0.24197825998E+03  0.25608775330E+03  0.80507960389E+02 0.  0.
        -11    1    3    3    0    0 -0.24614794753E+02  0.18723777276E+02 -0.11717466388E+03  0.12118733354E+03  0.00000000000E+00 0.  1.
         12    1    3    3    0    0 -0.55056267246E+01  0.20825528642E+02 -0.90029375749E+03  0.90055142238E+03  0.00000000000E+00 0. -1.
         13    1    5    5    0    0 -0.36646577739E+02  0.23494684145E+02  0.87135611901E+02  0.97404243770E+02  0.00000000000E+00 0. -1.
        -14    1    5    5    0    0  0.14675920136E+02 -0.31445634035E+02  0.15484264808E+03  0.15868350952E+03  0.00000000000E+00 0.  1.
          5    1    4    4  501    0  0.51446231279E+02  0.40816690435E+02 -0.10845953579E+03  0.12686079077E+03  0.41800000000E+01 0.  1.
         -5    1    4    4    0  501  0.64484780158E+00 -0.72415046464E+02 -0.15259102660E+03  0.16895516738E+03  0.41800000000E+01 0.  1.
</event>
<event>
11    1  0.8551154E-009  0.1606571E+03  0.7561462E-02  0.1086461E+00
         22   -1    0    0    0    0  0.00000000000E+00  0.00000000000E+00  0.75745803051E+03  0.75745803051E+03  0.00000000000E+00 0.  1.
         22   -1    0    0    0    0 -0.00000000000E+00 -0.00000000000E+00 -0.17028414508E+04  0.17028414508E+04  0.00000000000E+00 0. -1.
         24    2    1    2    0    0 -0.12727013275E+02  0.99900909359E+02 -0.16590740729E+04  0.16640611948E+04  0.80191720355E+02 0.  0.
         25    2    1    2    0    0  0.92525020979E+02 -0.10280763477E+03  0.21698083100E+03  0.28610009309E+03  0.12506915276E+03 0.  0.
        -24    2    1    2    0    0 -0.79798007704E+02  0.29067254103E+01  0.49670982163E+03  0.51013819344E+03  0.84523123572E+02 0.  0.
        -13    1    3    3    0    0  0.31371964268E+02  0.22888127117E+02 -0.61339787596E+03  0.61462591935E+03  0.00000000000E+00 0.  1.
         14    1    3    3    0    0 -0.44098977542E+02  0.77012782242E+02 -0.10456761970E+04  0.10494352754E+04  0.00000000000E+00 0. -1.
         13    1    5    5    0    0 -0.24892191000E+01 -0.20343112551E+02  0.28992549660E+02  0.35505019022E+02  0.00000000000E+00 0. -1.
        -14    1    5    5    0    0 -0.77308788604E+02  0.23249837961E+02  0.46771727197E+03  0.47463317442E+03  0.00000000000E+00 0.  1.
          5    1    4    4  501    0  0.73785301463E+02 -0.51864449695E+01  0.42943218100E+02  0.85631549701E+02  0.41800000000E+01 0. -1.
         -5    1    4    4    0  501  0.18739719516E+02 -0.97621189800E+02  0.17403761290E+03  0.20046854339E+03  0.41800000000E+01 0. -1.
</event>
<event>
11    1  0.8551154E-009  0.1712569E+03  0.7561462E-02  0.1076943E+00
         22   -1    0    0    0    0  0.00000000000E+00  0.00000000000E+00  0.90398457902E+03  0.90398457902E+03  0.00000000000E+00 0.  1.
         22   -1    0    0    0    0 -0.00000000000E+00 -0.00000000000E+00 -0.17413308300E+03  0.17413308300E+03  0.00000000000E+00 0.  1.
         24    2    1    2    0    0  0.38139104488E+02  0.10272422231E+03 -0.22788887290E+02  0.13790604115E+03  0.80572238777E+02 0.  0.
         25    2    1    2    0    0 -0.54912577732E+02 -0.11617462151E+03 -0.35291644417E+01  0.17937271153E+03  0.12510068251E+03 0.  0.
        -24    2    1    2    0    0  0.16773473244E+02  0.13450399196E+02  0.75616954775E+03  0.76083890934E+03  0.81370746439E+02 0.  0.
        -11    1    3    3    0    0  0.57560991135E+02  0.78028219272E+02 -0.36528852525E+02  0.10361480478E+03  0.00000000000E+00 0.  1.
         12    1    3    3    0    0 -0.19421886647E+02  0.24696003039E+02  0.13739965236E+02  0.34291236369E+02  0.00000000000E+00 0. -1.
         11    1    5    5    0    0 -0.23319524132E+02  0.22788689853E+02  0.16221308280E+03  0.16545757408E+03  0.00000000000E+00 0. -1.
        -12    1    5    5    0    0  0.40092997377E+02 -0.93382906577E+01  0.59395646496E+03  0.59538133526E+03  0.00000000000E+00 0.  1.
          5    1    4    4  501    0 -0.32896465849E+02 -0.13981131827E+03  0.10144687169E+02  0.14404780199E+03  0.41800000000E+01 0. -1.
         -5    1    4    4    0  501 -0.22016111883E+02  0.23636696759E+02 -0.13673851610E+02  0.35324909540E+02  0.41800000000E+01 0. -1.
</event>
<event>
11    1  0.1029139E-008  0.1755230E+03  0.7561462E-02  0.1073323E+00
         22   -1    0    0    0    0  0.00000000000E+00  0.00000000000E+00  0.93762809009E+03  0.93762809009E+03  0.00000000000E+00 0. -1.
         22   -1    0    0    0    0 -0.00000000000E+00 -0.00000000000E+00 -0.17356706323E+04  0.17356706323E+04  0.00000000000E+00 0. -1.
         24    2    1    2    0    0 -0.51028312739E+02  0.62207499305E+02 -0.16372192937E+04  0.16411431208E+04  0.79937886671E+02 0.  0.
         25    2    1    2    0    0  0.53331305168E+02  0.65006707499E+02 -0.26806674664E+02  0.15308729239E+03  0.12508805361E+03 0.  0.
        -24    2    1    2    0    0 -0.23029924290E+01 -0.12721420680E+03  0.86598342612E+03  0.87906830921E+03  0.81517113286E+02 0.  0.
        -11    1    3    3    0    0  0.10911310533E+02  0.19725350884E+02 -0.12210700559E+03  0.12417031441E+03  0.00000000000E+00 0.  1.
         12    1    3    3    0    0 -0.61939623271E+02  0.42482148421E+02 -0.15151122881E+04  0.15169728064E+04  0.00000000000E+00 0. -1.
         11    1    5    5    0    0  0.61982901248E+01 -0.13173032349E+03  0.85166550313E+03  0.86181519257E+03  0.00000000000E+00 0. -1.
        -12    1    5    5    0    0 -0.85012825538E+01  0.45161166874E+01  0.14317922989E+02  0.17253116638E+02  0.00000000000E+00 0.  1.
          5    1    4    4  501    0  0.75981679298E+02 -0.25212704488E+01  0.19469989575E+01  0.76163216834E+02  0.41800000000E+01 0.  1.
         -5    1    4    4    0  501 -0.22650374130E+02  0.67527977948E+02 -0.28753673622E+02  0.76924075560E+02  0.41800000000E+01 0.  1.
</event>
<event>
11    1  0.8551154E-009  0.1682274E+03  0.7561462E-02  0.1079585E+00
         22   -1    0    0    0    0  0.00000000000E+00  0.00000000000E+00  0.18434215693E+04  0.18434215693E+04  0.00000000000E+00 0.  1.
         22   -1    0    0    0    0 -0.00000000000E+00 -0.00000000000E+00 -0.40909251592E+03  0.40909251592E+03  0.00000000000E+00 0. -1.
        -24    2    1    2    0    0 -0.27805156468E+02  0.16950766040E+02 -0.33677348759E+03  0.34818887815E+03  0.82211056015E+02 0.  0.
         25    2    1    2    0    0  0.13394282518E+03  0.17567135746E+02  0.68760901240E+02  0.19653443943E+03  0.12509372354E+03 0.  0.
         24    2    1    2    0    0 -0.10613766871E+03 -0.34517901787E+02  0.17023416397E+04  0.17077907676E+04  0.78265940031E+02 0.  0.
        -11    1    5    5    0    0 -0.10053341949E+03 -0.38841188344E+02  0.16909373810E+04  0.16943685647E+04  0.00000000000E+00 0.  1.
         12    1    5    5    0    0 -0.56042492197E+01  0.43232865576E+01  0.11404258705E+02  0.13422202971E+02  0.00000000000E+00 0. -1.
         13    1    3    3    0    0 -0.52078020743E+02 -0.70654965789E+01 -0.23622475843E+03  0.24200036773E+03  0.00000000000E+00 0. -1.
        -14    1    3    3    0    0  0.24272864275E+02  0.24016262619E+02 -0.10054872916E+03  0.10618851043E+03  0.00000000000E+00 0.  1.
          5    1    4    4  501    0  0.13474327699E+03 -0.12958642498E+02  0.86765691518E+02  0.16083977970E+03  0.41800000000E+01 0. -1.
         -5    1    4    4    0  501 -0.80045180911E+00  0.30525778244E+02 -0.18004790278E+02  0.35694659733E+02  0.41800000000E+01 0. -1.
</event>
<event>
11    1  0.8551154E-009  0.1624215E+03  0.7561462E-02  0.1084822E+00
         22   -1    0    0    0    0  0.00000000000E+00  0.00000000000E+00  0.11283363257E+04  0.11283363257E+04  0.00000000000E+00 0. -1.
         22   -1    0    0    0    0 -0.00000000000E+00 -0.00000000000E+00 -0.32287630998E+03  0.32287630998E+03  0.00000000000E+00 0. -1.
         24    2    1    2    0    0 -0.95403181269E+02  0.33361624263E+02 -0.24185408613E+03  0.27403992593E+03  0.79935705781E+02 0.  0.
         25    2    1    2    0    0  0.14365406580E+03  0.33174417892E+02  0.90347027170E+02  0.21341715628E+03  0.12508902690E+03 0.  0.
        -24    2    1    2    0    0 -0.48250884531E+02 -0.66536042155E+02  0.95696707464E+03  0.96375555342E+03  0.79269111574E+02 0.  0.
        -11    1    3    3    0    0 -0.14863104439E+02 -0.21262138601E+02 -0.90122541145E+02  0.93781996320E+02  0.00000000000E+00 0.  1.
         12    1    3    3    0    0 -0.80540076829E+02  0.54623762864E+02 -0.15173154498E+03  0.18025792961E+03  0.00000000000E+00 0. -1.
         13    1    5    5    0    0 -0.61180149233E+02 -0.25851757662E+02  0.71252390030E+03  0.71561276717E+03  0.00000000000E+00 0. -1.
        -14    1    5    5    0    0  0.12929264702E+02 -0.40684284493E+02  0.24444317433E+03  0.24814278625E+03  0.00000000000E+00 0.  1.
          5    1    4    4  501    0  0.10923447903E+02  0.46387736253E+02 -0.68412118207E+01  0.48326166494E+02  0.41800000000E+01 0. -1.
         -5    1    4    4    0  501  0.13273061790E+03 -0.13213318361E+02  0.97188238991E+02  0.16509098978E+03  0.41800000000E+01 0. -1.
</event>
<event>
11    1  0.8551154E-009  0.1404164E+03  0.7561462E-02  0.1107094E+00
         22   -1    0    0    0    0  0.00000000000E+00  0.00000000000E+00  0.30172250084E+03  0.30172250084E+03  0.00000000000E+00 0.  1.
         22   -1    0    0    0    0 -0.00000000000E+00 -0.00000000000E+00 -0.10088547896E+04  0.10088547896E+04  0.00000000000E+00 0. -1.
        -24    2    1    2    0    0 -0.43229802663E+02  0.16373640198E+02 -0.93913813258E+03  0.94368632450E+03  0.80165672582E+02 0.  0.
         25    2    1    2    0    0  0.33505466291E+02 -0.76946649315E+02  0.50291528345E+02  0.15881030270E+03  0.12509225119E+03 0.  0.
         24    2    1    2    0    0  0.97243363723E+01  0.60573009117E+02  0.18171431543E+03  0.20808066328E+03  0.80708226657E+02 0.  0.
        -13    1    5    5    0    0  0.10272147106E+02  0.80602526228E+02  0.14909814075E+03  0.16980147177E+03  0.00000000000E+00 0.  1.
         14    1    5    5    0    0 -0.54781073413E+00 -0.20029517111E+02  0.32616174673E+02  0.38279191509E+02  0.00000000000E+00 0. -1.
         13    1    3    3    0    0 -0.35051418872E+02  0.41575062678E+02 -0.81189006179E+03  0.81370913737E+03  0.00000000000E+00 0. -1.
        -14    1    3    3    0    0 -0.81783837908E+01 -0.25201422480E+02 -0.12724807078E+03  0.12997718713E+03  0.00000000000E+00 0.  1.
          5    1    4    4  501    0  0.12971458087E+02 -0.88472336208E+02  0.80426096318E+02  0.12033886474E+03  0.41800000000E+01 0.  1.
         -5    1    4    4    0  501  0.20534008203E+02  0.11525686893E+02 -0.30134567973E+02  0.38471437953E+02  0.41800000000E+01 0.  1.
</event>
<event>
11    1  0.8551154E-009  0.1283468E+03  0.7561462E-02  0.1121317E+00
         22   -1    0    0    0    0  0.00000000000E+00  0.00000000000E+00  0.67008178185E+03  0.67008178185E+03  0.00000000000E+00 0. -1.
         22   -1    0    0    0    0 -0.00000000000E+00 -0.00000000000E+00 -0.89614066716E+03  0.89614066716E+03  0.00000000000E+00 0. -1.
         24    2    1    2    0    0 -0.23562406229E+02  0.16314127882E+02 -0.85413789046E+03  0.85846186063E+03  0.81141188580E+02 0.  0.
         25    2    1    2    0    0  0.32640488466E+02 -0.10255322117E+02  0.77094809112E+02  0.15086891789E+03  0.12508895904E+03 0.  0.
        -24    2    1    2    0    0 -0.90780822375E+01 -0.60588057648E+01  0.55098419604E+03  0.55689167050E+03  0.80160013002E+02 0.  0.
        -13    1    3    3    0    0 -0.50510286368E+02 -0.62345555851E+01 -0.49554707713E+03  0.49815365538E+03  0.00000000000E+00 0.  1.
         14    1    3    3    0    0  0.26947880139E+02  0.22548683467E+02 -0.35859081333E+03  0.36030820525E+03  0.00000000000E+00 0. -1.
         11    1    5    5    0    0 -0.15270251580E+02 -0.28724791427E+02  0.49640269214E+03  0.49746751350E+03  0.00000000000E+00 0. -1.
        -12    1    5    5    0    0  0.61921693426E+01  0.22665985663E+02  0.54581503900E+02  0.59424157001E+02  0.00000000000E+00 0.  1.
          5    1    4    4  501    0  0.42119689480E+02 -0.62961716861E+02  0.42176693489E+02  0.86802027083E+02  0.41800000000E+01 0.  1.
         -5    1    4    4    0  501 -0.94792010141E+01  0.52706394744E+02  0.34918115624E+02  0.64066890806E+02  0.41800000000E+01 0.  1.
</event>
<event>
11    1  0.8551154E-009  0.1345912E+03  0.7561462E-02  0.1113753E+00
         22   -1    0    0    0    0  0.00000000000E+00  0.00000000000E+00  0.34500818661E+03  0.34500818661E+03  0.00000000000E+00 0. -1.
         22   -1    0    0    0    0 -0.00000000000E+00 -0.00000000000E+00 -0.46964826244E+03  0.46964826244E+03  0.00000000000E+00 0. -1.
        -24    2    1    2    0    0  0.53034799629E+02 -0.33521425038E+01 -0.41721667178E+03  0.42781475422E+03  0.78305720692E+02 0.  0.
         25    2    1    2    0    0 -0.42208653471E+02 -0.47102754354E+02  0.10399063383E+03  0.17453205377E+03  0.12508855252E+03 0.  0.
         24    2    1    2    0    0 -0.10826146157E+02  0.50454896858E+02  0.18858596211E+03  0.21230964106E+03  0.82751534881E+02 0.  0.
        -11    1    5    5    0    0  0.34480803886E+01  0.35975853619E+01 -0.81580741925E+01  0.95596052917E+01  0.00000000000E+00 0.  1.
         12    1    5    5    0    0 -0.14274226546E+02  0.46857311496E+02  0.19674403630E+03  0.20275003577E+03  0.00000000000E+00 0. -1.
         13    1    3    3    0    0  0.53930192977E+02 -0.77615645418E+01 -0.41932205093E+03  0.42284712367E+03  0.00000000000E+00 0. -1.
        -14    1    3    3    0    0 -0.89539334866E+00  0.44094220380E+01  0.21053791538E+01  0.49676305559E+01  0.00000000000E+00 0.  1.
          5    1    4    4  501    0 -0.18544664570E+02  0.29854651953E+02  0.84463136794E+02  0.91578920633E+02  0.41800000000E+01 0. -1.
         -5    1    4    4    0  501 -0.23663988902E+02 -0.76957406307E+02  0.19527497036E+02  0.82953133134E+02  0.41800000000E+01 0. -1.
</event>
<event>
11    1  0.8551154E-009  0.1434715E+03  0.7561462E-02  0.1103743E+00
         22   -1    0    0    0    0  0.00000000000E+00  0.00000000000E+00  0.22993684656E+03  0.22993684656E+03  0.00000000000E+00 0. -1.
         22   -1    0    0    0    0 -0.00000000000E+00 -0.00000000000E+00 -0.49528066395E+03  0.49528066395E+03  0.00000000000E+00 0. -1.
        -24    2    1    2    0    0 -0.12216417115E+02  0.70429977138E+02 -0.41831951792E+03  0.43199413274E+03  0.80734683551E+02 0.  0.
         25    2    1    2    0    0 -0.14005125942E+02 -0.57898960305E+02  0.29835255899E+02  0.14172513237E+03  0.12508971777E+03 0.  0.
         24    2    1    2    0    0  0.26221543057E+02 -0.12531016834E+02  0.12314044463E+03  0.15149824540E+03  0.83327987808E+02 0.  0.
        -11    1    5    5    0    0 -0.21681587532E+02  0.17969422850E+02  0.61758798295E+02  0.67875920342E+02  0.00000000000E+00 0.  1.
         12    1    5    5    0    0  0.47903130589E+02 -0.30500439683E+02  0.61381646332E+02  0.83622325054E+02  0.00000000000E+00 0. -1.
         13    1    3    3    0    0  0.25577893648E+02  0.59728561113E+02 -0.31092778758E+03  0.31764417002E+03  0.00000000000E+00 0. -1.
        -14    1    3    3    0    0 -0.37794310763E+02  0.10701416026E+02 -0.10739173034E+03  0.11434996273E+03  0.00000000000E+00 0.  1.
          5    1    4    4  501    0 -0.52110733254E+02 -0.71164790179E+02 -0.47321469757E+01  0.88429754588E+02  0.41800000000E+01 0.  1.
         -5    1    4    4    0  501  0.38105607312E+02  0.13265829875E+02  0.34567402875E+02  0.53295377777E+02  0.41800000000E+01 0.  1.
</event>
<event>
11    1  0.8551154E-009  0.1302939E+03  0.7561462E-02  0.1118908E+00
         22   -1    0    0    0    0  0.00000000000E+00  0.00000000000E+00  0.63611491981E+03  0.63611491981E+03  0.00000000000E+00 0. -1.
         22   -1    0    0    0    0 -0.00000000000E+00 -0.00000000000E+00 -0.28506490404E+03  0.28506490404E+03  0.00000000000E+00 0.  1.
        -24    2    1    2    0    0  0.36042054318E+02  0.35915019720E+01 -0.21986831360E+03  0.23662305865E+03  0.79601934601E+02 0.  0.
         25    2    1    2    0    0 -0.39275810784E+02  0.56275218990E+01  0.25387469941E+02  0.13366596996E+03  0.12509120505E+03 0.  0.
         24    2    1    2    0    0  0.32337564656E+01 -0.92190238710E+01  0.54553085942E+03  0.55089079524E+03  0.76034874342E+02 0.  0.
        -11    1    5    5    0    0  0.25295467719E+02  0.24638541285E+02  0.21200011492E+03  0.21492083922E+03  0.00000000000E+00 0.  1.
         12    1    5    5    0    0 -0.22061711253E+02 -0.33857565156E+02  0.33353074451E+03  0.33596995603E+03  0.00000000000E+00 0. -1.
         11    1    3    3    0    0 -0.12418702480E+02  0.29839810319E+02 -0.78760489096E+02  0.85134323829E+02  0.00000000000E+00 0. -1.
        -12    1    3    3    0    0  0.48460756798E+02 -0.26248308347E+02 -0.14110782450E+03  0.15148873482E+03  0.00000000000E+00 0.  1.
          5    1    4    4  501    0 -0.41681599692E+02 -0.52019138385E+02  0.34387429538E+02  0.75121995590E+02  0.41800000000E+01 0.  1.
         -5    1    4    4    0  501  0.24057889082E+01  0.57646660284E+02 -0.89999595972E+01  0.58543974369E+02  0.41800000000E+01 0.  1.
</event>
<event>
11    1  0.8551154E-009  0.1400403E+03  0.7561462E-02  0.1107513E+00
         22   -1    0    0    0    0  0.00000000000E+00  0.00000000000E+00  0.26639850010E+03  0.26639850010E+03  0.00000000000E+00 0. -1.
         22   -1    0    0    0    0 -0.00000000000E+00 -0.00000000000E+00 -0.10075032996E+04  0.10075032996E+04  0.00000000000E+00 0.  1.
         24    2    1    2    0    0  0.47660898641E+02 -0.39690833332E+02 -0.91463594367E+03  0.92021027090E+03  0.79881848337E+02 0.  0.
         25    2    1    2    0    0 -0.42052852659E+02  0.89280323588E+02  0.56130838500E+00  0.15933197141E+03  0.12508774301E+03 0.  0.
        -24    2    1    2    0    0 -0.56080459822E+01 -0.49589490256E+02  0.17296983580E+03  0.19435955738E+03  0.73256438127E+02 0.  0.
        -11    1    3    3    0    0  0.52375952995E+01 -0.18384245581E+02 -0.70529267752E+03  0.70555168050E+03  0.00000000000E+00 0.  1.
         12    1    3    3    0    0  0.42423303341E+02 -0.21306587751E+02 -0.20934326615E+03  0.21465859040E+03  0.00000000000E+00 0. -1.
         11    1    5    5    0    0  0.13194901995E+02  0.34274698772E-01  0.11505423257E+03  0.11580838936E+03  0.00000000000E+00 0. -1.
        -12    1    5    5    0    0 -0.18802947977E+02 -0.49623764955E+02  0.57915603225E+02  0.78551168023E+02  0.00000000000E+00 0.  1.
          5    1    4    4  501    0 -0.41909614675E+02  0.10205105303E+03  0.40188707458E+02  0.11748803272E+03  0.41800000000E+01 0. -1.
         -5    1    4    4    0  501 -0.14323798417E+00 -0.12770729440E+02 -0.39627399073E+02  0.41843938687E+02  0.41800000000E+01 0. -1.
</event>
<event>
11    1  0.8551154E-009  0.5424813E+03  0.7561462E-02  0.9303304E-01
         22   -1    0    0    0    0  0.00000000000E+00  0.00000000000E+00  0.88308868540E+03  0.88308868540E+03  0.00000000000E+00 0.  1.
         22   -1    0    0    0    0 -0.00000000000E+00 -0.00000000000E+00 -0.66289755645E+03  0.66289755645E+03  0.00000000000E+00 0.  1.
        -24    2    1    2    0    0 -0.15982915332E+03  0.11083070175E+03 -0.23070024454E+03  0.31137773376E+03  0.76841964792E+02 0.  0.
         25    2    1    2    0    0  0.60394092560E+03  0.10041034885E+03  0.11929913727E+03  0.63616574229E+03  0.12509071805E+03 0.  0.
         24    2    1    2    0    0 -0.44411177228E+03 -0.21124105059E+03  0.33159223621E+03  0.59844276580E+03  0.79512798235E+02 0.  0.
        -13    1    5    5    0    0 -0.42406907929E+03 -0.20739258317E+03  0.33343771282E+03  0.57795066908E+03  0.00000000000E+00 0.  1.
         14    1    5    5    0    0 -0.20042692994E+02 -0.38484674232E+01 -0.18454766035E+01  0.20492096717E+02  0.00000000000E+00 0. -1.
         13    1    3    3    0    0 -0.85933863874E+02  0.33496717752E+02 -0.15490043528E+03  0.18027979341E+03  0.00000000000E+00 0. -1.
        -14    1    3    3    0    0 -0.73895289443E+02  0.77333983993E+02 -0.75799809261E+02  0.13109794036E+03  0.00000000000E+00 0.  1.
          5    1    4    4  501    0  0.20441078875E+03 -0.39183999337E+01 -0.61479499752E+01  0.20458346489E+03  0.41800000000E+01 0. -1.
         -5    1    4    4    0  501  0.39953013684E+03  0.10432874878E+03  0.12544708724E+03  0.43158227740E+03  0.41800000000E+01 0. -1.
</event>
<event>
11    1  0.8551154E-009  0.1430664E+03  0.7561462E-02  0.1104182E+00
         22   -1    0    0    0    0  0.00000000000E+00  0.00000000000E+00  0.80253091856E+03  0.80253091856E+03  0.00000000000E+00 0.  1.
         22   -1    0    0    0    0 -0.00000000000E+00 -0.00000000000E+00 -0.23009022477E+03  0.23009022477E+03  0.00000000000E+00 0. -1.
        -24    2    1    2    0    0  0.65731514963E+02 -0.24904260169E+02 -0.19825699499E+03  0.22641712017E+03  0.83773635538E+02 0.  0.
         25    2    1    2    0    0 -0.49257081597E+02  0.96049287679E+01  0.31201306657E+03  0.33987964497E+03  0.12508998606E+03 0.  0.
         24    2    1    2    0    0 -0.16474433366E+02  0.15299331401E+02  0.45868462221E+03  0.46632437818E+03  0.81002262553E+02 0.  0.
        -13    1    5    5    0    0 -0.25862491090E+02  0.38359773104E+02  0.39873580879E+03  0.40141074456E+03  0.00000000000E+00 0.  1.
         14    1    5    5    0    0  0.93880577242E+01 -0.23060441702E+02  0.59948813420E+02  0.64913633621E+02  0.00000000000E+00 0. -1.
         11    1    3    3    0    0  0.23475459917E+02 -0.44134876773E+02 -0.15536840085E+03  0.16321251345E+03  0.00000000000E+00 0. -1.
        -12    1    3    3    0    0  0.42256055045E+02  0.19230616604E+02 -0.42888594141E+02  0.63204606717E+02  0.00000000000E+00 0.  1.
          5    1    4    4  501    0 -0.46617466531E+02  0.63999763417E+02  0.16537932966E+03  0.18340379762E+03  0.41800000000E+01 0. -1.
         -5    1    4    4    0  501 -0.26396150656E+01 -0.54394834649E+02  0.14663373691E+03  0.15647584735E+03  0.41800000000E+01 0. -1.
</event>
<event>
11    1  0.8551154E-009  0.1435231E+03  0.7561462E-02  0.1103687E+00
         22   -1    0    0    0    0  0.00000000000E+00  0.00000000000E+00  0.41967274684E+03  0.41967274684E+03  0.00000000000E+00 0. -1.
         22   -1    0    0    0    0 -0.00000000000E+00 -0.00000000000E+00 -0.97587585814E+03  0.97587585814E+03  0.00000000000E+00 0. -1.
        -24    2    1    2    0    0 -0.71483867605E+01  0.56404005042E+01 -0.89898269541E+03  0.90248564458E+03  0.78914754456E+02 0.  0.
         25    2    1    2    0    0 -0.32234826974E+02  0.53827541692E+02  0.64641647328E+01  0.14009078531E+03  0.12508858616E+03 0.  0.
         24    2    1    2    0    0  0.39383213735E+02 -0.59467942196E+02  0.33631541938E+03  0.35297217509E+03  0.79961374405E+02 0.  0.
        -13    1    5    5    0    0  0.45801727992E+02 -0.38192735943E+02  0.10630104928E+03  0.12188681817E+03  0.00000000000E+00 0.  1.
         14    1    5    5    0    0 -0.64185142577E+01 -0.21275206253E+02  0.23001437010E+03  0.23108535691E+03  0.00000000000E+00 0. -1.
         11    1    3    3    0    0 -0.38113527261E+02  0.87382753878E+01 -0.27952291965E+03  0.28224468290E+03  0.00000000000E+00 0. -1.
        -12    1    3    3    0    0  0.30965140501E+02 -0.30978748836E+01 -0.61945977577E+03  0.62024096168E+03  0.00000000000E+00 0.  1.
          5    1    4    4  501    0 -0.78659957793E+02  0.17353286700E+02  0.11843805667E+01  0.80668461474E+02  0.41800000000E+01 0. -1.
         -5    1    4    4    0  501  0.46425130819E+02  0.36474254992E+02  0.52797841660E+01  0.59422323832E+02  0.41800000000E+01 0. -1.
</event>
<event>
11    1  0.8551154E-009  0.1582911E+03  0.7561462E-02  0.1088696E+00
         22   -1    0    0    0    0  0.00000000000E+00  0.00000000000E+00  0.12983257126E+04  0.12983257126E+04  0.00000000000E+00 0.  1.
         22   -1    0    0    0    0 -0.00000000000E+00 -0.00000000000E+00 -0.17395686730E+03  0.17395686730E+03  0.00000000000E+00 0.  1.
        -24    2    1    2    0    0 -0.20790440519E+01  0.97083757154E+01 -0.10594925566E+03  0.13458176468E+03  0.82391939092E+02 0.  0.
         25    2    1    2    0    0 -0.30214796660E+02 -0.10059621944E+03  0.82435360886E+02  0.18296514275E+03  0.12509245155E+03 0.  0.
         24    2    1    2    0    0  0.32293840712E+02  0.90887843721E+02  0.11478827401E+04  0.11547356725E+04  0.80474815990E+02 0.  0.
        -13    1    5    5    0    0  0.24747966318E+02  0.96268907639E+02  0.72842862901E+03  0.73517918359E+03  0.00000000000E+00 0.  1.
         14    1    5    5    0    0  0.75458743935E+01 -0.53810639179E+01  0.41945411107E+03  0.41955648888E+03  0.00000000000E+00 0. -1.
         13    1    3    3    0    0  0.38987746925E+02  0.12163715359E+02 -0.42336719967E+02  0.58825149717E+02  0.00000000000E+00 0. -1.
        -14    1    3    3    0    0 -0.41066790977E+02 -0.24553396435E+01 -0.63612535692E+02  0.75756614966E+02  0.00000000000E+00 0.  1.
          5    1    4    4  501    0 -0.75989424797E+02 -0.74778328827E+02  0.35687744902E+02  0.11250457182E+03  0.41800000000E+01 0. -1.
         -5    1    4    4    0  501  0.45774628137E+02 -0.25817890609E+02  0.46747615984E+02  0.70460570937E+02  0.41800000000E+01 0. -1.
</event>
<event>
11    1  0.8551154E-009  0.1578213E+03  0.7561462E-02  0.1089145E+00
         22   -1    0    0    0    0  0.00000000000E+00  0.00000000000E+00  0.11555947991E+03  0.11555947991E+03  0.00000000000E+00 0. -1.
         22   -1    0    0    0    0 -0.00000000000E+00 -0.00000000000E+00 -0.22416713817E+04  0.22416713817E+04  0.00000000000E+00 0. -1.
         24    2    1    2    0    0 -0.44635854489E+00  0.13808809708E+02 -0.17207846232E+04  0.17226831650E+04  0.79666084326E+02 0.  0.
         25    2    1    2    0    0 -0.47420039140E+02 -0.96291321748E+02 -0.46757610059E+03  0.49577774453E+03  0.12508990117E+03 0.  0.
        -24    2    1    2    0    0  0.47866397685E+02  0.82482512040E+02  0.62248821963E+02  0.13876995214E+03  0.79294558201E+02 0.  0.
        -13    1    3    3    0    0  0.21149922225E+02  0.12656536501E+02 -0.17295221471E+03  0.17469967287E+03  0.00000000000E+00 0.  1.
         14    1    3    3    0    0 -0.21596280770E+02  0.11522732070E+01 -0.15478324085E+04  0.15479834921E+04  0.00000000000E+00 0. -1.
         13    1    5    5    0    0  0.11967363562E+02  0.79343581370E+02  0.64078880720E+02  0.10268750971E+03  0.00000000000E+00 0. -1.
        -14    1    5    5    0    0  0.35899034123E+02  0.31389306702E+01 -0.18300587565E+01  0.36082442431E+02  0.00000000000E+00 0.  1.
          5    1    4    4  501    0 -0.77385969104E+02 -0.92986119945E+02 -0.43352380603E+03  0.45010595365E+03  0.41800000000E+01 0.  1.
         -5    1    4    4    0  501  0.29965929964E+02 -0.33052018029E+01 -0.34052294563E+02  0.45671790884E+02  0.41800000000E+01 0.  1.
</event>
<event>
11    1  0.8551154E-009  0.2268174E+03  0.7561462E-02  0.1037029E+00
         22   -1    0    0    0    0  0.00000000000E+00  0.00000000000E+00  0.10398538374E+03  0.10398538374E+03  0.00000000000E+00 0.  1.
         22   -1    0    0    0    0 -0.00000000000E+00 -0.00000000000E+00 -0.16456900254E+04  0.16456900254E+04  0.00000000000E+00 0.  1.
         24    2    1    2    0    0  0.13126612905E+03  0.83049582909E+02 -0.68787347637E+03  0.70981383150E+03  0.80856205957E+02 0.  0.
         25    2    1    2    0    0  0.16801751480E+02 -0.20987154871E+03 -0.77862972657E+03  0.81623531177E+03  0.12508983678E+03 0.  0.
        -24    2    1    2    0    0 -0.14806788053E+03  0.12682196580E+03 -0.75201438697E+02  0.22362626585E+03  0.79658911263E+02 0.  0.
        -11    1    3    3    0    0  0.12302512745E+03  0.98100293545E+02 -0.60061734546E+03  0.62088649949E+03  0.00000000000E+00 0.  1.
         12    1    3    3    0    0  0.82410016007E+01 -0.15050710636E+02 -0.87256130910E+02  0.88927332015E+02  0.00000000000E+00 0. -1.
         13    1    5    5    0    0 -0.23184818751E+02 -0.10059610355E+02 -0.10445762241E+02  0.27346764522E+02  0.00000000000E+00 0. -1.
        -14    1    5    5    0    0 -0.12488306178E+03  0.13688157615E+03 -0.64755676456E+02  0.19627950133E+03  0.00000000000E+00 0.  1.
          5    1    4    4  501    0  0.39152056684E+02 -0.13968493692E+03 -0.31566190603E+03  0.34742578554E+03  0.41800000000E+01 0. -1.
         -5    1    4    4    0  501 -0.22350305204E+02 -0.70186611786E+02 -0.46296782055E+03  0.46880952622E+03  0.41800000000E+01 0. -1.
</event>
<event>
11    1  0.8551154E-009  0.1550239E+03  0.7561462E-02  0.1091853E+00
         22   -1    0    0    0    0  0.00000000000E+00  0.00000000000E+00  0.23582578340E+03  0.23582578340E+03  0.00000000000E+00 0. -1.
         22   -1    0    0    0    0 -0.00000000000E+00 -0.00000000000E+00 -0.30830434337E+03  0.30830434337E+03  0.00000000000E+00 0.  1.
         24    2    1    2    0    0  0.27240659608E+02 -0.25282638604E+02 -0.11933731259E+03  0.14892156604E+03  0.80962789646E+02 0.  0.
         25    2    1    2    0    0  0.15812451780E+02  0.10461954455E+03 -0.10768580169E+03  0.19606127087E+03  0.12509399393E+03 0.  0.
        -24    2    1    2    0    0 -0.43053111388E+02 -0.79336905941E+02  0.15454455430E+03  0.19914728986E+03  0.87336754862E+02 0.  0.
        -11    1    3    3    0    0  0.45647677184E+02 -0.88643788841E+01 -0.27927243068E+02  0.54242221108E+02  0.00000000000E+00 0.  1.
         12    1    3    3    0    0 -0.18407017577E+02 -0.16418259720E+02 -0.91410069518E+02  0.94679344936E+02  0.00000000000E+00 0. -1.
         11    1    5    5    0    0  0.24520827460E+02 -0.34784418691E+02  0.71333373065E+02  0.83064293628E+02  0.00000000000E+00 0. -1.
        -12    1    5    5    0    0 -0.67573938848E+02 -0.44552487250E+02  0.83211181234E+02  0.11608299623E+03  0.00000000000E+00 0.  1.
          5    1    4    4  501    0 -0.46877329144E+02  0.13257527117E+02 -0.13889260379E+02  0.50829420289E+02  0.41800000000E+01 0. -1.
         -5    1    4    4    0  501  0.62689780925E+02  0.91362017428E+02 -0.93796541308E+02  0.14523185058E+03  0.41800000000E+01 0. -1.
</event>
<event>
11    1  0.8551154E-009  0.1308167E+03  0.7561462E-02  0.1118270E+00
         22   -1    0    0    0    0  0.00000000000E+00  0.00000000000E+00  0.53182601043E+03  0.53182601043E+03  0.00000000000E+00 0.  1.
         22   -1    0    0    0    0 -0.00000000000E+00 -0.00000000000E+00 -0.85013043736E+03  0.85013043736E+03  0.00000000000E+00 0.  1.
        -24    2    1    2    0    0  0.63418419839E+01  0.37562979030E+02 -0.82036868210E+03  0.82510798365E+03  0.79669402985E+02 0.  0.
         25    2    1    2    0    0 -0.43496477628E+01 -0.53082794082E+02  0.18505231322E+03  0.22963001083E+03  0.12509548666E+03 0.  0.
         24    2    1    2    0    0 -0.19921942211E+01  0.15519815053E+02  0.31701194194E+03  0.32721845331E+03  0.79564510628E+02 0.  0.
        -11    1    5    5    0    0  0.21999786301E+02  0.40722397979E+02  0.18310843221E+03  0.18886768448E+03  0.00000000000E+00 0.  1.
         12    1    5    5    0    0 -0.23991980522E+02 -0.25202582926E+02  0.13390350973E+03  0.13835076882E+03  0.00000000000E+00 0. -1.
         13    1    3    3    0    0 -0.21671343518E+02 -0.15257218015E+02 -0.17791598056E+03  0.17987919827E+03  0.00000000000E+00 0. -1.
        -14    1    3    3    0    0  0.28013185502E+02  0.52820197045E+02 -0.64245270153E+03  0.64522878538E+03  0.00000000000E+00 0.  1.
          5    1    4    4  501    0 -0.25194493520E+02 -0.82546705888E+02  0.16920559420E+03  0.18999138576E+03  0.41800000000E+01 0. -1.
         -5    1    4    4    0  501  0.20844845757E+02  0.29463911805E+02  0.15846719028E+02  0.39638625070E+02  0.41800000000E+01 0. -1.
</event>
<event>
11    1  0.8551154E-009  0.3453712E+03  0.7561462E-02  0.9826297E-01
         22   -1    0    0    0    0  0.00000000000E+00  0.00000000000E+00  0.73525868946E+03  0.73525868946E+03  0.00000000000E+00 0. -1.
         22   -1    0    0    0    0 -0.00000000000E+00 -0.00000000000E+00 -0.37158786135E+03  0.37158786135E+03  0.00000000000E+00 0.  1.
        -24    2    1    2    0    0 -0.21426442029E+03  0.24043208743E+03 -0.20696637106E+03  0.39145092403E+03  0.81742991771E+02 0.  0.
         25    2    1    2    0    0  0.24034772142E+03 -0.21564504299E+03  0.43893902947E+03  0.55909383375E+03  0.12509449063E+03 0.  0.
         24    2    1    2    0    0 -0.26083301132E+02 -0.24787044443E+02  0.13169816970E+03  0.15630179303E+03  0.76099319520E+02 0.  0.
        -11    1    5    5    0    0 -0.68517496395E+01 -0.48421609815E+02  0.10483575579E+03  0.11568117592E+03  0.00000000000E+00 0.  1.
         12    1    5    5    0    0 -0.19231551493E+02  0.23634565373E+02  0.26862413909E+02  0.40620617108E+02  0.00000000000E+00 0. -1.
         13    1    3    3    0    0 -0.13043797382E+03  0.14635329592E+03 -0.77555669171E+02  0.21082749835E+03  0.00000000000E+00 0. -1.
        -14    1    3    3    0    0 -0.83826446475E+02  0.94078791516E+02 -0.12941070189E+03  0.18062342568E+03  0.00000000000E+00 0.  1.
          5    1    4    4  501    0  0.59929210332E+02  0.37111664058E+01  0.55252935632E+02  0.81704603928E+02  0.41800000000E+01 0. -1.
         -5    1    4    4    0  501  0.18041851109E+03 -0.21935620940E+03  0.38368609384E+03  0.47738922982E+03  0.41800000000E+01 0. -1.
</event>
<event>
11    1  0.2157890E-008  0.1924842E+03  0.7561462E-02  0.1059969E+00
         22   -1    0    0    0    0  0.00000000000E+00  0.00000000000E+00  0.19142876030E+04  0.19142876030E+04  0.00000000000E+00 0.  1.
         22   -1    0    0    0    0 -0.00000000000E+00 -0.00000000000E+00 -0.28306343552E+03  0.28306343552E+03  0.00000000000E+00 0.  1.
         24    2    1    2    0    0 -0.59073228185E+02  0.78844924794E+01 -0.18290872710E+03  0.20976922104E+03  0.83640373837E+02 0.  0.
         25    2    1    2    0    0  0.20235771908E+03 -0.17435786073E+02  0.89011598535E+02  0.25460431188E+03  0.12509051863E+03 0.  0.
        -24    2    1    2    0    0 -0.14328449089E+03  0.95512935936E+01  0.17251212960E+04  0.17329775056E+04  0.80906589786E+02 0.  0.
        -13    1    3    3    0    0  0.74139114064E+01 -0.29510545114E+01 -0.11081081788E+03  0.11109775949E+03  0.00000000000E+00 0.  1.
         14    1    3    3    0    0 -0.66487139591E+02  0.10835546991E+02 -0.72097909221E+02  0.98671461546E+02  0.00000000000E+00 0. -1.
         11    1    5    5    0    0 -0.59049032789E+02  0.48192780635E+01  0.32775499101E+03  0.33306658170E+03  0.00000000000E+00 0. -1.
        -12    1    5    5    0    0 -0.84235458101E+02  0.47320155301E+01  0.13973663050E+04  0.13999109239E+04  0.00000000000E+00 0.  1.
          5    1    4    4  501    0  0.75392033510E+02  0.16080579770E+02 -0.24482055699E+02  0.80990043917E+02  0.41800000000E+01 0. -1.
         -5    1    4    4    0  501  0.12696568557E+03 -0.33516365843E+02  0.11349365423E+03  0.17361426797E+03  0.41800000000E+01 0. -1.
</event>
<event>
11    1  0.8551154E-009  0.1317753E+03  0.7561462E-02  0.1117107E+00
         22   -1    0    0    0    0  0.00000000000E+00  0.00000000000E+00  0.16422814090E+04  0.16422814090E+04  0.00000000000E+00 0. -1.
         22   -1    0    0    0    0 -0.00000000000E+00 -0.00000000000E+00 -0.65746268770E+03  0.65746268770E+03  0.00000000000E+00 0.  1.
        -24    2    1    2    0    0  0.27146711005E+02 -0.31121333965E+02 -0.53292042011E+03  0.54057129524E+03  0.80670129070E+02 0.  0.
         25    2    1    2    0    0 -0.52672123670E+02 -0.16244794357E+01 -0.80842836494E+02  0.15798823268E+03  0.12509087060E+03 0.  0.
         24    2    1    2    0    0  0.25525412665E+02  0.32745813401E+02  0.15985819779E+04  0.16011845688E+04  0.81264065019E+02 0.  0.
        -13    1    5    5    0    0  0.55687277318E+01 -0.20921198653E+01  0.12885518764E+04  0.12885656079E+04  0.00000000000E+00 0.  1.
         14    1    5    5    0    0  0.19956684934E+02  0.34837933266E+02  0.31003010150E+03  0.31261896088E+03  0.00000000000E+00 0. -1.
         13    1    3    3    0    0  0.33376135663E+02  0.76696914266E+01 -0.41216750614E+03  0.41358777027E+03  0.00000000000E+00 0. -1.
        -14    1    3    3    0    0 -0.62294246589E+01 -0.38791025392E+02 -0.12075291397E+03  0.12698352497E+03  0.00000000000E+00 0.  1.
          5    1    4    4  501    0  0.91239291725E+01 -0.40832572231E+02 -0.73028827964E+02  0.84268779227E+02  0.41800000000E+01 0. -1.
         -5    1    4    4    0  501 -0.61796052842E+02  0.39208092795E+02 -0.78140085302E+01  0.73719453449E+02  0.41800000000E+01 0. -1.
</event>
<event>
11    1  0.8551154E-009  0.1812180E+03  0.7561462E-02  0.1068662E+00
         22   -1    0    0    0    0  0.00000000000E+00  0.00000000000E+00  0.11809552890E+04  0.11809552890E+04  0.00000000000E+00 0.  1.
         22   -1    0    0    0    0 -0.00000000000E+00 -0.00000000000E+00 -0.61711685205E+03  0.61711685205E+03  0.00000000000E+00 0. -1.
         24    2    1    2    0    0  0.43492347529E+00 -0.47259372248E+02 -0.32805814358E+03  0.34152017564E+03  0.82342257534E+02 0.  0.
         25    2    1    2    0    0 -0.12184163944E+03 -0.30868355112E+01 -0.24965018294E+03  0.30468032452E+03  0.12509985072E+03 0.  0.
        -24    2    1    2    0    0  0.12140671597E+03  0.50346207759E+02  0.11415467635E+04  0.11518716409E+04  0.80030822584E+02 0.  0.
        -13    1    3    3    0    0 -0.16731202466E+02 -0.21560269190E+01 -0.95670674582E+01  0.19393565113E+02  0.00000000000E+00 0.  1.
         14    1    3    3    0    0  0.17166125942E+02 -0.45103345329E+02 -0.31849107613E+03  0.32212661053E+03  0.00000000000E+00 0. -1.
         13    1    5    5    0    0 -0.84555243136E+01 -0.43344578723E+01  0.31051690991E+02  0.32472926106E+02  0.00000000000E+00 0. -1.
        -14    1    5    5    0    0  0.12986224028E+03  0.54680665632E+02  0.11104950725E+04  0.11193987148E+04  0.00000000000E+00 0.  1.
          5    1    4    4  501    0 -0.26456670291E+02 -0.66742192638E+01  0.89306890624E+01  0.29012587144E+02  0.41800000000E+01 0.  1.
         -5    1    4    4    0  501 -0.95384969150E+02  0.35873837525E+01 -0.25858087201E+03  0.27566773738E+03  0.41800000000E+01 0.  1.
</event>
<event>
11    1  0.8551154E-009  0.1436681E+03  0.7561462E-02  0.1103530E+00
         22   -1    0    0    0    0  0.00000000000E+00  0.00000000000E+00  0.51812348315E+02  0.51812348315E+02  0.00000000000E+00 0. -1.
         22   -1    0    0    0    0 -0.00000000000E+00 -0.00000000000E+00 -0.19437017088E+04  0.19437017088E+04  0.00000000000E+00 0. -1.
        -24    2    1    2    0    0 -0.41358275007E+02  0.61229948127E+02 -0.16151767821E+04  0.16188957535E+04  0.81042024295E+02 0.  0.
         25    2    1    2    0    0  0.41943283364E+02 -0.21309662949E+02 -0.24923936023E+03  0.28280979135E+03  0.12509108137E+03 0.  0.
         24    2    1    2    0    0 -0.58500835711E+00 -0.39920285178E+02 -0.27473218128E+02  0.93808512276E+02  0.80319909472E+02 0.  0.
        -11    1    5    5    0    0  0.29948513562E+02 -0.31475453618E+02 -0.40649403341E+02  0.59497828843E+02  0.00000000000E+00 0.  1.
         12    1    5    5    0    0 -0.30533521919E+02 -0.84448315604E+01  0.13176185213E+02  0.34310683433E+02  0.00000000000E+00 0. -1.
         11    1    3    3    0    0  0.61199099698E+01  0.55116454652E+02 -0.11308798403E+04  0.11322387072E+04  0.00000000000E+00 0. -1.
        -12    1    3    3    0    0 -0.47478184977E+02  0.61134934748E+01 -0.48429694183E+03  0.48665704631E+03  0.00000000000E+00 0.  1.
          5    1    4    4  501    0 -0.28309865711E+02 -0.46782099996E+02 -0.14029924924E+03  0.15063653313E+03  0.41800000000E+01 0.  1.
         -5    1    4    4    0  501  0.70253149075E+02  0.25472437047E+02 -0.10894011099E+03  0.13217325821E+03  0.41800000000E+01 0.  1.
</event>
<event>
11    1  0.8551154E-009  0.1971633E+03  0.7561462E-02  0.1056548E+00
         22   -1    0    0    0    0  0.00000000000E+00  0.00000000000E+00  0.19517082996E+04  0.19517082996E+04  0.00000000000E+00 0.  1.
         22   -1    0    0    0    0 -0.00000000000E+00 -0.00000000000E+00 -0.65873137912E+02  0.65873137912E+02  0.00000000000E+00 0. -1.
         24    2    1    2    0    0  0.10650233974E+03  0.63108233422E+02  0.23874869745E+03  0.28026931567E+03  0.78895825464E+02 0.  0.
         25    2    1    2    0    0 -0.10162761274E+03 -0.20772382207E+03  0.39567183977E+03  0.47505810011E+03  0.12508651311E+03 0.  0.
        -24    2    1    2    0    0 -0.48747270072E+01  0.14461558865E+03  0.12514146245E+04  0.12622540218E+04  0.79430608800E+02 0.  0.
        -13    1    3    3    0    0 -0.79780966014E+01  0.19519296264E+01  0.53205880100E+02  0.53836100638E+02  0.00000000000E+00 0.  1.
         14    1    3    3    0    0  0.11448043634E+03  0.61156303795E+02  0.18554281735E+03  0.22643321503E+03  0.00000000000E+00 0. -1.
         11    1    5    5    0    0  0.62796806922E+01  0.15826383720E+02  0.34299766558E+02  0.38293377981E+02  0.00000000000E+00 0. -1.
        -12    1    5    5    0    0 -0.11154407699E+02  0.12878920493E+03  0.12171148579E+04  0.12239606438E+04  0.00000000000E+00 0.  1.
          5    1    4    4  501    0  0.87958547419E+01  0.44108020328E+01 -0.21132097219E+01  0.10897719511E+02  0.41800000000E+01 0.  1.
         -5    1    4    4    0  501 -0.11042346748E+03 -0.21213462410E+03  0.39778504949E+03  0.46416038059E+03  0.41800000000E+01 0.  1.
</event>
<event>
11    1  0.8551154E-009  0.1335191E+03  0.7561462E-02  0.1115019E+00
         22   -1    0    0    0    0  0.00000000000E+00  0.00000000000E+00  0.12749160306E+03  0.12749160306E+03  0.00000000000E+00 0. -1.
         22   -1    0    0    0    0 -0.00000000000E+00 -0.00000000000E+00 -0.60395541819E+03  0.60395541819E+03  0.00000000000E+00 0. -1.
         24    2    1    2    0    0  0.20875669556E+02  0.58488128066E+01 -0.34490240913E+03  0.35460205293E+03  0.79466608863E+02 0.  0.
         25    2    1    2    0    0 -0.87767027476E+01  0.40190422451E+02 -0.21399122702E+03  0.25125906940E+03  0.12508626682E+03 0.  0.
        -24    2    1    2    0    0 -0.12098966809E+02 -0.46039235257E+02  0.82429821021E+02  0.12558589892E+03  0.81921587108E+02 0.  0.
        -13    1    3    3    0    0  0.32310942445E+02  0.25739990343E+02 -0.94301161707E+02  0.10295267458E+03  0.00000000000E+00 0.  1.
         14    1    3    3    0    0 -0.11435272888E+02 -0.19891177537E+02 -0.25060124743E+03  0.25164937834E+03  0.00000000000E+00 0. -1.
         11    1    5    5    0    0  0.11328641763E+02 -0.45207640012E+02  0.89663777729E+02  0.10105276778E+03  0.00000000000E+00 0. -1.
        -12    1    5    5    0    0 -0.23427608572E+02 -0.83159524515E+00 -0.72339567075E+01  0.24533131143E+02  0.00000000000E+00 0.  1.
          5    1    4    4  501    0  0.38314041157E+02 -0.92952443544E+01 -0.15781105564E+03  0.16271499316E+03  0.41800000000E+01 0. -1.
         -5    1    4    4    0  501 -0.47090743905E+02  0.49485666805E+02 -0.56180171383E+02  0.88544076240E+02  0.41800000000E+01 0. -1.
</event>
<event>
11    1  0.8551154E-009  0.1454595E+03  0.7561462E-02  0.1101611E+00
         22   -1    0    0    0    0  0.00000000000E+00  0.00000000000E+00  0.27686243030E+03  0.27686243030E+03  0.00000000000E+00 0. -1.
         22   -1    0    0    0    0 -0.00000000000E+00 -0.00000000000E+00 -0.47584920366E+03  0.47584920366E+03  0.00000000000E+00 0.  1.
         24    2    1    2    0    0 -0.11088359372E+01 -0.70045122708E+02 -0.31872462557E+03  0.33610991208E+03  0.80479421745E+02 0.  0.
         25    2    1    2    0    0 -0.84417460815E+01  0.95529050503E+02 -0.95982591248E+02  0.18454909273E+03  0.12509455319E+03 0.  0.
        -24    2    1    2    0    0  0.95505820187E+01 -0.25483927795E+02  0.21572044347E+03  0.23205262914E+03  0.81070763971E+02 0.  0.
        -11    1    3    3    0    0  0.32431946630E+02 -0.65119690060E+02 -0.22208695634E+03  0.23369856947E+03  0.00000000000E+00 0.  1.
         12    1    3    3    0    0 -0.33540782567E+02 -0.49254326472E+01 -0.96637669233E+02  0.10241134262E+03  0.00000000000E+00 0. -1.
         13    1    5    5    0    0 -0.11499120829E+02 -0.39802641777E+02  0.19463736879E+03  0.19899795326E+03  0.00000000000E+00 0. -1.
        -14    1    5    5    0    0  0.21049702848E+02  0.14318713982E+02  0.21083074680E+02  0.33054675888E+02  0.00000000000E+00 0.  1.
          5    1    4    4  501    0 -0.26036882916E+02  0.60259762472E+02 -0.12096845402E+03  0.13769530679E+03  0.41800000000E+01 0.  1.
         -5    1    4    4    0  501  0.17595136834E+02  0.35269288031E+02  0.24985862771E+02  0.46853785939E+02  0.41800000000E+01 0.  1.
</event>
<event>
11    1  0.8551154E-009  0.1334146E+03  0.7561462E-02  0.1115143E+00
         22   -1    0    0    0    0  0.00000000000E+00  0.00000000000E+00  0.29292898208E+04  0.29292898208E+04  0.00000000000E+00 0.  1.
         22   -1    0    0    0    0 -0.00000000000E+00 -0.00000000000E+00 -0.39877472449E+02  0.39877472449E+02  0.00000000000E+00 0. -1.
         24    2    1    2    0    0  0.55560043525E+01 -0.20954541782E+01  0.14262278444E+02  0.81799516332E+02  0.80327381216E+02 0.  0.
         25    2    1    2    0    0  0.37517830100E+02 -0.17848070611E+02  0.86273196797E+03  0.87274244388E+03  0.12508710397E+03 0.  0.
        -24    2    1    2    0    0 -0.43073834452E+02  0.19943524790E+02  0.20124181019E+04  0.20146253331E+04  0.81458677532E+02 0.  0.
        -13    1    3    3    0    0 -0.17994510491E+01 -0.20851016002E+02  0.42346899499E+02  0.47236244448E+02  0.00000000000E+00 0.  1.
         14    1    3    3    0    0  0.73554554016E+01  0.18755561824E+02 -0.28084621055E+02  0.34563271884E+02  0.00000000000E+00 0. -1.
         13    1    5    5    0    0 -0.52367647465E+02  0.50081909741E+01  0.66013058439E+03  0.66222340711E+03  0.00000000000E+00 0. -1.
        -14    1    5    5    0    0  0.92938130131E+01  0.14935333815E+02  0.13522875176E+04  0.13524019259E+04  0.00000000000E+00 0.  1.
          5    1    4    4  501    0  0.13470070197E+02 -0.16097784245E+01  0.82421795423E+03  0.82434018624E+03  0.41800000000E+01 0.  1.
         -5    1    4    4    0  501  0.24047759903E+02 -0.16238292187E+02  0.38514013747E+02  0.48402257637E+02  0.41800000000E+01 0.  1.
</event>
<event>
11    1  0.8551154E-009  0.1504912E+03  0.7561462E-02  0.1096378E+00
         22   -1    0    0    0    0  0.00000000000E+00  0.00000000000E+00  0.85048703814E+03  0.85048703814E+03  0.00000000000E+00 0. -1.
         22   -1    0    0    0    0 -0.00000000000E+00 -0.00000000000E+00 -0.81486157626E+02  0.81486157626E+02  0.00000000000E+00 0. -1.
        -24    2    1    2    0    0  0.24708520960E+02 -0.35611812470E+01 -0.19113481959E+02  0.86430357751E+02  0.80508934463E+02 0.  0.
         25    2    1    2    0    0 -0.95992637657E+02  0.36358359376E+02  0.26858157791E+03  0.31355929465E+03  0.12508737140E+03 0.  0.
         24    2    1    2    0    0  0.71284116697E+02 -0.32797178129E+02  0.51953278456E+03  0.53198354337E+03  0.83277223740E+02 0.  0.
        -11    1    5    5    0    0  0.17908386799E+02  0.22865669575E+02  0.68464662606E+02  0.74370418774E+02  0.00000000000E+00 0.  1.
         12    1    5    5    0    0  0.53375729898E+02 -0.55662847704E+02  0.45106812196E+03  0.45761312460E+03  0.00000000000E+00 0. -1.
         11    1    3    3    0    0  0.37923379562E+02 -0.32200095702E+02 -0.22704782509E+02  0.54685793671E+02  0.00000000000E+00 0. -1.
        -12    1    3    3    0    0 -0.13214858601E+02  0.28638914455E+02  0.35913005500E+01  0.31744564080E+02  0.00000000000E+00 0.  1.
          5    1    4    4  501    0 -0.12333840175E+03  0.33969747778E+02  0.24769998085E+03  0.27881724843E+03  0.41800000000E+01 0.  1.
         -5    1    4    4    0  501  0.27345764094E+02  0.23886115975E+01  0.20881597062E+02  0.34742046214E+02  0.41800000000E+01 0.  1.
</event>
<event>
11    1  0.8551154E-009  0.1590785E+03  0.7561462E-02  0.1087947E+00
         22   -1    0    0    0    0  0.00000000000E+00  0.00000000000E+00  0.12729938067E+04  0.12729938067E+04  0.00000000000E+00 0.  1.
         22   -1    0    0    0    0 -0.00000000000E+00 -0.00000000000E+00 -0.25212219159E+03  0.25212219159E+03  0.00000000000E+00 0.  1.
        -24    2    1    2    0    0  0.96933730020E+02  0.44812837189E+02 -0.19903433555E+03  0.23847663392E+03  0.76499018332E+02 0.  0.
         25    2    1    2    0    0 -0.12936078933E+02 -0.49181357104E+02  0.12026299596E+03  0.18082277887E+03  0.12509013206E+03 0.  0.
         24    2    1    2    0    0 -0.83997651087E+02  0.43685199150E+01  0.10996429547E+04  0.11058165856E+04  0.80876471259E+02 0.  0.
        -11    1    5    5    0    0 -0.87818408659E+02  0.16671477137E+02  0.66474965180E+03  0.67073251794E+03  0.00000000000E+00 0.  1.
         12    1    5    5    0    0  0.38207575721E+01 -0.12302957222E+02  0.43489330294E+03  0.43508406761E+03  0.00000000000E+00 0. -1.
         11    1    3    3    0    0  0.46197070910E+02  0.31173378887E+02 -0.34005008778E+02  0.65286212433E+02  0.00000000000E+00 0. -1.
        -12    1    3    3    0    0  0.50736659110E+02  0.13639458302E+02 -0.16502932677E+03  0.17319042148E+03  0.00000000000E+00 0.  1.
          5    1    4    4  501    0 -0.27819096966E+01 -0.39978201510E+02 -0.16333439521E+02  0.43476996954E+02  0.41800000000E+01 0. -1.
         -5    1    4    4    0  501 -0.10154169236E+02 -0.92031555941E+01  0.13659643548E+03  0.13734578192E+03  0.41800000000E+01 0. -1.
</event>
<event>
11    1  0.8551154E-009  0.1403676E+03  0.7561462E-02  0.1107149E+00
         22   -1    0    0    0    0  0.00000000000E+00  0.00000000000E+00  0.67242467412E+03  0.67242467412E+03  0.00000000000E+00 0.  1.
         22   -1    0    0    0    0 -0.00000000000E+00 -0.00000000000E+00 -0.14482485673E+03  0.14482485673E+03  0.00000000000E+00 0. -1.
         24    2    1    2    0    0  0.62326930758E+01  0.68366894190E+02 -0.82391857035E+02  0.13419183127E+03  0.80660714049E+02 0.  0.
         25    2    1    2    0    0 -0.13783465816E+01 -0.38760453208E+02  0.96923856958E+02  0.16293166642E+03  0.12509285072E+03 0.  0.
        -24    2    1    2    0    0 -0.48543464942E+01 -0.29606440982E+02  0.51306781747E+03  0.52012603316E+03  0.79952479792E+02 0.  0.
        -13    1    3    3    0    0  0.30144753450E+02 -0.28941258045E+01 -0.18094488715E+02  0.35277367342E+02  0.00000000000E+00 0.  1.
         14    1    3    3    0    0 -0.23912060375E+02  0.71261019995E+02 -0.64297368320E+02  0.98914463932E+02  0.00000000000E+00 0. -1.
         13    1    5    5    0    0  0.10775877830E+02 -0.35921907894E+02  0.10140004863E+03  0.10811324096E+03  0.00000000000E+00 0. -1.
        -14    1    5    5    0    0 -0.15630224325E+02  0.63154669116E+01  0.41166776884E+03  0.41201279220E+03  0.00000000000E+00 0.  1.
          5    1    4    4  501    0 -0.23905805706E+02 -0.44976213328E+02  0.11962503970E+03  0.13008447192E+03  0.41800000000E+01 0. -1.
         -5    1    4    4    0  501  0.22527459124E+02  0.62157601205E+01 -0.22701182741E+02  0.32847194497E+02  0.41800000000E+01 0. -1.
</event>
<event>
11    1  0.8551154E-009  0.1414369E+03  0.7561462E-02  0.1105964E+00
         22   -1    0    0    0    0  0.00000000000E+00  0.00000000000E+00  0.12870856012E+04  0.12870856012E+04  0.00000000000E+00 0. -1.
         22   -1    0    0    0    0 -0.00000000000E+00 -0.00000000000E+00 -0.28778316069E+03  0.28778316069E+03  0.00000000000E+00 0. -1.
         24    2    1    2    0    0  0.57611835048E+02 -0.33139743891E+02 -0.26204373493E+03  0.28195238509E+03  0.80080348889E+02 0.  0.
         25    2    1    2    0    0 -0.61978454645E+02 -0.91047936356E+01  0.34782332457E+03  0.37490346838E+03  0.12508924568E+03 0.  0.
        -24    2    1    2    0    0  0.43666195978E+01  0.42244537527E+02  0.91352285085E+03  0.91801290840E+03  0.80125106292E+02 0.  0.
        -11    1    3    3    0    0  0.21321497018E+02 -0.24647160883E+02 -0.22681078926E+02  0.39705416707E+02  0.00000000000E+00 0.  1.
         12    1    3    3    0    0  0.36290338029E+02 -0.84925830084E+01 -0.23936265600E+03  0.24224696838E+03  0.00000000000E+00 0. -1.
         11    1    5    5    0    0 -0.31912184244E+02  0.43597261198E+02  0.50607676061E+03  0.50895264644E+03  0.00000000000E+00 0. -1.
        -12    1    5    5    0    0  0.36278803842E+02 -0.13527236709E+01  0.40744609024E+03  0.40906026197E+03  0.00000000000E+00 0.  1.
          5    1    4    4  501    0 -0.58973695781E+02  0.20854992422E+02  0.64476477777E+02  0.89930618198E+02  0.41800000000E+01 0. -1.
         -5    1    4    4    0  501 -0.30047588645E+01 -0.29959786057E+02  0.28334684679E+03  0.28497285019E+03  0.41800000000E+01 0. -1.
</event>
<event>
11    1  0.8551154E-009  0.1557971E+03  0.7561462E-02  0.1091098E+00
         22   -1    0    0    0    0  0.00000000000E+00  0.00000000000E+00  0.28288215952E+03  0.28288215952E+03  0.00000000000E+00 0.  1.
         22   -1    0    0    0    0 -0.00000000000E+00 -0.00000000000E+00 -0.52329721253E+03  0.52329721253E+03  0.00000000000E+00 0. -1.
        -24    2    1    2    0    0 -0.53254673198E+02  0.65545507350E+02 -0.25021754215E+03  0.27616283222E+03  0.80776343991E+02 0.  0.
         25    2    1    2    0    0  0.57991373591E+02 -0.95140736451E+02 -0.22424175063E+03  0.27992009689E+03  0.12512449312E+03 0.  0.
         24    2    1    2    0    0 -0.47367003929E+01  0.29595229101E+02  0.23404423977E+03  0.25009644294E+03  0.82904829091E+02 0.  0.
        -11    1    5    5    0    0 -0.12349908118E+02  0.16068276805E+02  0.23369316002E+03  0.23457025129E+03  0.00000000000E+00 0.  1.
         12    1    5    5    0    0  0.76132077250E+01  0.13526952296E+02  0.35107975193E+00  0.15526191654E+02  0.00000000000E+00 0. -1.
         11    1    3    3    0    0 -0.42021644220E+02  0.75947695234E+02 -0.24510850024E+03  0.26002316797E+03  0.00000000000E+00 0. -1.
        -12    1    3    3    0    0 -0.11233028978E+02 -0.10402187883E+02 -0.51090419166E+01  0.16139664250E+02  0.00000000000E+00 0.  1.
          5    1    4    4  501    0  0.45956980028E+02 -0.11299217105E+03 -0.22708368373E+03  0.25780563716E+03  0.41800000000E+01 0. -1.
         -5    1    4    4    0  501  0.12034393562E+02  0.17851434600E+02  0.28419331060E+01  0.22114459737E+02  0.41800000000E+01 0. -1.
</event>
<event>
11    1  0.8551154E-009  0.2214004E+03  0.7561462E-02  0.1040344E+00
         22   -1    0    0    0    0  0.00000000000E+00  0.00000000000E+00  0.11845313928E+04  0.11845313928E+04  0.00000000000E+00 0. -1.
         22   -1    0    0    0    0 -0.00000000000E+00 -0.00000000000E+00 -0.71919776974E+03  0.71919776974E+03  0.00000000000E+00 0.  1.
        -24    2    1    2    0    0  0.69606307054E+01 -0.35876341286E+02 -0.56691657940E+03  0.57383045656E+03  0.80940858861E+02 0.  0.
         25    2    1    2    0    0  0.15330763857E+03 -0.54779542896E+02 -0.64305539354E+02  0.21513350325E+03  0.12507274469E+03 0.  0.
         24    2    1    2    0    0 -0.16026826927E+03  0.90655884182E+02  0.10965557418E+04  0.11147652027E+04  0.79765624326E+02 0.  0.
        -11    1    5    5    0    0 -0.74159502549E+02  0.59006493072E+02  0.76157933340E+03  0.76745324230E+03  0.00000000000E+00 0.  1.
         12    1    5    5    0    0 -0.86108766724E+02  0.31649391110E+02  0.33497640843E+03  0.34731196044E+03  0.00000000000E+00 0. -1.
         11    1    3    3    0    0 -0.30361982484E+02  0.71779065951E+01 -0.23441364623E+03  0.23648071773E+03  0.00000000000E+00 0. -1.
        -12    1    3    3    0    0  0.37322613190E+02 -0.43054247881E+02 -0.33250293318E+03  0.33734973883E+03  0.00000000000E+00 0.  1.
          5    1    4    4  501    0  0.14569553011E+03 -0.96812597925E+01 -0.80062967680E+02  0.16657870656E+03  0.41800000000E+01 0. -1.
         -5    1    4    4    0  501  0.76121084571E+01 -0.45098283104E+02  0.15757428326E+02  0.48554796689E+02  0.41800000000E+01 0. -1.
</event>
<event>
11    1  0.8551154E-009  0.1284906E+03  0.7561462E-02  0.1121138E+00
         22   -1    0    0    0    0  0.00000000000E+00  0.00000000000E+00  0.13626782349E+04  0.13626782349E+04  0.00000000000E+00 0. -1.
         22   -1    0    0    0    0 -0.00000000000E+00 -0.00000000000E+00 -0.11709169351E+04  0.11709169351E+04  0.00000000000E+00 0.  1.
         24    2    1    2    0    0 -0.16975174431E+02 -0.61739294822E+01 -0.62597616062E+03  0.63147698458E+03  0.81183461674E+02 0.  0.
         25    2    1    2    0    0  0.34016728325E+02 -0.17698530761E+02 -0.53291620391E+03  0.54874299406E+03  0.12509523308E+03 0.  0.
        -24    2    1    2    0    0 -0.17041553894E+02  0.23872460244E+02  0.13506536643E+04  0.13533751914E+04  0.80615002564E+02 0.  0.
        -13    1    3    3    0    0  0.31227578732E+02 -0.11724137078E+02 -0.31130055855E+03  0.31308250481E+03  0.00000000000E+00 0.  1.
         14    1    3    3    0    0 -0.48202753163E+02  0.55502075955E+01 -0.31467560207E+03  0.31839447978E+03  0.00000000000E+00 0. -1.
         13    1    5    5    0    0  0.12400334286E+02  0.21655936827E+02  0.11744420444E+04  0.11747071395E+04  0.00000000000E+00 0. -1.
        -14    1    5    5    0    0 -0.29441888180E+02  0.22165234164E+01  0.17621161992E+03  0.17866805185E+03  0.00000000000E+00 0.  1.
          5    1    4    4  501    0 -0.21891779155E+02  0.36257007954E+02 -0.96842157593E+02  0.10578136182E+03  0.41800000000E+01 0. -1.
         -5    1    4    4    0  501  0.55908507480E+02 -0.53955538716E+02 -0.43607404632E+03  0.44296163224E+03  0.41800000000E+01 0. -1.
</event>
<event>
11    1  0.8551154E-009  0.1315410E+03  0.7561462E-02  0.1117390E+00
         22   -1    0    0    0    0  0.00000000000E+00  0.00000000000E+00  0.75961479314E+03  0.75961479314E+03  0.00000000000E+00 0. -1.
         22   -1    0    0    0    0 -0.00000000000E+00 -0.00000000000E+00 -0.68880737144E+03  0.68880737144E+03  0.00000000000E+00 0. -1.
        -24    2    1    2    0    0  0.38976353285E+02 -0.11384461915E+02 -0.66230906203E+03  0.66849055210E+03  0.81102173239E+02 0.  0.
         25    2    1    2    0    0 -0.44456334548E+02  0.85556670319E+01  0.19625248033E+03  0.23709444615E+03  0.12509666357E+03 0.  0.
         24    2    1    2    0    0  0.54799812633E+01  0.28287948831E+01  0.53686400340E+03  0.54283716633E+03  0.80069961512E+02 0.  0.
        -13    1    5    5    0    0 -0.18431198289E+02 -0.19312314931E+02  0.71297157216E+02  0.76131197320E+02  0.00000000000E+00 0.  1.
         14    1    5    5    0    0  0.23911179552E+02  0.22141109814E+02  0.46556684618E+03  0.46670596901E+03  0.00000000000E+00 0. -1.
         11    1    3    3    0    0  0.24369835470E+01 -0.26267224301E+02 -0.52401591498E+03  0.52467950705E+03  0.00000000000E+00 0. -1.
        -12    1    3    3    0    0  0.36539369738E+02  0.14882762386E+02 -0.13829314705E+03  0.14381104505E+03  0.00000000000E+00 0.  1.
          5    1    4    4  501    0 -0.25166412408E+01 -0.37042669686E+02  0.16185188958E+03  0.16610839660E+03  0.41800000000E+01 0. -1.
         -5    1    4    4    0  501 -0.41939693307E+02  0.45598336718E+02  0.34400590754E+02  0.70986049548E+02  0.41800000000E+01 0. -1.
</event>
<event>
11    1  0.8551154E-009  0.1563933E+03  0.7561462E-02  0.1090519E+00
         22   -1    0    0    0    0  0.00000000000E+00  0.00000000000E+00  0.10415324613E+04  0.10415324613E+04  0.00000000000E+00 0. -1.
         22   -1    0    0    0    0 -0.00000000000E+00 -0.00000000000E+00 -0.17126248884E+03  0.17126248884E+03  0.00000000000E+00 0.  1.
        -24    2    1    2    0    0 -0.17941874214E+01 -0.97161213221E+02 -0.12746143666E+03  0.17822498103E+03  0.77937189866E+02 0.  0.
         25    2    1    2    0    0 -0.39877494968E+01  0.53173174972E+02  0.29478592930E+03  0.32464612014E+03  0.12511223171E+03 0.  0.
         24    2    1    2    0    0  0.57819369182E+01  0.43988038249E+02  0.70294547981E+03  0.70992384897E+03  0.88832119457E+02 0.  0.
        -11    1    5    5    0    0 -0.12457450509E+01  0.53207912311E+02  0.20352587542E+03  0.21036971212E+03  0.00000000000E+00 0.  1.
         12    1    5    5    0    0  0.70276819691E+01 -0.92198740619E+01  0.49941960439E+03  0.49955413685E+03  0.00000000000E+00 0. -1.
         11    1    3    3    0    0 -0.16093005207E+02 -0.69185901885E+02 -0.32338231028E+02  0.78047645847E+02  0.00000000000E+00 0. -1.
        -12    1    3    3    0    0  0.14298817786E+02 -0.27975311335E+02 -0.95123205631E+02  0.10017733518E+03  0.00000000000E+00 0.  1.
          5    1    4    4  501    0  0.52512181745E+02 -0.54008760489E+00  0.16482423207E+03  0.17303849515E+03  0.41800000000E+01 0.  1.
         -5    1    4    4    0  501 -0.56499931242E+02  0.53713262577E+02  0.12996169723E+03  0.15160762499E+03  0.41800000000E+01 0.  1.
</event>
<event>
11    1  0.8551154E-009  0.1301896E+03  0.7561462E-02  0.1119036E+00
         22   -1    0    0    0    0  0.00000000000E+00  0.00000000000E+00  0.12381718748E+04  0.12381718748E+04  0.00000000000E+00 0.  1.
         22   -1    0    0    0    0 -0.00000000000E+00 -0.00000000000E+00 -0.12519681293E+04  0.12519681293E+04  0.00000000000E+00 0.  1.
        -24    2    1    2    0    0  0.33880070200E+02 -0.13202913238E+02 -0.12310996364E+04  0.12346419740E+04  0.86094791661E+02 0.  0.
         25    2    1    2    0    0  0.50113378567E+01  0.14092798707E+02  0.21351736351E+03  0.24791199287E+03  0.12508785396E+03 0.  0.
         24    2    1    2    0    0 -0.38891408057E+02 -0.88988546920E+00  0.10037860183E+04  0.10075860373E+04  0.78293795622E+02 0.  0.
        -13    1    5    5    0    0 -0.30511635759E+02 -0.50178482371E+01  0.99229701698E+03  0.99277868058E+03  0.00000000000E+00 0.  1.
         14    1    5    5    0    0 -0.83797722982E+01  0.41279627679E+01  0.11489001317E+02  0.14807356673E+02  0.00000000000E+00 0. -1.
         13    1    3    3    0    0  0.45454769148E+02 -0.64587465412E+01 -0.30415821457E+03  0.30760375638E+03  0.00000000000E+00 0. -1.
        -14    1    3    3    0    0 -0.11574698948E+02 -0.67441666965E+01 -0.92694142180E+03  0.92703821760E+03  0.00000000000E+00 0.  1.
          5    1    4    4  501    0  0.20722746447E+02  0.43477396795E+02  0.20840969283E+03  0.21394342410E+03  0.41800000000E+01 0. -1.
         -5    1    4    4    0  501 -0.15711408590E+02 -0.29384598088E+02  0.51076706842E+01  0.33968568773E+02  0.41800000000E+01 0. -1.
</event>
<event>
11    1  0.1071405E-008  0.1481405E+03  0.7561462E-02  0.1098794E+00
         22   -1    0    0    0    0  0.00000000000E+00  0.00000000000E+00  0.99738646363E+03  0.99738646363E+03  0.00000000000E+00 0. -1.
         22   -1    0    0    0    0 -0.00000000000E+00 -0.00000000000E+00 -0.23253805763E+04  0.23253805763E+04  0.00000000000E+00 0.  1.
        -24    2    1    2    0    0  0.62695464688E+02 -0.29512971510E+02 -0.14926527168E+04  0.14964782741E+04  0.81445410848E+02 0.  0.
         25    2    1    2    0    0 -0.26041436884E+02  0.99895527313E+02 -0.81968248361E+03  0.83557564921E+03  0.12510003518E+03 0.  0.
         24    2    1    2    0    0 -0.36654027804E+02 -0.70382555803E+02  0.98434108775E+03  0.99071311666E+03  0.79296157333E+02 0.  0.
        -13    1    5    5    0    0  0.10234668138E+02 -0.22636185137E+02  0.77014758635E+02  0.80922298268E+02  0.00000000000E+00 0.  1.
         14    1    5    5    0    0 -0.46888695942E+02 -0.47746370667E+02  0.90732632912E+03  0.90979081839E+03  0.00000000000E+00 0. -1.
         11    1    3    3    0    0 -0.50863854149E+01  0.94362387820E+01 -0.67765757997E+03  0.67774236226E+03  0.00000000000E+00 0. -1.
        -12    1    3    3    0    0  0.67781850102E+02 -0.38949210292E+02 -0.81499513688E+03  0.81873591183E+03  0.00000000000E+00 0.  1.
          5    1    4    4  501    0  0.34272460168E+02  0.93900936588E+02 -0.45526527260E+03  0.46612866062E+03  0.41800000000E+01 0. -1.
         -5    1    4    4    0  501 -0.60313897052E+02  0.59945907253E+01 -0.36441721101E+03  0.36944698858E+03  0.41800000000E+01 0. -1.
</event>
<event>
11    1  0.8551154E-009  0.1305778E+03  0.7561462E-02  0.1118561E+00
         22   -1    0    0    0    0  0.00000000000E+00  0.00000000000E+00  0.67151802513E+03  0.67151802513E+03  0.00000000000E+00 0.  1.
         22   -1    0    0    0    0 -0.00000000000E+00 -0.00000000000E+00 -0.18445195233E+04  0.18445195233E+04  0.00000000000E+00 0. -1.
         24    2    1    2    0    0 -0.37334938397E+02  0.45469736524E+01 -0.17799353225E+04  0.17821479634E+04  0.80417899007E+02 0.  0.
         25    2    1    2    0    0  0.32327062623E+02  0.12730076460E+02  0.87898973455E+01  0.13010992356E+03  0.12507692069E+03 0.  0.
        -24    2    1    2    0    0  0.50078757743E+01 -0.17277050112E+02  0.59814392696E+03  0.60377966153E+03  0.80312807423E+02 0.  0.
        -13    1    3    3    0    0  0.65880628898E+01  0.22351289528E+02 -0.17888404235E+03  0.18039535283E+03  0.00000000000E+00 0.  1.
         14    1    3    3    0    0 -0.43923001287E+02 -0.17804315875E+02 -0.16010512801E+04  0.16017526105E+04  0.00000000000E+00 0. -1.
         11    1    5    5    0    0  0.49730282905E+01  0.28035563006E+02  0.11330315796E+03  0.11682606476E+03  0.00000000000E+00 0. -1.
        -12    1    5    5    0    0  0.34847483812E-01 -0.45312613118E+02  0.48484076900E+03  0.48695359677E+03  0.00000000000E+00 0.  1.
          5    1    4    4  501    0  0.43815226026E+02  0.60670309831E+02 -0.12958869969E+02  0.76066189845E+02  0.41800000000E+01 0. -1.
         -5    1    4    4    0  501 -0.11488163403E+02 -0.47940233372E+02  0.21748767314E+02  0.54043733715E+02  0.41800000000E+01 0. -1.
</event>
<event>
11    1  0.8551154E-009  0.1567312E+03  0.7561462E-02  0.1090193E+00
         22   -1    0    0    0    0  0.00000000000E+00  0.00000000000E+00  0.12933042635E+03  0.12933042635E+03  0.00000000000E+00 0. -1.
         22   -1    0    0    0    0 -0.00000000000E+00 -0.00000000000E+00 -0.17456045362E+04  0.17456045362E+04  0.00000000000E+00 0. -1.
         24    2    1    2    0    0 -0.47213332354E+01  0.12812982151E+02 -0.14334931248E+04  0.14358213204E+04  0.80584502246E+02 0.  0.
         25    2    1    2    0    0  0.81500846399E+02  0.42872063384E+02 -0.25298483676E+03  0.29686580623E+03  0.12509027738E+03 0.  0.
        -24    2    1    2    0    0 -0.76779513163E+02 -0.55685045535E+02  0.70203851714E+02  0.14224783584E+03  0.79435181558E+02 0.  0.
        -13    1    3    3    0    0 -0.38942571509E+02 -0.10332800777E+02 -0.66739163579E+03  0.66860667524E+03  0.00000000000E+00 0.  1.
         14    1    3    3    0    0  0.34221238274E+02  0.23145782928E+02 -0.76610148896E+03  0.76721464520E+03  0.00000000000E+00 0. -1.
         11    1    5    5    0    0 -0.36586881986E+01 -0.35738621443E+02  0.53813329253E+02  0.64703241551E+02  0.00000000000E+00 0. -1.
        -12    1    5    5    0    0 -0.73120824965E+02 -0.19946424092E+02  0.16390522461E+02  0.77544594293E+02  0.00000000000E+00 0.  1.
          5    1    4    4  501    0  0.24439329439E+02  0.49738083064E+01 -0.21868803699E+03  0.22014529183E+03  0.41800000000E+01 0.  1.
         -5    1    4    4    0  501  0.57061516960E+02  0.37898255077E+02 -0.34296799777E+02  0.76720514406E+02  0.41800000000E+01 0.  1.
</event>
<event>
11    1  0.8551154E-009  0.1406079E+03  0.7561462E-02  0.1106881E+00
         22   -1    0    0    0    0  0.00000000000E+00  0.00000000000E+00  0.37467636464E+03  0.37467636464E+03  0.00000000000E+00 0. -1.
         22   -1    0    0    0    0 -0.00000000000E+00 -0.00000000000E+00 -0.54076772153E+03  0.54076772153E+03  0.00000000000E+00 0. -1.
        -24    2    1    2    0    0 -0.29243077540E+02 -0.69570753718E+01 -0.44204101276E+03  0.45006924374E+03  0.79110737087E+02 0.  0.
         25    2    1    2    0    0 -0.37048536797E+02 -0.12772547833E+01 -0.37301885715E+02  0.13569544596E+03  0.12509035901E+03 0.  0.
         24    2    1    2    0    0  0.66291614337E+02  0.82343301550E+01  0.31325154159E+03  0.32967939646E+03  0.78099896417E+02 0.  0.
        -11    1    5    5    0    0  0.34232321514E+02 -0.12540817515E+02  0.41430760980E+02  0.55187243957E+02  0.00000000000E+00 0.  1.
         12    1    5    5    0    0  0.32059292823E+02  0.20775147670E+02  0.27182078061E+03  0.27449215251E+03  0.00000000000E+00 0. -1.
         13    1    3    3    0    0 -0.41661762917E+02 -0.13876147663E+02 -0.42744357629E+03  0.42969321716E+03  0.00000000000E+00 0. -1.
        -14    1    3    3    0    0  0.12418685377E+02  0.69190722917E+01 -0.14597436472E+02  0.20376026586E+02  0.00000000000E+00 0.  1.
          5    1    4    4  501    0  0.44126333913E+01 -0.12887585330E+02 -0.76199614711E+02  0.77520415835E+02  0.41800000000E+01 0. -1.
         -5    1    4    4    0  501 -0.41461170188E+02  0.11610330547E+02  0.38897728996E+02  0.58175030123E+02  0.41800000000E+01 0. -1.
</event>
<event>
11    1  0.8551154E-009  0.1353772E+03  0.7561462E-02  0.1112833E+00
         22   -1    0    0    0    0  0.00000000000E+00  0.00000000000E+00  0.83898677637E+03  0.83898677637E+03  0.00000000000E+00 0.  1.
         22   -1    0    0    0    0 -0.00000000000E+00 -0.00000000000E+00 -0.43103494336E+03  0.43103494336E+03  0.00000000000E+00 0.  1.
        -24    2    1    2    0    0 -0.34107195635E+02 -0.23399516161E+02 -0.38079873725E+03  0.39136787740E+03  0.80313753627E+02 0.  0.
         25    2    1    2    0    0  0.83448650366E+02  0.21341780470E+02  0.96423037769E+02  0.17989462259E+03  0.12508206979E+03 0.  0.
         24    2    1    2    0    0 -0.49341454731E+02  0.20577356907E+01  0.69232753249E+03  0.69875921973E+03  0.80673548905E+02 0.  0.
        -11    1    5    5    0    0 -0.71661351485E+02  0.13263984709E+01  0.49257362393E+03  0.49776086992E+03  0.00000000000E+00 0.  1.
         12    1    5    5    0    0  0.22319896754E+02  0.73133721974E+00  0.19975390855E+03  0.20099834981E+03  0.00000000000E+00 0. -1.
         11    1    3    3    0    0 -0.14518544554E+02  0.64781326728E+01 -0.98492513495E+01  0.18701927469E+02  0.00000000000E+00 0. -1.
        -12    1    3    3    0    0 -0.19588651080E+02 -0.29877648834E+02 -0.37094948590E+03  0.37266594994E+03  0.00000000000E+00 0.  1.
          5    1    4    4  501    0 -0.21416026315E+02  0.36663267673E+02  0.45051152457E+02  0.62047724514E+02  0.41800000000E+01 0. -1.
         -5    1    4    4    0  501  0.10486467668E+03 -0.15321487203E+02  0.51371885312E+02  0.11784689808E+03  0.41800000000E+01 0. -1.
</event>
<event>
11    1  0.8551154E-009  0.1575872E+03  0.7561462E-02  0.1089369E+00
         22   -1    0    0    0    0  0.00000000000E+00  0.00000000000E+00  0.67028005321E+03  0.67028005321E+03  0.00000000000E+00 0.  1.
         22   -1    0    0    0    0 -0.00000000000E+00 -0.00000000000E+00 -0.16232353973E+04  0.16232353973E+04  0.00000000000E+00 0.  1.
        -24    2    1    2    0    0 -0.46330485512E+02  0.83368491199E+02 -0.15778671571E+04  0.15832706418E+04  0.89355137088E+02 0.  0.
         25    2    1    2    0    0  0.54538394097E+02 -0.12332116117E+03  0.18699920067E+03  0.26229702594E+03  0.12509389890E+03 0.  0.
         24    2    1    2    0    0 -0.82079085854E+01  0.39952669976E+02  0.43791261227E+03  0.44794778284E+03  0.85006908916E+02 0.  0.
        -13    1    5    5    0    0  0.50151890637E+01 -0.13648958677E+02  0.28505555682E+03  0.28542620179E+03  0.00000000000E+00 0.  1.
         14    1    5    5    0    0 -0.13223097649E+02  0.53601628653E+02  0.15285705545E+03  0.16252158105E+03  0.00000000000E+00 0. -1.
         11    1    3    3    0    0 -0.91936025650E+01  0.43858103880E+02 -0.23065053892E+03  0.23496324544E+03  0.00000000000E+00 0. -1.
        -12    1    3    3    0    0 -0.37136882947E+02  0.39510387319E+02 -0.13472166181E+04  0.13483073963E+04  0.00000000000E+00 0.  1.
          5    1    4    4  501    0  0.77312802550E+02 -0.10717940162E+03  0.86721814013E+02  0.15812286044E+03  0.41800000000E+01 0. -1.
         -5    1    4    4    0  501 -0.22774408452E+02 -0.16141759558E+02  0.10027738666E+03  0.10417416550E+03  0.41800000000E+01 0. -1.
</event>
<event>
11    1  0.8551154E-009  0.1324832E+03  0.7561462E-02  0.1116255E+00
         22   -1    0    0    0    0  0.00000000000E+00  0.00000000000E+00  0.14242801011E+04  0.14242801011E+04  0.00000000000E+00 0.  1.
         22   -1    0    0    0    0 -0.00000000000E+00 -0.00000000000E+00 -0.37133845558E+03  0.37133845558E+03  0.00000000000E+00 0.  1.
        -24    2    1    2    0    0 -0.30911096375E+02  0.31995272183E+02 -0.28948719260E+03  0.30432272553E+03  0.82645588336E+02 0.  0.
         25    2    1    2    0    0  0.50880875530E+02  0.84968458696E+00 -0.10673736693E+02  0.13546795074E+03  0.12509217227E+03 0.  0.
         24    2    1    2    0    0 -0.19969779154E+02 -0.32844956770E+02  0.13531025749E+04  0.13558278805E+04  0.76844518942E+02 0.  0.
        -13    1    5    5    0    0 -0.34877661994E+02 -0.50913965128E+02  0.89356022296E+03  0.89568887188E+03  0.00000000000E+00 0.  1.
         14    1    5    5    0    0  0.14907882840E+02  0.18069008358E+02  0.45954235190E+03  0.46013900858E+03  0.00000000000E+00 0. -1.
         13    1    3    3    0    0  0.30612501155E+01 -0.26242673523E+02 -0.79008001275E+02  0.83308543567E+02  0.00000000000E+00 0. -1.
        -14    1    3    3    0    0 -0.33972346491E+02  0.58237945706E+02 -0.21047919132E+03  0.22101418196E+03  0.00000000000E+00 0.  1.
          5    1    4    4  501    0  0.67793712221E+02  0.47196734011E+02 -0.19976089864E+02  0.85088399234E+02  0.41800000000E+01 0. -1.
         -5    1    4    4    0  501 -0.16912836691E+02 -0.46347049424E+02  0.93023531711E+01  0.50379551504E+02  0.41800000000E+01 0. -1.
</event>
<event>
11    1  0.8551154E-009  0.1578091E+03  0.7561462E-02  0.1089156E+00
         22   -1    0    0    0    0  0.00000000000E+00  0.00000000000E+00  0.30503857086E+03  0.30503857086E+03  0.00000000000E+00 0. -1.
         22   -1    0    0    0    0 -0.00000000000E+00 -0.00000000000E+00 -0.50864561294E+03  0.50864561294E+03  0.00000000000E+00 0. -1.
         24    2    1    2    0    0 -0.10207915831E+03  0.15038960306E+02 -0.41399788043E+03  0.43420322324E+03  0.80572136483E+02 0.  0.
         25    2    1    2    0    0  0.54495772845E+02  0.72471405393E+01 -0.12076793911E+02  0.13717235873E+03  0.12509235286E+03 0.  0.
        -24    2    1    2    0    0  0.47583385462E+02 -0.22286100845E+02  0.22246763226E+03  0.24230860184E+03  0.80378867002E+02 0.  0.
        -11    1    3    3    0    0 -0.21910409694E+01  0.15201029226E+02 -0.10696492944E+02  0.18715953392E+02  0.00000000000E+00 0.  1.
         12    1    3    3    0    0 -0.99888117337E+02 -0.16206892031E+00 -0.40330138749E+03  0.41548726984E+03  0.00000000000E+00 0. -1.
         13    1    5    5    0    0  0.13676565542E+02 -0.31904572989E+02  0.19377990737E+03  0.19686442727E+03  0.00000000000E+00 0. -1.
        -14    1    5    5    0    0  0.33906819920E+02  0.96184721436E+01  0.28687724887E+02  0.45444174573E+02  0.00000000000E+00 0.  1.
          5    1    4    4  501    0  0.90970366783E+02  0.25095419329E+02  0.48245344314E+00  0.94462123972E+02  0.41800000000E+01 0.  1.
         -5    1    4    4    0  501 -0.36474593939E+02 -0.17848278789E+02 -0.12559247354E+02  0.42710234755E+02  0.41800000000E+01 0.  1.
</event>
<event>
11    1  0.8551154E-009  0.4494991E+03  0.7561462E-02  0.9514035E-01
         22   -1    0    0    0    0  0.00000000000E+00  0.00000000000E+00  0.17262050087E+04  0.17262050087E+04  0.00000000000E+00 0.  1.
         22   -1    0    0    0    0 -0.00000000000E+00 -0.00000000000E+00 -0.24216896781E+03  0.24216896781E+03  0.00000000000E+00 0.  1.
         24    2    1    2    0    0 -0.35975451057E+02 -0.39231439314E+03  0.47246234926E+03  0.62038948925E+03  0.80359385013E+02 0.  0.
         25    2    1    2    0    0 -0.27806447530E+03  0.44122125743E+03  0.46162749183E+03  0.70763111894E+03  0.12508320769E+03 0.  0.
        -24    2    1    2    0    0  0.31403992636E+03 -0.48906864287E+02  0.54994619979E+03  0.64035336830E+03  0.81232117521E+02 0.  0.
        -13    1    3    3    0    0 -0.58888913404E+02 -0.20379256234E+03  0.24531374982E+03  0.32431180743E+03  0.00000000000E+00 0.  1.
         14    1    3    3    0    0  0.22913462347E+02 -0.18852183080E+03  0.22714859944E+03  0.29607768182E+03  0.00000000000E+00 0. -1.
         11    1    5    5    0    0  0.43770043059E+02 -0.29109794957E+02  0.13373563919E+03  0.14369557412E+03  0.00000000000E+00 0. -1.
        -12    1    5    5    0    0  0.27026988330E+03 -0.19797069330E+02  0.41621056060E+03  0.49665779418E+03  0.00000000000E+00 0.  1.
          5    1    4    4  501    0 -0.22311779180E+03  0.25614483795E+03  0.33230299825E+03  0.47522045628E+03  0.41800000000E+01 0. -1.
         -5    1    4    4    0  501 -0.54946683502E+02  0.18507641948E+03  0.12932449358E+03  0.23241066266E+03  0.41800000000E+01 0. -1.
</event>
<event>
11    1  0.8551154E-009  0.1567127E+03  0.7561462E-02  0.1090210E+00
         22   -1    0    0    0    0  0.00000000000E+00  0.00000000000E+00  0.21538631175E+04  0.21538631175E+04  0.00000000000E+00 0.  1.
         22   -1    0    0    0    0 -0.00000000000E+00 -0.00000000000E+00 -0.26831428791E+03  0.26831428791E+03  0.00000000000E+00 0. -1.
        -24    2    1    2    0    0  0.88659496069E+02  0.32071403148E+02 -0.23236345935E+03  0.26275108338E+03  0.78461923461E+02 0.  0.
         25    2    1    2    0    0 -0.77290429163E+02 -0.70630529482E+02  0.32005149044E+03  0.35922513363E+03  0.12508900017E+03 0.  0.
         24    2    1    2    0    0 -0.11369066907E+02  0.38559126334E+02  0.17978607985E+04  0.18002011884E+04  0.82491248074E+02 0.  0.
        -13    1    5    5    0    0  0.34331614240E+02  0.27338564709E+02  0.98816554276E+03  0.98913962450E+03  0.00000000000E+00 0.  1.
         14    1    5    5    0    0 -0.45700681147E+02  0.11220561625E+02  0.80969525574E+03  0.81106156389E+03  0.00000000000E+00 0. -1.
         13    1    3    3    0    0  0.94818061962E+02  0.75170429988E+01 -0.20159606148E+03  0.22290792452E+03  0.00000000000E+00 0. -1.
        -14    1    3    3    0    0 -0.61585658928E+01  0.24554360149E+02 -0.30767397865E+02  0.39843158855E+02  0.00000000000E+00 0.  1.
          5    1    4    4  501    0 -0.87129447309E+02 -0.67293831577E+02  0.13686742109E+03  0.17569907146E+03  0.41800000000E+01 0. -1.
         -5    1    4    4    0  501  0.98390181467E+01 -0.33366979051E+01  0.18318406935E+03  0.18352606217E+03  0.41800000000E+01 0. -1.
</event>
<event>
11    1  0.8551154E-009  0.1308216E+03  0.7561462E-02  0.1118264E+00
         22   -1    0    0    0    0  0.00000000000E+00  0.00000000000E+00  0.22095909296E+03  0.22095909296E+03  0.00000000000E+00 0.  1.
         22   -1    0    0    0    0 -0.00000000000E+00 -0.00000000000E+00 -0.10407542432E+04  0.10407542432E+04  0.00000000000E+00 0.  1.
        -24    2    1    2    0    0  0.37301320941E+02  0.77813893722E+01 -0.97386515122E+03  0.97775688539E+03  0.78378923160E+02 0.  0.
         25    2    1    2    0    0 -0.43717715967E+02 -0.18380086922E+02  0.27533032790E+02  0.13658142055E+03  0.12508936909E+03 0.  0.
         24    2    1    2    0    0  0.64163950261E+01  0.10598697550E+02  0.12653696821E+03  0.14737503020E+03  0.74527127187E+02 0.  0.
        -13    1    5    5    0    0  0.30048292550E+02  0.96404753345E+01  0.11813255693E+03  0.12227485292E+03  0.00000000000E+00 0.  1.
         14    1    5    5    0    0 -0.23631897524E+02  0.95822221549E+00  0.84044112822E+01  0.25100177278E+02  0.00000000000E+00 0. -1.
         13    1    3    3    0    0 -0.17135964568E+02  0.74998749372E+01 -0.56180817870E+03  0.56211948824E+03  0.00000000000E+00 0. -1.
        -14    1    3    3    0    0  0.54437285509E+02  0.28151443505E+00 -0.41205697252E+03  0.41563739715E+03  0.00000000000E+00 0.  1.
          5    1    4    4  501    0  0.14873613225E+02  0.30073326454E+02  0.47084392795E+02  0.57965867364E+02  0.41800000000E+01 0. -1.
         -5    1    4    4    0  501 -0.58591329192E+02 -0.48453413376E+02 -0.19551360006E+02  0.78615553184E+02  0.41800000000E+01 0. -1.
</event>
<event>
11    1  0.8551154E-009  0.6863913E+03  0.7561462E-02  0.9052603E-01
         22   -1    0    0    0    0  0.00000000000E+00  0.00000000000E+00  0.22367203515E+04  0.22367203515E+04  0.00000000000E+00 0.  1.
         22   -1    0    0    0    0 -0.00000000000E+00 -0.00000000000E+00 -0.73677238722E+03  0.73677238722E+03  0.00000000000E+00 0. -1.
         24    2    1    2    0    0 -0.41723970216E+02  0.29632584315E+02 -0.27252842152E+03  0.28895920398E+03  0.81281617131E+02 0.  0.
         25    2    1    2    0    0 -0.77435542730E+02 -0.69099760334E+03 -0.81175196255E+02  0.71113130881E+03  0.12507747511E+03 0.  0.
        -24    2    1    2    0    0  0.11915951295E+03  0.66136501903E+03  0.18536515820E+04  0.19734022259E+04  0.81789239629E+02 0.  0.
        -11    1    3    3    0    0 -0.57955598295E+02 -0.19529579402E+00 -0.20945427458E+03  0.21732460204E+03  0.00000000000E+00 0.  1.
         12    1    3    3    0    0  0.16231628078E+02  0.29827880109E+02 -0.63074146942E+02  0.71634601935E+02  0.00000000000E+00 0. -1.
         13    1    5    5    0    0  0.51434629014E+02  0.11010673512E+03  0.34130054650E+03  0.36229142582E+03  0.00000000000E+00 0. -1.
        -14    1    5    5    0    0  0.67724883932E+02  0.55125828391E+03  0.15123510355E+04  0.16111108001E+04  0.00000000000E+00 0.  1.
          5    1    4    4  501    0 -0.76536263888E+02 -0.59397314609E+03 -0.11191196430E+03  0.60926485055E+03  0.41800000000E+01 0.  1.
         -5    1    4    4    0  501 -0.89927884158E+00 -0.97024457255E+02  0.30736768050E+02  0.10186645826E+03  0.41800000000E+01 0.  1.
</event>
<event>
11    1  0.8551154E-009  0.1454628E+03  0.7561462E-02  0.1101607E+00
         22   -1    0    0    0    0  0.00000000000E+00  0.00000000000E+00  0.10885314769E+04  0.10885314769E+04  0.00000000000E+00 0. -1.
         22   -1    0    0    0    0 -0.00000000000E+00 -0.00000000000E+00 -0.89790184556E+03  0.89790184556E+03  0.00000000000E+00 0.  1.
         24    2    1    2    0    0 -0.61076149949E+01 -0.44346258032E+02 -0.79015279946E+03  0.79537284448E+03  0.79199884421E+02 0.  0.
         25    2    1    2    0    0 -0.66727230462E+02  0.27899774150E+02 -0.51144898586E+02  0.15327939935E+03  0.12509137833E+03 0.  0.
        -24    2    1    2    0    0  0.72834845457E+02  0.16446483882E+02  0.10319273294E+04  0.10377810787E+04  0.80871209246E+02 0.  0.
        -13    1    3    3    0    0  0.17800542824E+02 -0.37666848889E+02 -0.71527990078E+03  0.71649214043E+03  0.00000000000E+00 0.  1.
         14    1    3    3    0    0 -0.23908157819E+02 -0.66794091430E+01 -0.74872898671E+02  0.78880704055E+02  0.00000000000E+00 0. -1.
         13    1    5    5    0    0  0.12563522095E+02  0.47772236261E+00  0.69616692581E+03  0.69628044558E+03  0.00000000000E+00 0. -1.
        -14    1    5    5    0    0  0.60271323362E+02  0.15968761519E+02  0.33576040361E+03  0.34150063309E+03  0.00000000000E+00 0.  1.
          5    1    4    4  501    0 -0.75245310076E+02  0.58113728469E+02 -0.24561740465E+01  0.95197517383E+02  0.41800000000E+01 0.  1.
         -5    1    4    4    0  501  0.85180796141E+01 -0.30213954319E+02 -0.48688724540E+02  0.58081881970E+02  0.41800000000E+01 0.  1.
</event>
<event>
11    1  0.8551154E-009  0.1279850E+03  0.7561462E-02  0.1121770E+00
         22   -1    0    0    0    0  0.00000000000E+00  0.00000000000E+00  0.21971522689E+03  0.21971522689E+03  0.00000000000E+00 0. -1.
         22   -1    0    0    0    0 -0.00000000000E+00 -0.00000000000E+00 -0.40715845932E+03  0.40715845932E+03  0.00000000000E+00 0. -1.
        -24    2    1    2    0    0  0.16648902148E+02 -0.17606812546E+02 -0.34155524173E+03  0.35175266107E+03  0.80515623498E+02 0.  0.
         25    2    1    2    0    0  0.13094575603E+02  0.31998143917E+01  0.45156586595E+02  0.13367331429E+03  0.12509089062E+03 0.  0.
         24    2    1    2    0    0 -0.29743477751E+02  0.14406998154E+02  0.10895542270E+03  0.14144771086E+03  0.83928152049E+02 0.  0.
        -13    1    5    5    0    0  0.22265399782E+01  0.25879669539E+02 -0.13706198682E+01  0.26011408546E+02  0.00000000000E+00 0.  1.
         14    1    5    5    0    0 -0.31970017730E+02 -0.11472671385E+02  0.11032604257E+03  0.11543630231E+03  0.00000000000E+00 0. -1.
         13    1    3    3    0    0  0.17533571555E+01  0.40706926979E+01 -0.31261348060E+03  0.31264489929E+03  0.00000000000E+00 0. -1.
        -14    1    3    3    0    0  0.14895544993E+02 -0.21677505244E+02 -0.28941761133E+02  0.39107761783E+02  0.00000000000E+00 0.  1.
          5    1    4    4  501    0  0.49593036841E+02  0.46735038375E+02  0.30974635416E+02  0.74970217781E+02  0.41800000000E+01 0.  1.
         -5    1    4    4    0  501 -0.36498461238E+02 -0.43535223983E+02  0.14181951179E+02  0.58703096505E+02  0.41800000000E+01 0.  1.
</event>
<event>
11    1  0.8551154E-009  0.1333416E+03  0.7561462E-02  0.1115230E+00
         22   -1    0    0    0    0  0.00000000000E+00  0.00000000000E+00  0.12244579641E+04  0.12244579641E+04  0.00000000000E+00 0.  1.
         22   -1    0    0    0    0 -0.00000000000E+00 -0.00000000000E+00 -0.76126029178E+02  0.76126029178E+02  0.00000000000E+00 0. -1.
         24    2    1    2    0    0 -0.58371958988E+02 -0.22658102945E+02  0.24587843354E+02  0.12947131434E+03  0.11062361399E+03 0.  0.
         25    2    1    2    0    0 -0.13144684213E+02  0.31385444591E+02  0.18365764853E+03  0.22480264156E+03  0.12509303311E+03 0.  0.
        -24    2    1    2    0    0  0.71516643201E+02 -0.87273416457E+01  0.94008644299E+03  0.94631003733E+03  0.80928176212E+02 0.  0.
        -11    1    3    3    0    0 -0.66027500505E+02  0.18793959572E+02  0.45556634097E+02  0.82390840811E+02  0.00000000000E+00 0.  1.
         12    1    3    3    0    0  0.76555415168E+01 -0.41452062517E+02 -0.20968790743E+02  0.47080473533E+02  0.00000000000E+00 0. -1.
         13    1    5    5    0    0  0.28308756894E+02  0.18700910496E+02  0.12215865050E+03  0.12678267099E+03  0.00000000000E+00 0. -1.
        -14    1    5    5    0    0  0.43207886306E+02 -0.27428252141E+02  0.81792779249E+03  0.81952736634E+03  0.00000000000E+00 0.  1.
          5    1    4    4  501    0  0.56093567529E+02  0.11432505029E+02  0.84822374067E+02  0.10241825048E+03  0.41800000000E+01 0.  1.
         -5    1    4    4    0  501 -0.69238251742E+02  0.19952939562E+02  0.98835274468E+02  0.12238439108E+03  0.41800000000E+01 0.  1.
</event>
<event>
11    1  0.8551154E-009  0.1263224E+03  0.7561462E-02  0.1123872E+00
         22   -1    0    0    0    0  0.00000000000E+00  0.00000000000E+00  0.57428403417E+03  0.57428403417E+03  0.00000000000E+00 0.  1.
         22   -1    0    0    0    0 -0.00000000000E+00 -0.00000000000E+00 -0.31544190758E+03  0.31544190758E+03  0.00000000000E+00 0. -1.
         24    2    1    2    0    0 -0.20268875645E+01 -0.22099238565E+01 -0.16771820129E+03  0.18573594646E+03  0.79746189422E+02 0.  0.
         25    2    1    2    0    0 -0.14940936541E+02  0.71896668739E+01 -0.10611912777E+03  0.16486939482E+03  0.12508287324E+03 0.  0.
        -24    2    1    2    0    0  0.16967824106E+02 -0.49797430175E+01  0.53267945564E+03  0.53912060047E+03  0.81184447373E+02 0.  0.
        -11    1    3    3    0    0  0.36088333033E+02  0.13381340188E+02 -0.86380473266E+02  0.94567511376E+02  0.00000000000E+00 0.  1.
         12    1    3    3    0    0 -0.38115220598E+02 -0.15591264044E+02 -0.81337728021E+02  0.91168435082E+02  0.00000000000E+00 0. -1.
         11    1    5    5    0    0  0.39188910289E+02 -0.97242507827E+01  0.13795045067E+03  0.14373815980E+03  0.00000000000E+00 0. -1.
        -12    1    5    5    0    0 -0.22221086183E+02  0.47445077652E+01  0.39472900497E+03  0.39538244067E+03  0.00000000000E+00 0.  1.
          5    1    4    4  501    0 -0.48969388425E+02  0.17829874867E+02  0.58896224746E+00  0.52285033394E+02  0.41800000000E+01 0.  1.
         -5    1    4    4    0  501  0.34028451884E+02 -0.10640207993E+02 -0.10670809002E+03  0.11258436143E+03  0.41800000000E+01 0.  1.
</event>
<event>
11    1  0.8551154E-009  0.1528141E+03  0.7561462E-02  0.1094038E+00
         22   -1    0    0    0    0  0.00000000000E+00  0.00000000000E+00  0.76863529242E+03  0.76863529242E+03  0.00000000000E+00 0.  1.
         22   -1    0    0    0    0 -0.00000000000E+00 -0.00000000000E+00 -0.42791955344E+03  0.42791955344E+03  0.00000000000E+00 0.  1.
        -24    2    1    2    0    0 -0.49752641584E+02  0.70382754409E+02 -0.38579043519E+03  0.40636889272E+03  0.94193203691E+02 0.  0.
         25    2    1    2    0    0  0.11127886674E+03 -0.10768986971E+03  0.39691993802E+03  0.44404277900E+03  0.12509379747E+03 0.  0.
         24    2    1    2    0    0 -0.61526225157E+02  0.37307115302E+02  0.32958623615E+03  0.34614317415E+03  0.77528786363E+02 0.  0.
        -11    1    5    5    0    0 -0.63977226819E+02  0.53687270470E+02  0.22013746315E+03  0.23544831969E+03  0.00000000000E+00 0.  1.
         12    1    5    5    0    0  0.24510016612E+01 -0.16380155168E+02  0.10944877300E+03  0.11069485446E+03  0.00000000000E+00 0. -1.
         13    1    3    3    0    0  0.22075837720E+02 -0.13878821395E+01 -0.37086559339E+02  0.43181960487E+02  0.00000000000E+00 0. -1.
        -14    1    3    3    0    0 -0.71828479304E+02  0.71770636549E+02 -0.34870387585E+03  0.36318693223E+03  0.00000000000E+00 0.  1.
          5    1    4    4  501    0 -0.27533534090E+02 -0.12406007342E+02  0.67511522470E+02  0.74076194448E+02  0.41800000000E+01 0.  1.
         -5    1    4    4    0  501  0.13881240083E+03 -0.95283862370E+02  0.32940841555E+03  0.36996658456E+03  0.41800000000E+01 0.  1.
</event>
<event>
11    1  0.8551154E-009  0.1330923E+03  0.7561462E-02  0.1115527E+00
         22   -1    0    0    0    0  0.00000000000E+00  0.00000000000E+00  0.11213764187E+03  0.11213764187E+03  0.00000000000E+00 0.  1.
         22   -1    0    0    0    0 -0.00000000000E+00 -0.00000000000E+00 -0.11668831236E+04  0.11668831236E+04  0.00000000000E+00 0. -1.
        -24    2    1    2    0    0  0.38211370845E+02  0.28671294441E+02 -0.91152177227E+03  0.91623201549E+03  0.79542522610E+02 0.  0.
         25    2    1    2    0    0 -0.12192682922E+02 -0.29605018042E+02 -0.21494330577E+03  0.25074482419E+03  0.12508886262E+03 0.  0.
         24    2    1    2    0    0 -0.26018687922E+02  0.93372360080E+00  0.71719596273E+02  0.11204392582E+03  0.82050575031E+02 0.  0.
        -13    1    5    5    0    0  0.25737010805E+02  0.17799631727E+02  0.21362306920E+02  0.37888900377E+02  0.00000000000E+00 0.  1.
         14    1    5    5    0    0 -0.51755698728E+02 -0.16865908127E+02  0.50357289353E+02  0.74155025445E+02  0.00000000000E+00 0. -1.
         13    1    3    3    0    0  0.69921752506E+01  0.11625746513E+02 -0.77604764271E+03  0.77616621432E+03  0.00000000000E+00 0. -1.
        -14    1    3    3    0    0  0.31219195594E+02  0.17045547928E+02 -0.13547412956E+03  0.14006580117E+03  0.00000000000E+00 0.  1.
          5    1    4    4  501    0 -0.22610083234E+02  0.46051924029E+02 -0.10331454355E+03  0.11542687244E+03  0.41800000000E+01 0.  1.
         -5    1    4    4    0  501  0.10417400312E+02 -0.75656942071E+02 -0.11162876222E+03  0.13531795176E+03  0.41800000000E+01 0.  1.
</event>
<event>
11    1  0.8551154E-009  0.1444786E+03  0.7561462E-02  0.1102658E+00
         22   -1    0    0    0    0  0.00000000000E+00  0.00000000000E+00  0.58590876735E+03  0.58590876735E+03  0.00000000000E+00 0.  1.
         22   -1    0    0    0    0 -0.00000000000E+00 -0.00000000000E+00 -0.62678301624E+02  0.62678301624E+02  0.00000000000E+00 0.  1.
        -24    2    1    2    0    0  0.42011553161E+02  0.56869629479E+02  0.69065975485E+02  0.12745361353E+03  0.80468560797E+02 0.  0.
         25    2    1    2    0    0 -0.31101672895E+02 -0.69897301234E+02  0.16597221806E+03  0.22147639348E+03  0.12510822885E+03 0.  0.
         24    2    1    2    0    0 -0.10909880266E+02  0.13027671755E+02  0.28819227218E+03  0.29965706196E+03  0.80317017619E+02 0.  0.
        -11    1    5    5    0    0 -0.29595328367E+02  0.31764028397E+02  0.24637494670E+03  0.25017084427E+03  0.00000000000E+00 0.  1.
         12    1    5    5    0    0  0.18685448101E+02 -0.18736356642E+02  0.41817325480E+02  0.49486217690E+02  0.00000000000E+00 0. -1.
         11    1    3    3    0    0 -0.67795026450E+01 -0.13709975016E+02 -0.27778197520E+01  0.15544817581E+02  0.00000000000E+00 0. -1.
        -12    1    3    3    0    0  0.48791055806E+02  0.70579604495E+02  0.71843795237E+02  0.11190879595E+03  0.00000000000E+00 0.  1.
          5    1    4    4  501    0  0.13854332240E+02 -0.92862099090E+02  0.89720722792E+02  0.12993303070E+03  0.41800000000E+01 0.  1.
         -5    1    4    4    0  501 -0.44956005135E+02  0.22964797856E+02  0.76251495270E+02  0.91543362781E+02  0.41800000000E+01 0.  1.
</event>
<event>
11    1  0.8551154E-009  0.1984932E+03  0.7561462E-02  0.1055594E+00
         22   -1    0    0    0    0  0.00000000000E+00  0.00000000000E+00  0.31004852429E+03  0.31004852429E+03  0.00000000000E+00 0.  1.
         22   -1    0    0    0    0 -0.00000000000E+00 -0.00000000000E+00 -0.28928738190E+03  0.28928738190E+03  0.00000000000E+00 0.  1.
        -24    2    1    2    0    0  0.39729455277E+02 -0.42244129955E+02 -0.15011280613E+03  0.18149338502E+03  0.83922572123E+02 0.  0.
         25    2    1    2    0    0 -0.17819053159E+03  0.33975512665E+02  0.85331346186E+02  0.23629158273E+03  0.12508426127E+03 0.  0.
         24    2    1    2    0    0  0.13846107631E+03  0.82686172904E+01  0.85542602334E+02  0.18155093843E+03  0.80021039393E+02 0.  0.
        -11    1    5    5    0    0  0.12771316963E+03 -0.20391031515E+02  0.65576783512E+02  0.14500607711E+03  0.00000000000E+00 0.  1.
         12    1    5    5    0    0  0.10747906683E+02  0.28659648805E+02  0.19965818823E+02  0.36544861321E+02  0.00000000000E+00 0. -1.
         11    1    3    3    0    0 -0.25027094661E+02 -0.46651925880E+01 -0.53652798861E+02  0.59386381559E+02  0.00000000000E+00 0. -1.
        -12    1    3    3    0    0  0.64756549938E+02 -0.37578937367E+02 -0.96460007266E+02  0.12210700347E+03  0.00000000000E+00 0.  1.
          5    1    4    4  501    0 -0.22205311453E+02  0.40852557233E+02  0.63148391821E+02  0.78531516468E+02  0.41800000000E+01 0. -1.
         -5    1    4    4    0  501 -0.15598522014E+03 -0.68770445677E+01  0.22182954366E+02  0.15776006626E+03  0.41800000000E+01 0. -1.
</event>
<event>
11    1  0.8551154E-009  0.2394836E+03  0.7561462E-02  0.1029655E+00
         22   -1    0    0    0    0  0.00000000000E+00  0.00000000000E+00  0.40780830787E+03  0.40780830787E+03  0.00000000000E+00 0. -1.
         22   -1    0    0    0    0 -0.00000000000E+00 -0.00000000000E+00 -0.19474147479E+04  0.19474147479E+04  0.00000000000E+00 0.  1.
         24    2    1    2    0    0 -0.21124632804E+03  0.12573928690E+02 -0.16674657049E+04  0.16827736260E+04  0.80635504338E+02 0.  0.
         25    2    1    2    0    0  0.16537129451E+03  0.36145903363E+02 -0.22275885018E+03  0.30646978588E+03  0.12509209786E+03 0.  0.
        -24    2    1    2    0    0  0.45875033527E+02 -0.48719832053E+02  0.35061811504E+03  0.36597964389E+03  0.80807774430E+02 0.  0.
        -11    1    3    3    0    0 -0.20260152239E+03  0.32038264659E+02 -0.15202031950E+04  0.15339790029E+04  0.00000000000E+00 0.  1.
         12    1    3    3    0    0 -0.86448056418E+01 -0.19464335969E+02 -0.14726250992E+03  0.14879462312E+03  0.00000000000E+00 0. -1.
         13    1    5    5    0    0  0.40334182322E+02 -0.17553721006E+00  0.25924111112E+03  0.26236011658E+03  0.00000000000E+00 0. -1.
        -14    1    5    5    0    0  0.55408512048E+01 -0.48544294843E+02  0.91377003923E+02  0.10361952731E+03  0.00000000000E+00 0.  1.
          5    1    4    4  501    0  0.17861883293E+03  0.55108475694E+02 -0.19757679775E+03  0.27202149727E+03  0.41800000000E+01 0.  1.
         -5    1    4    4    0  501 -0.13247538417E+02 -0.18962572331E+02 -0.25182052436E+02  0.34448288614E+02  0.41800000000E+01 0.  1.
</event>
<event>
11    1  0.8551154E-009  0.1937543E+03  0.7561462E-02  0.1059030E+00
         22   -1    0    0    0    0  0.00000000000E+00  0.00000000000E+00  0.31282525312E+03  0.31282525312E+03  0.00000000000E+00 0. -1.
         22   -1    0    0    0    0 -0.00000000000E+00 -0.00000000000E+00 -0.52477841558E+03  0.52477841558E+03  0.00000000000E+00 0.  1.
        -24    2    1    2    0    0  0.68633353543E+02 -0.91318430517E+01 -0.36539051384E+03  0.38032535270E+03  0.79644325143E+02 0.  0.
         25    2    1    2    0    0 -0.17904361269E+03  0.86789780499E+02 -0.52711236847E+01  0.23508305346E+03  0.12508867269E+03 0.  0.
         24    2    1    2    0    0  0.11041025914E+03 -0.77657937448E+02  0.15870847506E+03  0.22219526255E+03  0.77208639870E+02 0.  0.
        -11    1    5    5    0    0  0.16515072078E+02 -0.22923786143E+01  0.71785781234E+02  0.73696682373E+02  0.00000000000E+00 0.  1.
         12    1    5    5    0    0  0.93895187066E+02 -0.75365558833E+02  0.86922693829E+02  0.14849858018E+03  0.00000000000E+00 0. -1.
         11    1    3    3    0    0 -0.15891361473E+02  0.10068984166E+02 -0.69352798420E+02  0.71859101443E+02  0.00000000000E+00 0. -1.
        -12    1    3    3    0    0  0.84524715016E+02 -0.19200827217E+02 -0.29603771542E+03  0.30846625126E+03  0.00000000000E+00 0.  1.
          5    1    4    4  501    0 -0.15618905731E+03  0.11730535627E+03 -0.13541139786E+02  0.19584790808E+03  0.41800000000E+01 0. -1.
         -5    1    4    4    0  501 -0.22854555376E+02 -0.30515575773E+02  0.82700161017E+01  0.39235145374E+02  0.41800000000E+01 0. -1.
</event>
<event>
11    1  0.8551154E-009  0.1913008E+03  0.7561462E-02  0.1060852E+00
         22   -1    0    0    0    0  0.00000000000E+00  0.00000000000E+00  0.55465444240E+03  0.55465444240E+03  0.00000000000E+00 0. -1.
         22   -1    0    0    0    0 -0.00000000000E+00 -0.00000000000E+00 -0.11005751659E+04  0.11005751659E+04  0.00000000000E+00 0.  1.
        -24    2    1    2    0    0  0.76468623197E+02 -0.49985227285E+02 -0.92226831231E+03  0.93030075834E+03  0.80837415874E+02 0.  0.
         25    2    1    2    0    0  0.38580481021E+02  0.14135508746E+03 -0.10202790755E+03  0.21800813075E+03  0.12509251332E+03 0.  0.
         24    2    1    2    0    0 -0.11504910422E+03 -0.91369860171E+02  0.47837549639E+03  0.50692071917E+03  0.80874917263E+02 0.  0.
        -11    1    5    5    0    0 -0.36038442753E+02 -0.47809155224E+01  0.22279536744E+03  0.22574189301E+03  0.00000000000E+00 0.  1.
         12    1    5    5    0    0 -0.79010661465E+02 -0.86588944649E+02  0.25558012895E+03  0.28117882615E+03  0.00000000000E+00 0. -1.
         13    1    3    3    0    0 -0.16010923388E+02 -0.98095312523E+01 -0.89351507745E+02  0.91303168113E+02  0.00000000000E+00 0. -1.
        -14    1    3    3    0    0  0.92479546585E+02 -0.40175696032E+02 -0.83291680456E+03  0.83899759023E+03  0.00000000000E+00 0.  1.
          5    1    4    4  501    0  0.62066583279E+01  0.28756682969E+02  0.29462268992E+02  0.41844558991E+02  0.41800000000E+01 0. -1.
         -5    1    4    4    0  501  0.32373822693E+02  0.11259840449E+03 -0.13149017654E+03  0.17616357176E+03  0.41800000000E+01 0. -1.
</event>
<event>
11    1  0.8551154E-009  0.1894159E+03  0.7561462E-02  0.1062271E+00
         22   -1    0    0    0    0  0.00000000000E+00  0.00000000000E+00  0.26584440908E+03  0.26584440908E+03  0.00000000000E+00 0. -1.
         22   -1    0    0    0    0 -0.00000000000E+00 -0.00000000000E+00 -0.49562771693E+03  0.49562771693E+03  0.00000000000E+00 0. -1.
        -24    2    1    2    0    0 -0.13049368401E+03 -0.16239788314E+02 -0.31277520491E+03  0.34685944286E+03  0.72047290027E+02 0.  0.
         25    2    1    2    0    0  0.20187196674E+03  0.33998405738E+02 -0.46411903178E+02  0.24435698808E+03  0.12509232716E+03 0.  0.
         24    2    1    2    0    0 -0.71378282732E+02 -0.17758617424E+02  0.12940380025E+03  0.17025569507E+03  0.82652467888E+02 0.  0.
        -13    1    5    5    0    0 -0.41342160875E+02 -0.32156829090E+02  0.20285952654E+02  0.56167212839E+02  0.00000000000E+00 0.  1.
         14    1    5    5    0    0 -0.30036121857E+02  0.14398211666E+02  0.10911784759E+03  0.11408848224E+03  0.00000000000E+00 0. -1.
         11    1    3    3    0    0 -0.12353461214E+03 -0.35162174649E+02 -0.25230188515E+03  0.28311379368E+03  0.00000000000E+00 0. -1.
        -12    1    3    3    0    0 -0.69590718750E+01  0.18922386335E+02 -0.60473319761E+02  0.63745649176E+02  0.00000000000E+00 0.  1.
          5    1    4    4  501    0  0.18051031224E+03 -0.14219977016E+02 -0.58040500568E+02  0.19019030647E+03  0.41800000000E+01 0. -1.
         -5    1    4    4    0  501  0.21361654508E+02  0.48218382754E+02  0.11628597391E+02  0.54166681604E+02  0.41800000000E+01 0. -1.
</event>
<event>
11    1  0.8551154E-009  0.2464462E+03  0.7561462E-02  0.1025810E+00
         22   -1    0    0    0    0  0.00000000000E+00  0.00000000000E+00  0.12228595266E+04  0.12228595266E+04  0.00000000000E+00 0.  1.
         22   -1    0    0    0    0 -0.00000000000E+00 -0.00000000000E+00 -0.70325608915E+03  0.70325608915E+03  0.00000000000E+00 0.  1.
         24    2    1    2    0    0 -0.37705076922E+02  0.59121725654E+02 -0.63424295514E+03  0.64311462455E+03  0.80095211408E+02 0.  0.
         25    2    1    2    0    0  0.23329935211E+03  0.13025579584E+02  0.29965065532E+03  0.40004160944E+03  0.12507805812E+03 0.  0.
        -24    2    1    2    0    0 -0.19559427519E+03 -0.72147305238E+02  0.85419573725E+03  0.88295938176E+03  0.80650841021E+02 0.  0.
        -13    1    3    3    0    0 -0.16063394768E+02 -0.12255756804E+02 -0.29866892193E+03  0.29935156782E+03  0.00000000000E+00 0.  1.
         14    1    3    3    0    0 -0.21641682154E+02  0.71377482458E+02 -0.33557403321E+03  0.34376305673E+03  0.00000000000E+00 0. -1.
         11    1    5    5    0    0 -0.35679548038E+02  0.17511235945E+02  0.17484831773E+03  0.17930869400E+03  0.00000000000E+00 0. -1.
        -12    1    5    5    0    0 -0.15991472715E+03 -0.89658541183E+02  0.67934741952E+03  0.70365068776E+03  0.00000000000E+00 0.  1.
          5    1    4    4  501    0  0.33664069198E+02  0.48284378248E+02  0.43297173535E+02  0.73189947219E+02  0.41800000000E+01 0. -1.
         -5    1    4    4    0  501  0.19963528291E+03 -0.35258798664E+02  0.25635348179E+03  0.32685166222E+03  0.41800000000E+01 0. -1.
</event>
<event>
11    1  0.8551154E-009  0.1591165E+03  0.7561462E-02  0.1087911E+00
         22   -1    0    0    0    0  0.00000000000E+00  0.00000000000E+00  0.17935956039E+04  0.17935956039E+04  0.00000000000E+00 0.  1.
         22   -1    0    0    0    0 -0.00000000000E+00 -0.00000000000E+00 -0.47019297288E+02  0.47019297288E+02  0.00000000000E+00 0. -1.
        -24    2    1    2    0    0  0.91029036754E+02 -0.35665869937E+02  0.72630317905E+02  0.14634290945E+03  0.81134112783E+02 0.  0.
         25    2    1    2    0    0 -0.10235169035E+03  0.19377110761E+02  0.80584183225E+03  0.82211918440E+03  0.12509018273E+03 0.  0.
         24    2    1    2    0    0  0.11322653593E+02  0.16288759176E+02  0.86810415650E+03  0.87215280738E+03  0.81560816123E+02 0.  0.
        -11    1    5    5    0    0  0.43006473134E+02  0.20937126564E+02  0.64377860901E+03  0.64555310968E+03  0.00000000000E+00 0.  1.
         12    1    5    5    0    0 -0.31683819541E+02 -0.46483673873E+01  0.22432554750E+03  0.22659969770E+03  0.00000000000E+00 0. -1.
         11    1    3    3    0    0  0.55533305981E+02 -0.60560025603E+02  0.36512636996E+02  0.89914611908E+02  0.00000000000E+00 0. -1.
        -12    1    3    3    0    0  0.35495730773E+02  0.24894155666E+02  0.36117680909E+02  0.56428297543E+02  0.00000000000E+00 0.  1.
          5    1    4    4  501    0 -0.10223881277E+02  0.25236551474E+02  0.53948361886E+03  0.54018650362E+03  0.41800000000E+01 0. -1.
         -5    1    4    4    0  501 -0.92127809070E+02 -0.58594407137E+01  0.26635821339E+03  0.28193268078E+03  0.41800000000E+01 0. -1.
</event>
<event>
11    1  0.8551154E-009  0.1375372E+03  0.7561462E-02  0.1110340E+00
         22   -1    0    0    0    0  0.00000000000E+00  0.00000000000E+00  0.54013951596E+03  0.54013951596E+03  0.00000000000E+00 0. -1.
         22   -1    0    0    0    0 -0.00000000000E+00 -0.00000000000E+00 -0.65413435064E+03  0.65413435064E+03  0.00000000000E+00 0.  1.
        -24    2    1    2    0    0 -0.56385797727E+02 -0.92730467319E+01 -0.62737992793E+03  0.63511378210E+03  0.80613861525E+02 0.  0.
         25    2    1    2    0    0  0.59549716891E+02  0.24948937181E+02  0.25567522733E+03  0.29185697907E+03  0.12506820585E+03 0.  0.
         24    2    1    2    0    0 -0.31639191637E+01 -0.15675890449E+02  0.25770986592E+03  0.26730310542E+03  0.69143555376E+02 0.  0.
        -11    1    5    5    0    0  0.30974358354E+02 -0.88476418911E+01  0.80504843913E+02  0.86710561848E+02  0.00000000000E+00 0.  1.
         12    1    5    5    0    0 -0.34138277518E+02 -0.68282485578E+01  0.17720502201E+03  0.18059254358E+03  0.00000000000E+00 0. -1.
         13    1    3    3    0    0 -0.60246843695E+02  0.17689710170E+02 -0.29439235489E+03  0.30101406386E+03  0.00000000000E+00 0. -1.
        -14    1    3    3    0    0  0.38610459680E+01 -0.26962756902E+02 -0.33298757304E+03  0.33409971825E+03  0.00000000000E+00 0.  1.
          5    1    4    4  501    0  0.29442038422E+02  0.55990580285E+02  0.23563037960E+03  0.24401009589E+03  0.41800000000E+01 0.  1.
         -5    1    4    4    0  501  0.30107678469E+02 -0.31041643104E+02  0.20044847729E+02  0.47846883178E+02  0.41800000000E+01 0.  1.
</event>
<event>
11    1  0.8551154E-009  0.1715811E+03  0.7561462E-02  0.1076664E+00
         22   -1    0    0    0    0  0.00000000000E+00  0.00000000000E+00  0.65796938454E+03  0.65796938454E+03  0.00000000000E+00 0.  1.
         22   -1    0    0    0    0 -0.00000000000E+00 -0.00000000000E+00 -0.17565865829E+03  0.17565865829E+03  0.00000000000E+00 0.  1.
         24    2    1    2    0    0  0.11440644381E+03  0.31294898696E+01 -0.90126998636E+02  0.16583102196E+03  0.79236505922E+02 0.  0.
         25    2    1    2    0    0 -0.13645314391E+03  0.73917446779E+02  0.21705379927E+03  0.29469041451E+03  0.12508732632E+03 0.  0.
        -24    2    1    2    0    0  0.22046700101E+02 -0.77046936648E+02  0.35538392562E+03  0.37310660636E+03  0.80551335725E+02 0.  0.
        -13    1    3    3    0    0  0.90148156452E+02 -0.24101899029E+02 -0.89586927337E+02  0.12935767932E+03  0.00000000000E+00 0.  1.
         14    1    3    3    0    0  0.24258287354E+02  0.27231388899E+02 -0.54007129862E+00  0.36473342645E+02  0.00000000000E+00 0. -1.
         11    1    5    5    0    0  0.31783588557E+02 -0.53016887606E+02  0.10856321656E+03  0.12492781461E+03  0.00000000000E+00 0. -1.
        -12    1    5    5    0    0 -0.97368884569E+01 -0.24030049043E+02  0.24682070906E+03  0.24817879175E+03  0.00000000000E+00 0.  1.
          5    1    4    4  501    0 -0.15469573945E+03  0.44195197108E+02  0.15532175214E+03  0.22366561278E+03  0.41800000000E+01 0. -1.
         -5    1    4    4    0  501  0.18242595548E+02  0.29722249671E+02  0.61732047127E+02  0.71024801727E+02  0.41800000000E+01 0. -1.
</event>
<event>
11    1  0.8551154E-009  0.1263646E+03  0.7561462E-02  0.1123818E+00
         22   -1    0    0    0    0  0.00000000000E+00  0.00000000000E+00  0.35269102901E+02  0.35269102901E+02  0.00000000000E+00 0.  1.
         22   -1    0    0    0    0 -0.00000000000E+00 -0.00000000000E+00 -0.78273711428E+03  0.78273711428E+03  0.00000000000E+00 0.  1.
         24    2    1    2    0    0 -0.84143443868E+01  0.17390236769E+02 -0.39941109295E+03  0.40780540924E+03  0.80017554997E+02 0.  0.
         25    2    1    2    0    0  0.99626813807E+01 -0.97009794345E+01 -0.27459742249E+03  0.30206790892E+03  0.12509161898E+03 0.  0.
        -24    2    1    2    0    0 -0.15483369939E+01 -0.76892573343E+01 -0.73459495935E+02  0.10813289902E+03  0.78961410073E+02 0.  0.
        -13    1    3    3    0    0 -0.20083280704E+02 -0.16053311692E+02 -0.31780947662E+03  0.31884778564E+03  0.00000000000E+00 0.  1.
         14    1    3    3    0    0  0.11668936317E+02  0.33443548461E+02 -0.81601616337E+02  0.88957623604E+02  0.00000000000E+00 0. -1.
         13    1    5    5    0    0 -0.28991374232E+01  0.13512993526E+02 -0.83498968568E+02  0.84635003065E+02  0.00000000000E+00 0. -1.
        -14    1    5    5    0    0  0.13508004293E+01 -0.21202250861E+02  0.10039472633E+02  0.23497895951E+02  0.00000000000E+00 0.  1.
          5    1    4    4  501    0  0.64279775838E+02  0.54468155497E+01 -0.10512255264E+03  0.12340899828E+03  0.41800000000E+01 0. -1.
         -5    1    4    4    0  501 -0.54317094457E+02 -0.15147794984E+02 -0.16947486985E+03  0.17865891065E+03  0.41800000000E+01 0. -1.
</event>
<event>
11    1  0.8551154E-009  0.1380821E+03  0.7561462E-02  0.1109719E+00
         22   -1    0    0    0    0  0.00000000000E+00  0.00000000000E+00  0.22880993768E+04  0.22880993768E+04  0.00000000000E+00 0. -1.
         22   -1    0    0    0    0 -0.00000000000E+00 -0.00000000000E+00 -0.48824997113E+03  0.48824997113E+03  0.00000000000E+00 0.  1.
        -24    2    1    2    0    0 -0.40728725229E+02  0.41523074831E+02 -0.41818411744E+03  0.42976866656E+03  0.80250581776E+02 0.  0.
         25    2    1    2    0    0  0.97483572126E+01 -0.77007229631E+02  0.22376557622E+02  0.14890869778E+03  0.12509175057E+03 0.  0.
         24    2    1    2    0    0  0.30980368017E+02  0.35484154800E+02  0.21956569655E+04  0.21976719836E+04  0.81447706355E+02 0.  0.
        -13    1    5    5    0    0 -0.11919907142E+02  0.33249517468E+02  0.41606940178E+03  0.41756599682E+03  0.00000000000E+00 0.  1.
         14    1    5    5    0    0  0.42900275159E+02  0.22346373317E+01  0.17795875637E+04  0.17801059868E+04  0.00000000000E+00 0. -1.
         11    1    3    3    0    0  0.73866274716E+01 -0.17852740558E+02 -0.47322659663E+02  0.51114740813E+02  0.00000000000E+00 0. -1.
        -12    1    3    3    0    0 -0.48115352701E+02  0.59375815389E+02 -0.37086145778E+03  0.37865392575E+03  0.00000000000E+00 0.  1.
          5    1    4    4  501    0 -0.10791525570E+02  0.26899812176E+02  0.30893589887E+02  0.42566926308E+02  0.41800000000E+01 0. -1.
         -5    1    4    4    0  501  0.20539882782E+02 -0.10390704181E+03 -0.85170322650E+01  0.10634177147E+03  0.41800000000E+01 0. -1.
</event>
<event>
11    1  0.8551154E-009  0.1566860E+03  0.7561462E-02  0.1090236E+00
         22   -1    0    0    0    0  0.00000000000E+00  0.00000000000E+00  0.70479797487E+03  0.70479797487E+03  0.00000000000E+00 0. -1.
         22   -1    0    0    0    0 -0.00000000000E+00 -0.00000000000E+00 -0.44409169752E+03  0.44409169752E+03  0.00000000000E+00 0.  1.
         24    2    1    2    0    0 -0.24185176070E+02 -0.77883313679E+02 -0.39354674230E+03  0.40977975026E+03  0.79935424270E+02 0.  0.
         25    2    1    2    0    0 -0.66278346209E+02  0.24079190495E+02  0.11542957604E+03  0.18423727918E+03  0.12508701541E+03 0.  0.
        -24    2    1    2    0    0  0.90463522278E+02  0.53804123184E+02  0.53882344361E+03  0.55487264295E+03  0.80463743220E+02 0.  0.
        -11    1    3    3    0    0 -0.53725489312E+02 -0.46803522331E+02 -0.23905677530E+03  0.24944967372E+03  0.00000000000E+00 0.  1.
         12    1    3    3    0    0  0.29540313243E+02 -0.31079791348E+02 -0.15448996700E+03  0.16033007653E+03  0.00000000000E+00 0. -1.
         13    1    5    5    0    0  0.39170910023E+02  0.45761795583E+02  0.43112410707E+03  0.43531195460E+03  0.00000000000E+00 0. -1.
        -14    1    5    5    0    0  0.51292612256E+02  0.80423276006E+01  0.10769933654E+03  0.11956068834E+03  0.00000000000E+00 0.  1.
          5    1    4    4  501    0  0.97640735110E+01  0.43776808120E+02  0.60392001535E+00  0.45050895441E+02  0.41800000000E+01 0.  1.
         -5    1    4    4    0  501 -0.76042419720E+02 -0.19697617625E+02  0.11482565602E+03  0.13918638374E+03  0.41800000000E+01 0.  1.
</event>
<event>
11    1  0.8551154E-009  0.4618005E+03  0.7561462E-02  0.9483179E-01
         22   -1    0    0    0    0  0.00000000000E+00  0.00000000000E+00  0.38455898612E+04  0.38455898612E+04  0.00000000000E+00 0.  1.
         22   -1    0    0    0    0 -0.00000000000E+00 -0.00000000000E+00 -0.10007690205E+04  0.10007690205E+04  0.00000000000E+00 0. -1.
         24    2    1    2    0    0  0.47768123700E+02  0.43513000924E+03 -0.83878247186E+03  0.94986537802E+03  0.84073079319E+02 0.  0.
         25    2    1    2    0    0 -0.14504391190E+03 -0.52129342443E+03  0.63187979862E+03  0.84125143239E+03  0.12508925560E+03 0.  0.
        -24    2    1    2    0    0  0.97275788199E+02  0.86163415182E+02  0.30517235140E+04  0.30552420713E+04  0.67830635022E+02 0.  0.
        -13    1    3    3    0    0  0.86747477129E+01  0.11092776092E+03 -0.14235530307E+03  0.18067997039E+03  0.00000000000E+00 0.  1.
         14    1    3    3    0    0  0.39093375987E+02  0.32420224833E+03 -0.69642716880E+03  0.76918540763E+03  0.00000000000E+00 0. -1.
         11    1    5    5    0    0  0.11352317465E+02  0.18969251459E+02  0.16697142306E+03  0.16842851223E+03  0.00000000000E+00 0. -1.
        -12    1    5    5    0    0  0.85923470734E+02  0.67194163724E+02  0.28847520909E+04  0.28868135590E+04  0.00000000000E+00 0.  1.
          5    1    4    4  501    0  0.19583613772E+02 -0.98994936786E+02  0.13633538551E+03  0.16967122673E+03  0.41800000000E+01 0. -1.
         -5    1    4    4    0  501 -0.16462752567E+03 -0.42229848764E+03  0.49554441311E+03  0.67158020566E+03  0.41800000000E+01 0. -1.
</event>
<event>
11    1  0.8551154E-009  0.1597168E+03  0.7561462E-02  0.1087344E+00
         22   -1    0    0    0    0  0.00000000000E+00  0.00000000000E+00  0.51394521148E+03  0.51394521148E+03  0.00000000000E+00 0.  1.
         22   -1    0    0    0    0 -0.00000000000E+00 -0.00000000000E+00 -0.54628474755E+03  0.54628474755E+03  0.00000000000E+00 0. -1.
         24    2    1    2    0    0 -0.72148665717E+02 -0.68087861854E+02 -0.39150614056E+03  0.41181914508E+03  0.80477097770E+02 0.  0.
         25    2    1    2    0    0  0.33005635297E+02  0.10675674594E+03 -0.88872884401E+02  0.18982080132E+03  0.12508865762E+03 0.  0.
        -24    2    1    2    0    0  0.39143030420E+02 -0.38668884085E+02  0.44803948889E+03  0.45859001263E+03  0.80857631984E+02 0.  0.
        -13    1    3    3    0    0 -0.32811490411E+02  0.12451934632E+02 -0.15435853123E+03  0.15829782292E+03  0.00000000000E+00 0.  1.
         14    1    3    3    0    0 -0.39337175305E+02 -0.80539796486E+02 -0.23714760933E+03  0.25352132216E+03  0.00000000000E+00 0. -1.
         13    1    5    5    0    0 -0.11322328153E+02  0.18010319000E+02  0.12145193928E+03  0.12330101484E+03  0.00000000000E+00 0. -1.
        -14    1    5    5    0    0  0.50465358573E+02 -0.56679203085E+02  0.32658754961E+03  0.33528899779E+03  0.00000000000E+00 0.  1.
          5    1    4    4  501    0  0.26082887578E+02  0.85664984480E+02 -0.12097378359E+03  0.15056870626E+03  0.41800000000E+01 0. -1.
         -5    1    4    4    0  501  0.69227477194E+01  0.21091761460E+02  0.32100899188E+02  0.39252095054E+02  0.41800000000E+01 0. -1.
</event>
<event>
11    1  0.8551154E-009  0.1494672E+03  0.7561462E-02  0.1097424E+00
         22   -1    0    0    0    0  0.00000000000E+00  0.00000000000E+00  0.16086672668E+04  0.16086672668E+04  0.00000000000E+00 0.  1.
         22   -1    0    0    0    0 -0.00000000000E+00 -0.00000000000E+00 -0.15369696211E+03  0.15369696211E+03  0.00000000000E+00 0.  1.
         24    2    1    2    0    0  0.20810623782E+02  0.38641695886E+02 -0.12694929727E+03  0.15709122660E+03  0.81457146251E+02 0.  0.
         25    2    1    2    0    0  0.32091659530E+02  0.41919912567E+02  0.58427376300E+03  0.59984178980E+03  0.12508872442E+03 0.  0.
        -24    2    1    2    0    0 -0.52902283312E+02 -0.80561608453E+02  0.99764583899E+03  0.10054312125E+04  0.79409563504E+02 0.  0.
        -11    1    3    3    0    0 -0.90498523744E+01  0.34947987805E+02 -0.12119551004E+03  0.12645795085E+03  0.00000000000E+00 0.  1.
         12    1    3    3    0    0  0.29860476157E+02  0.36937080815E+01 -0.57537872262E+01  0.30633275749E+02  0.00000000000E+00 0. -1.
         11    1    5    5    0    0 -0.54470307475E+02 -0.62978864561E+02  0.45869986706E+03  0.46619622459E+03  0.00000000000E+00 0. -1.
        -12    1    5    5    0    0  0.15680241632E+01 -0.17582743892E+02  0.53894597192E+03  0.53923498796E+03  0.00000000000E+00 0.  1.
          5    1    4    4  501    0  0.15924899817E+02  0.52815946321E+02  0.57533870979E+03  0.57799241344E+03  0.41800000000E+01 0.  1.
         -5    1    4    4    0  501  0.16166759713E+02 -0.10896033754E+02  0.89350532164E+01  0.21849376356E+02  0.41800000000E+01 0.  1.
</event>
<event>
11    1  0.8551154E-009  0.1298653E+03  0.7561462E-02  0.1119435E+00
         22   -1    0    0    0    0  0.00000000000E+00  0.00000000000E+00  0.62180219331E+03  0.62180219331E+03  0.00000000000E+00 0. -1.
         22   -1    0    0    0    0 -0.00000000000E+00 -0.00000000000E+00 -0.36472159349E+03  0.36472159349E+03  0.00000000000E+00 0.  1.
         24    2    1    2    0    0  0.28220531250E+01  0.74253692549E+00 -0.31209071215E+03  0.32281059585E+03  0.82447273066E+02 0.  0.
         25    2    1    2    0    0  0.85304525157E+01 -0.33755826292E+02  0.53462054788E+02  0.14042008187E+03  0.12508950260E+03 0.  0.
        -24    2    1    2    0    0 -0.11352505641E+02  0.33013289367E+02  0.51570925719E+03  0.52329310907E+03  0.81614235224E+02 0.  0.
        -11    1    3    3    0    0  0.35739151247E+02 -0.45179762754E+01 -0.24767109332E+03  0.25027718535E+03  0.00000000000E+00 0.  1.
         12    1    3    3    0    0 -0.32917098122E+02  0.52605132009E+01 -0.64419618835E+02  0.72533410500E+02  0.00000000000E+00 0. -1.
         11    1    5    5    0    0  0.13199017570E+02  0.10892012691E+02  0.44406114601E+03  0.44439076431E+03  0.00000000000E+00 0. -1.
        -12    1    5    5    0    0 -0.24551523211E+02  0.22121276676E+02  0.71648111182E+02  0.78902344767E+02  0.00000000000E+00 0.  1.
          5    1    4    4  501    0  0.98228628418E+01 -0.25510830161E+01  0.90858141087E+02  0.91518691319E+02  0.41800000000E+01 0.  1.
         -5    1    4    4    0  501 -0.12924103261E+01 -0.31204743276E+02 -0.37396086300E+02  0.48901390552E+02  0.41800000000E+01 0.  1.
</event>
<event>
11    1  0.8551154E-009  0.2492853E+03  0.7561462E-02  0.1024281E+00
         22   -1    0    0    0    0  0.00000000000E+00  0.00000000000E+00  0.66586388254E+03  0.66586388254E+03  0.00000000000E+00 0. -1.
         22   -1    0    0    0    0 -0.00000000000E+00 -0.00000000000E+00 -0.16143523631E+03  0.16143523631E+03  0.00000000000E+00 0. -1.
         24    2    1    2    0    0  0.66929241909E+00  0.17090433034E+01  0.43885444235E+02  0.90775665468E+02  0.79441301879E+02 0.  0.
         25    2    1    2    0    0 -0.52372163202E+02  0.20795584521E+03  0.32608173224E+02  0.25039715435E+03  0.12508782880E+03 0.  0.
        -24    2    1    2    0    0  0.51702870783E+02 -0.20966488851E+03  0.42793502877E+03  0.48612629903E+03  0.80980475671E+02 0.  0.
        -11    1    3    3    0    0  0.37152961794E+02 -0.55690906440E+01  0.37402836267E+02  0.53012540983E+02  0.00000000000E+00 0.  1.
         12    1    3    3    0    0 -0.36483669375E+02  0.72781339474E+01  0.64826079672E+01  0.37763124485E+02  0.00000000000E+00 0. -1.
         11    1    5    5    0    0  0.64885921715E+02 -0.19140293317E+03  0.34165733131E+03  0.39695717363E+03  0.00000000000E+00 0. -1.
        -12    1    5    5    0    0 -0.13183050932E+02 -0.18261955341E+02  0.86277697464E+02  0.89169125399E+02  0.00000000000E+00 0.  1.
          5    1    4    4  501    0 -0.72624061336E+02  0.17399064733E+03 -0.14031604032E+02  0.18910673693E+03  0.41800000000E+01 0. -1.
         -5    1    4    4    0  501  0.20251898133E+02  0.33965197881E+02  0.46639777256E+02  0.61290417421E+02  0.41800000000E+01 0. -1.
</event>
<event>
11    1  0.8551154E-009  0.1535910E+03  0.7561462E-02  0.1093265E+00
         22   -1    0    0    0    0  0.00000000000E+00  0.00000000000E+00  0.68682698523E+03  0.68682698523E+03  0.00000000000E+00 0.  1.
         22   -1    0    0    0    0 -0.00000000000E+00 -0.00000000000E+00 -0.32584478284E+03  0.32584478284E+03  0.00000000000E+00 0.  1.
         24    2    1    2    0    0 -0.21448644498E+00 -0.11625208453E+02 -0.27660550097E+03  0.28863269047E+03  0.81627417946E+02 0.  0.
         25    2    1    2    0    0 -0.89871742699E+01 -0.78907755486E+02  0.11534816248E+03  0.18777704008E+03  0.12509122677E+03 0.  0.
        -24    2    1    2    0    0  0.92016607149E+01  0.90532963939E+02  0.52223954089E+03  0.53626203752E+03  0.81005843621E+02 0.  0.
        -11    1    3    3    0    0  0.51308302447E+01  0.20259369105E+02 -0.23507457480E+03  0.23600174401E+03  0.00000000000E+00 0.  1.
         12    1    3    3    0    0 -0.53453166897E+01 -0.31884577558E+02 -0.41530926172E+02  0.52630946460E+02  0.00000000000E+00 0. -1.
         13    1    5    5    0    0 -0.31579908340E+02  0.68613545860E+02  0.32374049361E+03  0.33243498085E+03  0.00000000000E+00 0. -1.
        -14    1    5    5    0    0  0.40781569055E+02  0.21919418079E+02  0.19849904728E+03  0.20382705668E+03  0.00000000000E+00 0.  1.
          5    1    4    4  501    0 -0.66660120008E+02 -0.33938159176E+02  0.58669231747E+02  0.95157350749E+02  0.41800000000E+01 0. -1.
         -5    1    4    4    0  501  0.57672945738E+02 -0.44969596310E+02  0.56678930730E+02  0.92619689328E+02  0.41800000000E+01 0. -1.
</event>
<event>
11    1  0.8551154E-009  0.2104779E+03  0.7561462E-02  0.1047352E+00
         22   -1    0    0    0    0  0.00000000000E+00  0.00000000000E+00  0.97554559275E+03  0.97554559275E+03  0.00000000000E+00 0.  1.
         22   -1    0    0    0    0 -0.00000000000E+00 -0.00000000000E+00 -0.27545230225E+03  0.27545230225E+03  0.00000000000E+00 0.  1.
         24    2    1    2    0    0  0.10655284015E+03  0.45122955507E+02 -0.99169219795E+02  0.17119396988E+03  0.77995206967E+02 0.  0.
         25    2    1    2    0    0 -0.25839262402E+03  0.14087126376E+02  0.29297558914E+02  0.28891948454E+03  0.12510366226E+03 0.  0.
        -24    2    1    2    0    0  0.15183978387E+03 -0.59210081882E+02  0.76996495138E+03  0.79088444057E+03  0.78044975650E+02 0.  0.
        -13    1    3    3    0    0  0.95036466293E+02  0.55620256071E+02 -0.10718626054E+03  0.15366989705E+03  0.00000000000E+00 0.  1.
         14    1    3    3    0    0  0.11516373859E+02 -0.10497300565E+02  0.80170407492E+01  0.17524072825E+02  0.00000000000E+00 0. -1.
         11    1    5    5    0    0 -0.13096991953E+01 -0.16437234925E+02  0.14797289073E+03  0.14888879876E+03  0.00000000000E+00 0. -1.
        -12    1    5    5    0    0  0.15314948307E+03 -0.42772846958E+02  0.62199206065E+03  0.64199564181E+03  0.00000000000E+00 0.  1.
          5    1    4    4  501    0 -0.23320598347E+03 -0.13466999413E+02 -0.10920674379E+02  0.23388699051E+03  0.41800000000E+01 0. -1.
         -5    1    4    4    0  501 -0.25186640550E+02  0.27554125789E+02  0.40218233293E+02  0.55032494033E+02  0.41800000000E+01 0. -1.
</event>
<event>
11    1  0.8551154E-009  0.2277709E+03  0.7561462E-02  0.1036456E+00
         22   -1    0    0    0    0  0.00000000000E+00  0.00000000000E+00  0.36216774317E+03  0.36216774317E+03  0.00000000000E+00 0. -1.
         22   -1    0    0    0    0 -0.00000000000E+00 -0.00000000000E+00 -0.66858298003E+03  0.66858298003E+03  0.00000000000E+00 0.  1.
        -24    2    1    2    0    0  0.13317546687E+03 -0.10808308429E+03 -0.40708166731E+03  0.44913512948E+03  0.81174026539E+02 0.  0.
         25    2    1    2    0    0 -0.25609282647E+03  0.18989696948E+03 -0.61644566822E+02  0.34798206004E+03  0.12508823567E+03 0.  0.
         24    2    1    2    0    0  0.12291735960E+03 -0.81813885188E+02  0.16231099728E+03  0.23363353368E+03  0.80234525742E+02 0.  0.
        -13    1    5    5    0    0 -0.50663789252E+01  0.41505833722E+01  0.29266226492E+02  0.29990124222E+02  0.00000000000E+00 0.  1.
         14    1    5    5    0    0  0.12798373852E+03 -0.85964468560E+02  0.13304477079E+03  0.20364340946E+03  0.00000000000E+00 0. -1.
         13    1    3    3    0    0  0.52010551801E+02 -0.30542622141E+02 -0.63050403822E+02  0.87254241662E+02  0.00000000000E+00 0. -1.
        -14    1    3    3    0    0  0.81164915073E+02 -0.77540462152E+02 -0.34403126349E+03  0.36188088782E+03  0.00000000000E+00 0.  1.
          5    1    4    4  501    0 -0.23994589118E+03  0.18155250171E+03 -0.89957737681E+02  0.31407834777E+03  0.41800000000E+01 0. -1.
         -5    1    4    4    0  501 -0.16146935298E+02  0.83444677765E+01  0.28313170859E+02  0.33903712276E+02  0.41800000000E+01 0. -1.
</event>
<event>
11    1  0.8551154E-009  0.1449257E+03  0.7561462E-02  0.1102179E+00
         22   -1    0    0    0    0  0.00000000000E+00  0.00000000000E+00  0.21153497651E+03  0.21153497651E+03  0.00000000000E+00 0. -1.
         22   -1    0    0    0    0 -0.00000000000E+00 -0.00000000000E+00 -0.52886357257E+03  0.52886357257E+03  0.00000000000E+00 0. -1.
        -24    2    1    2    0    0 -0.22290976769E+01 -0.42861645826E+02 -0.33264462915E+03  0.34583982550E+03  0.84324646666E+02 0.  0.
         25    2    1    2    0    0 -0.43648567208E+02 -0.18177786204E+02 -0.14659656681E+03  0.19843034130E+03  0.12509363540E+03 0.  0.
         24    2    1    2    0    0  0.45877664885E+02  0.61039432030E+02  0.16191259991E+03  0.19612838228E+03  0.80125401262E+02 0.  0.
        -11    1    5    5    0    0 -0.17386938356E+02 -0.42065464397E+00  0.54132321323E+02  0.56857636141E+02  0.00000000000E+00 0.  1.
         12    1    5    5    0    0  0.63264603241E+02  0.61460086674E+02  0.10778027859E+03  0.13927074614E+03  0.00000000000E+00 0. -1.
         13    1    3    3    0    0  0.10490677626E+01 -0.68303204350E+02 -0.25893001840E+03  0.26778943724E+03  0.00000000000E+00 0. -1.
        -14    1    3    3    0    0 -0.32781654395E+01  0.25441558523E+02 -0.73714610755E+02  0.78050388259E+02  0.00000000000E+00 0.  1.
          5    1    4    4  501    0 -0.32691750051E+02 -0.11829686162E+02 -0.16887431097E+03  0.17246651067E+03  0.41800000000E+01 0.  1.
         -5    1    4    4    0  501 -0.10956817157E+02 -0.63481000416E+01  0.22277744160E+02  0.25963830634E+02  0.41800000000E+01 0.  1.
</event>
<event>
11    1  0.8551154E-009  0.1272680E+03  0.7561462E-02  0.1122672E+00
         22   -1    0    0    0    0  0.00000000000E+00  0.00000000000E+00  0.15817515310E+03  0.15817515310E+03  0.00000000000E+00 0.  1.
         22   -1    0    0    0    0 -0.00000000000E+00 -0.00000000000E+00 -0.49014878290E+03  0.49014878290E+03  0.00000000000E+00 0.  1.
        -24    2    1    2    0    0  0.15052733674E+02 -0.17028589423E+02 -0.40825787811E+03  0.41669316250E+03  0.80262936579E+02 0.  0.
         25    2    1    2    0    0 -0.17105275060E+02  0.35531392485E+02  0.22503063529E+02  0.13306220080E+03  0.12507634119E+03 0.  0.
         24    2    1    2    0    0  0.20525413857E+01 -0.18502803062E+02  0.53781184789E+02  0.98568572699E+02  0.80478450776E+02 0.  0.
        -13    1    5    5    0    0 -0.26458357231E+01  0.25585070401E+02  0.47188792179E+02  0.53743635730E+02  0.00000000000E+00 0.  1.
         14    1    5    5    0    0  0.46983771087E+01 -0.44087873463E+02  0.65923926092E+01  0.44824936969E+02  0.00000000000E+00 0. -1.
         11    1    3    3    0    0  0.17137257162E+02  0.60578339647E+01 -0.17445104879E+02  0.25193543212E+02  0.00000000000E+00 0. -1.
        -12    1    3    3    0    0 -0.20845234875E+01 -0.23086423387E+02 -0.39081277323E+03  0.39149961929E+03  0.00000000000E+00 0.  1.
          5    1    4    4  501    0 -0.19824757271E+02  0.16177784999E+02 -0.50826763423E+02  0.57057637599E+02  0.41800000000E+01 0.  1.
         -5    1    4    4    0  501  0.27194822107E+01  0.19353607486E+02  0.73329826952E+02  0.76004563199E+02  0.41800000000E+01 0.  1.
</event>
<event>
11    1  0.8551154E-009  0.1595682E+03  0.7561462E-02  0.1087484E+00
         22   -1    0    0    0    0  0.00000000000E+00  0.00000000000E+00  0.37941419890E+03  0.37941419890E+03  0.00000000000E+00 0. -1.
         22   -1    0    0    0    0 -0.00000000000E+00 -0.00000000000E+00 -0.58404445287E+03  0.58404445287E+03  0.00000000000E+00 0. -1.
         24    2    1    2    0    0  0.74937580812E+02 -0.62569870877E+02 -0.52001899076E+03  0.53514002232E+03  0.80152747813E+02 0.  0.
         25    2    1    2    0    0 -0.91340497736E+02  0.98970720147E+02  0.13866272387E+03  0.23025722527E+03  0.12511094606E+03 0.  0.
        -24    2    1    2    0    0  0.16402916923E+02 -0.36400849269E+02  0.17672601292E+03  0.19806140418E+03  0.80013490570E+02 0.  0.
        -11    1    3    3    0    0 -0.12788705108E+02  0.34701839626E+00 -0.21104724886E+02  0.24679562651E+02  0.00000000000E+00 0.  1.
         12    1    3    3    0    0  0.87726285920E+02 -0.62916889274E+02 -0.49891426587E+03  0.51046045967E+03  0.00000000000E+00 0. -1.
         11    1    5    5    0    0 -0.30650563785E+01 -0.38466024953E+02  0.17408074187E+03  0.17830629360E+03  0.00000000000E+00 0. -1.
        -12    1    5    5    0    0  0.19467973302E+02  0.20651756838E+01  0.26452710424E+01  0.19755110579E+02  0.00000000000E+00 0.  1.
          5    1    4    4  501    0 -0.82098628814E+02  0.24714754911E+02  0.17219034221E+02  0.87549822975E+02  0.41800000000E+01 0. -1.
         -5    1    4    4    0  501 -0.92418689216E+01  0.74255965235E+02  0.12144368965E+03  0.14270740230E+03  0.41800000000E+01 0. -1.
</event>
<event>
11    1  0.8551154E-009  0.1691730E+03  0.7561462E-02  0.1078754E+00
         22   -1    0    0    0    0  0.00000000000E+00  0.00000000000E+00  0.24430960791E+03  0.24430960791E+03  0.00000000000E+00 0.  1.
         22   -1    0    0    0    0 -0.00000000000E+00 -0.00000000000E+00 -0.78031515351E+03  0.78031515351E+03  0.00000000000E+00 0. -1.
         24    2    1    2    0    0  0.18462977356E+01 -0.18142148029E+02 -0.30453495199E+03  0.31555429309E+03  0.80625235216E+02 0.  0.
         25    2    1    2    0    0  0.11193341230E+03  0.10485846432E+02 -0.43200543830E+03  0.46358969884E+03  0.12509064068E+03 0.  0.
        -24    2    1    2    0    0 -0.11377971003E+03  0.76563015965E+01  0.20053484469E+03  0.24548076949E+03  0.83917476648E+02 0.  0.
        -11    1    3    3    0    0  0.32637248215E+02 -0.34715634048E+02 -0.17044407966E+03  0.17697895216E+03  0.00000000000E+00 0.  1.
         12    1    3    3    0    0 -0.30790950479E+02  0.16573486020E+02 -0.13409087234E+03  0.13857534093E+03  0.00000000000E+00 0. -1.
         11    1    5    5    0    0 -0.18456083301E+02 -0.32995348097E+02  0.48705735778E+02  0.61656862591E+02  0.00000000000E+00 0. -1.
        -12    1    5    5    0    0 -0.95323626731E+02  0.40651649693E+02  0.15182910891E+03  0.18382390690E+03  0.00000000000E+00 0.  1.
          5    1    4    4  501    0  0.10267821982E+03  0.18933309261E+02 -0.43711152175E+03  0.44942768259E+03  0.41800000000E+01 0.  1.
         -5    1    4    4    0  501  0.92551924751E+01 -0.84474628291E+01  0.51060834560E+01  0.14162016250E+02  0.41800000000E+01 0.  1.
</event>
<event>
11    1  0.8551154E-009  0.1377700E+03  0.7561462E-02  0.1110074E+00
         22   -1    0    0    0    0  0.00000000000E+00  0.00000000000E+00  0.50932799974E+03  0.50932799974E+03  0.00000000000E+00 0. -1.
         22   -1    0    0    0    0 -0.00000000000E+00 -0.00000000000E+00 -0.39801856752E+03  0.39801856752E+03  0.00000000000E+00 0.  1.
         24    2    1    2    0    0 -0.21063300149E-01  0.29130521376E+02 -0.18101751984E+03  0.19804209692E+03  0.74864824478E+02 0.  0.
         25    2    1    2    0    0  0.94135058111E+01 -0.85377475496E+02 -0.17513650918E+03  0.23173128992E+03  0.12509463006E+03 0.  0.
        -24    2    1    2    0    0 -0.93924425110E+01  0.56246954120E+02  0.46746346124E+03  0.47757318042E+03  0.79385875582E+02 0.  0.
        -11    1    3    3    0    0 -0.13405828957E+02 -0.13050853719E+02 -0.12625452430E+03  0.12763324778E+03  0.00000000000E+00 0.  1.
         12    1    3    3    0    0  0.13384765657E+02  0.42181375096E+02 -0.54762995540E+02  0.70408849140E+02  0.00000000000E+00 0. -1.
         13    1    5    5    0    0 -0.97520709337E+01  0.66807953502E+02  0.45925817197E+03  0.46419443562E+03  0.00000000000E+00 0. -1.
        -14    1    5    5    0    0  0.35962842275E+00 -0.10560999383E+02  0.82052892709E+01  0.13378744806E+02  0.00000000000E+00 0.  1.
          5    1    4    4  501    0  0.46165472691E+02 -0.63470044583E+02 -0.36639708633E+02  0.86715846746E+02  0.41800000000E+01 0.  1.
         -5    1    4    4    0  501 -0.36751966880E+02 -0.21907430913E+02 -0.13849680054E+03  0.14501544318E+03  0.41800000000E+01 0.  1.
</event>
<event>
11    1  0.8551154E-009  0.1310319E+03  0.7561462E-02  0.1118008E+00
         22   -1    0    0    0    0  0.00000000000E+00  0.00000000000E+00  0.36137962681E+03  0.36137962681E+03  0.00000000000E+00 0. -1.
         22   -1    0    0    0    0 -0.00000000000E+00 -0.00000000000E+00 -0.27323041095E+03  0.27323041095E+03  0.00000000000E+00 0. -1.
         24    2    1    2    0    0 -0.49658436870E+02 -0.81875966354E+01 -0.22030862773E+03  0.23713298159E+03  0.71855148835E+02 0.  0.
         25    2    1    2    0    0  0.14777202205E+02 -0.23717078078E+02  0.80882212666E+02  0.15156296982E+03  0.12509410857E+03 0.  0.
        -24    2    1    2    0    0  0.34881234665E+02  0.31904674714E+02  0.22757563092E+03  0.24591408636E+03  0.80302311783E+02 0.  0.
        -11    1    3    3    0    0 -0.86235916991E+00 -0.25501331834E+02 -0.27589677614E+02  0.37579940121E+02  0.00000000000E+00 0.  1.
         12    1    3    3    0    0 -0.48796077701E+02  0.17313735199E+02 -0.19271895012E+03  0.19955304147E+03  0.00000000000E+00 0. -1.
         13    1    5    5    0    0  0.20764983438E+02 -0.10190676894E+02  0.17745492288E+03  0.17895609542E+03  0.00000000000E+00 0. -1.
        -14    1    5    5    0    0  0.14116251227E+02  0.42095351608E+02  0.50120708043E+02  0.66957990938E+02  0.00000000000E+00 0.  1.
          5    1    4    4  501    0  0.39532325188E+02  0.35039652207E+02  0.68290229935E+02  0.86438474455E+02  0.41800000000E+01 0.  1.
         -5    1    4    4    0  501 -0.24755122983E+02 -0.58756730285E+02  0.12591982731E+02  0.65124495367E+02  0.41800000000E+01 0.  1.
</event>
<event>
11    1  0.8551154E-009  0.2422203E+03  0.7561462E-02  0.1028127E+00
         22   -1    0    0    0    0  0.00000000000E+00  0.00000000000E+00  0.14911070377E+04  0.14911070377E+04  0.00000000000E+00 0.  1.
         22   -1    0    0    0    0 -0.00000000000E+00 -0.00000000000E+00 -0.14025831746E+04  0.14025831746E+04  0.00000000000E+00 0. -1.
         24    2    1    2    0    0 -0.89147164750E+02  0.19051009377E+03 -0.11155156672E+04  0.11379734526E+04  0.79793873787E+02 0.  0.
         25    2    1    2    0    0  0.97636246814E+02 -0.16912463859E+03 -0.22554600793E+03  0.32350473358E+03  0.12509328871E+03 0.  0.
        -24    2    1    2    0    0 -0.84890820641E+01 -0.21385455176E+02  0.14295855382E+04  0.14322120260E+04  0.83588720985E+02 0.  0.
        -11    1    3    3    0    0 -0.22502346744E+02  0.17453651882E+02 -0.61566240217E+02  0.67833527901E+02  0.00000000000E+00 0.  1.
         12    1    3    3    0    0 -0.66644818005E+02  0.17305644189E+03 -0.10539494270E+04  0.10701399247E+04  0.00000000000E+00 0. -1.
         13    1    5    5    0    0 -0.14341216508E+02 -0.43569075480E+02  0.44470059877E+03  0.44705990357E+03  0.00000000000E+00 0. -1.
        -14    1    5    5    0    0  0.58521344439E+01  0.22183620304E+02  0.98488493944E+03  0.98515212248E+03  0.00000000000E+00 0.  1.
          5    1    4    4  501    0  0.84637625402E+02 -0.10821500768E+03 -0.66581707880E+02  0.15272397240E+03  0.41800000000E+01 0.  1.
         -5    1    4    4    0  501  0.12998621411E+02 -0.60909630913E+02 -0.15896430005E+03  0.17078076118E+03  0.41800000000E+01 0.  1.
</event>
<event>
11    1  0.8551154E-009  0.1339374E+03  0.7561462E-02  0.1114524E+00
         22   -1    0    0    0    0  0.00000000000E+00  0.00000000000E+00  0.33863717373E+03  0.33863717373E+03  0.00000000000E+00 0.  1.
         22   -1    0    0    0    0 -0.00000000000E+00 -0.00000000000E+00 -0.68589593921E+03  0.68589593921E+03  0.00000000000E+00 0.  1.
        -24    2    1    2    0    0  0.37462294163E+02 -0.28513609895E+02 -0.62668617886E+03  0.63339114361E+03  0.78945073267E+02 0.  0.
         25    2    1    2    0    0 -0.63312463662E+02  0.40189756465E+02  0.62259472619E+02  0.15857273552E+03  0.12508151718E+03 0.  0.
         24    2    1    2    0    0  0.25850169499E+02 -0.11676146570E+02  0.21716794076E+03  0.23256923381E+03  0.78243021161E+02 0.  0.
        -11    1    5    5    0    0  0.41628511268E+01 -0.16289118118E+02  0.20783279400E+03  0.20851171420E+03  0.00000000000E+00 0.  1.
         12    1    5    5    0    0  0.21687318372E+02  0.46129715479E+01  0.93351467598E+01  0.24057519608E+02  0.00000000000E+00 0. -1.
         11    1    3    3    0    0  0.48243334442E+02 -0.28790927316E+02 -0.23745868026E+03  0.24401426525E+03  0.00000000000E+00 0. -1.
        -12    1    3    3    0    0 -0.10781040280E+02  0.27731742058E+00 -0.38922749860E+03  0.38937687836E+03  0.00000000000E+00 0.  1.
          5    1    4    4  501    0 -0.68671470486E+02  0.27231346394E+02 -0.18686389349E+02  0.76314943700E+02  0.41800000000E+01 0.  1.
         -5    1    4    4    0  501  0.53590068239E+01  0.12958410071E+02  0.80945861968E+02  0.82257791822E+02  0.41800000000E+01 0.  1.
</event>
<event>
11    1  0.8551154E-009  0.1412037E+03  0.7561462E-02  0.1106222E+00
         22   -1    0    0    0    0  0.00000000000E+00  0.00000000000E+00  0.60000827674E+03  0.60000827674E+03  0.00000000000E+00 0.  1.
         22   -1    0    0    0    0 -0.00000000000E+00 -0.00000000000E+00 -0.36814924341E+03  0.36814924341E+03  0.00000000000E+00 0.  1.
        -24    2    1    2    0    0  0.58068370705E+02  0.29447782108E+02 -0.28416639839E+03  0.30306351854E+03  0.82812117189E+02 0.  0.
         25    2    1    2    0    0 -0.46895899356E+02 -0.57674360943E+02  0.31490355281E+01  0.14554031475E+03  0.12508600843E+03 0.  0.
         24    2    1    2    0    0 -0.11172471348E+02  0.28226578836E+02  0.51287639618E+03  0.51955368686E+03  0.77280475554E+02 0.  0.
        -11    1    5    5    0    0  0.27108107990E+02  0.19437734556E+01  0.32059412231E+03  0.32174402719E+03  0.00000000000E+00 0.  1.
         12    1    5    5    0    0 -0.38280579339E+02  0.26282805380E+02  0.19228227387E+03  0.19780965967E+03  0.00000000000E+00 0. -1.
         13    1    3    3    0    0 -0.14460546741E+01 -0.16132670853E+02 -0.10469809688E+02  0.19286551217E+02  0.00000000000E+00 0. -1.
        -14    1    3    3    0    0  0.59514425379E+02  0.45580452960E+02 -0.27369658870E+03  0.28377696733E+03  0.00000000000E+00 0.  1.
          5    1    4    4  501    0  0.32908820281E+02 -0.21448207784E+02  0.34417817550E+02  0.52393459844E+02  0.41800000000E+01 0.  1.
         -5    1    4    4    0  501 -0.79804719637E+02 -0.36226153159E+02 -0.31268782022E+02  0.93146854903E+02  0.41800000000E+01 0.  1.
</event>
<event>
11    1  0.8551154E-009  0.1341990E+03  0.7561462E-02  0.1114215E+00
         22   -1    0    0    0    0  0.00000000000E+00  0.00000000000E+00  0.38528634075E+03  0.38528634075E+03  0.00000000000E+00 0. -1.
         22   -1    0    0    0    0 -0.00000000000E+00 -0.00000000000E+00 -0.14775809394E+04  0.14775809394E+04  0.00000000000E+00 0. -1.
        -24    2    1    2    0    0 -0.14469295814E+02  0.40780503389E+02 -0.81196619049E+03  0.81710070394E+03  0.80573295214E+02 0.  0.
         25    2    1    2    0    0  0.33336714432E+02 -0.55915424315E+02 -0.65079424852E+03  0.66589683588E+03  0.12509025112E+03 0.  0.
         24    2    1    2    0    0 -0.18867418618E+02  0.15134920926E+02  0.37046584040E+03  0.37986974029E+03  0.80442745928E+02 0.  0.
        -13    1    5    5    0    0  0.28616296931E+02  0.17040173086E+02  0.10410403830E+03  0.10930192468E+03  0.00000000000E+00 0.  1.
         14    1    5    5    0    0 -0.47483715549E+02 -0.19052521604E+01  0.26636180210E+03  0.27056781561E+03  0.00000000000E+00 0. -1.
         13    1    3    3    0    0 -0.62526945508E+01  0.34776551120E+02 -0.80225963554E+03  0.80303737617E+03  0.00000000000E+00 0. -1.
        -14    1    3    3    0    0 -0.82166012628E+01  0.60039522694E+01 -0.97065549494E+01  0.14063327777E+02  0.00000000000E+00 0.  1.
          5    1    4    4  501    0  0.60245426626E+02 -0.81108883857E+02 -0.41142495070E+03  0.42366983009E+03  0.41800000000E+01 0. -1.
         -5    1    4    4    0  501 -0.26908712194E+02  0.25193459543E+02 -0.23936929783E+03  0.24222700580E+03  0.41800000000E+01 0. -1.
</event>
<event>
11    1  0.8551154E-009  0.1755483E+03  0.7561462E-02  0.1073302E+00
         22   -1    0    0    0    0  0.00000000000E+00  0.00000000000E+00  0.27148396140E+03  0.27148396140E+03  0.00000000000E+00 0.  1.
         22   -1    0    0    0    0 -0.00000000000E+00 -0.00000000000E+00 -0.50934592640E+03  0.50934592640E+03  0.00000000000E+00 0.  1.
         24    2    1    2    0    0  0.28418274329E+02 -0.22331478521E+02 -0.37836607306E+03  0.38847053372E+03  0.80263173848E+02 0.  0.
         25    2    1    2    0    0 -0.13600083187E+03  0.63374008974E+02  0.18091283282E+01  0.19535729198E+03  0.12509479326E+03 0.  0.
        -24    2    1    2    0    0  0.10758255754E+03 -0.41042530453E+02  0.13869497973E+03  0.19700206211E+03  0.79467094327E+02 0.  0.
        -13    1    3    3    0    0  0.47936117946E+02 -0.23670245156E+02 -0.34971173380E+03  0.35377457323E+03  0.00000000000E+00 0.  1.
         14    1    3    3    0    0 -0.19517843617E+02  0.13387666347E+01 -0.28654339262E+02  0.34695960487E+02  0.00000000000E+00 0. -1.
         13    1    5    5    0    0  0.14938039738E+02  0.21358274327E+02  0.41126703076E+02  0.48690108024E+02  0.00000000000E+00 0. -1.
        -14    1    5    5    0    0  0.92644517803E+02 -0.62400804780E+02  0.97568276657E+02  0.14831195409E+03  0.00000000000E+00 0.  1.
          5    1    4    4  501    0 -0.10544209482E+03  0.90296144477E+02  0.34339085948E+02  0.14306667778E+03  0.41800000000E+01 0. -1.
         -5    1    4    4    0  501 -0.30558737049E+02 -0.26922135503E+02 -0.32529957619E+02  0.52290614194E+02  0.41800000000E+01 0. -1.
</event>
<event>
11    1  0.8551154E-009  0.1453587E+03  0.7561462E-02  0.1101718E+00
         22   -1    0    0    0    0  0.00000000000E+00  0.00000000000E+00  0.42585001852E+03  0.42585001852E+03  0.00000000000E+00 0. -1.
         22   -1    0    0    0    0 -0.00000000000E+00 -0.00000000000E+00 -0.27264448329E+04  0.27264448329E+04  0.00000000000E+00 0. -1.
        -24    2    1    2    0    0 -0.48123396338E+02  0.81402567649E+01 -0.22242895653E+04  0.22262860602E+04  0.80643824842E+02 0.  0.
         25    2    1    2    0    0  0.66183258691E+02  0.63601542366E+02 -0.48169408993E+03  0.50606511728E+03  0.12508927507E+03 0.  0.
         24    2    1    2    0    0 -0.18059862353E+02 -0.71741799131E+02  0.40538884085E+03  0.41994367393E+03  0.80867376739E+02 0.  0.
        -11    1    5    5    0    0 -0.25101338154E+01 -0.27418456002E+01 -0.34260063161E+01  0.50552950798E+01  0.00000000000E+00 0.  1.
         12    1    5    5    0    0 -0.15549728538E+02 -0.68999953531E+02  0.40881484716E+03  0.41488837885E+03  0.00000000000E+00 0. -1.
         11    1    3    3    0    0 -0.38370701394E+02  0.17188913159E+02 -0.21693943152E+04  0.21698017108E+04  0.00000000000E+00 0. -1.
        -12    1    3    3    0    0 -0.97526949439E+01 -0.90486563946E+01 -0.54895250091E+02  0.56484349371E+02  0.00000000000E+00 0.  1.
          5    1    4    4  501    0  0.67345498143E+02  0.38982939444E+02 -0.47333470379E+03  0.47970647265E+03  0.41800000000E+01 0.  1.
         -5    1    4    4    0  501 -0.11622394514E+01  0.24618602922E+02 -0.83593861334E+01  0.26358644633E+02  0.41800000000E+01 0.  1.
</event>
<event>
11    1  0.8551154E-009  0.1495286E+03  0.7561462E-02  0.1097361E+00
         22   -1    0    0    0    0  0.00000000000E+00  0.00000000000E+00  0.35121730221E+03  0.35121730221E+03  0.00000000000E+00 0. -1.
         22   -1    0    0    0    0 -0.00000000000E+00 -0.00000000000E+00 -0.11682965178E+04  0.11682965178E+04  0.00000000000E+00 0. -1.
        -24    2    1    2    0    0  0.41003082489E+02 -0.99772808786E+01 -0.10524863980E+04  0.10564353053E+04  0.80914382987E+02 0.  0.
         25    2    1    2    0    0 -0.93359720106E+02  0.68338473560E+02 -0.31219464015E+02  0.17319426707E+03  0.12504165268E+03 0.  0.
         24    2    1    2    0    0  0.52356637617E+02 -0.58361192681E+02  0.26662664646E+03  0.28988424762E+03  0.82437019027E+02 0.  0.
        -13    1    5    5    0    0 -0.92524534179E+01 -0.43906218345E+02  0.68423015197E+02  0.81823425205E+02  0.00000000000E+00 0.  1.
         14    1    5    5    0    0  0.61609091035E+02 -0.14454974336E+02  0.19820363126E+03  0.20806082242E+03  0.00000000000E+00 0. -1.
         13    1    3    3    0    0  0.10762499942E+02  0.30678483461E+02 -0.64371795275E+03  0.64453844218E+03  0.00000000000E+00 0. -1.
        -14    1    3    3    0    0  0.30240582547E+02 -0.40655764340E+02 -0.40876844524E+03  0.41189686309E+03  0.00000000000E+00 0.  1.
          5    1    4    4  501    0 -0.94539813975E+02 -0.66789537206E+01 -0.11929103897E+02  0.95614647252E+02  0.41800000000E+01 0.  1.
         -5    1    4    4    0  501  0.11800938695E+01  0.75017427280E+02 -0.19290360117E+02  0.77579619816E+02  0.41800000000E+01 0.  1.
</event>
<event>
11    1  0.8551154E-009  0.1420825E+03  0.7561462E-02  0.1105255E+00
         22   -1    0    0    0    0  0.00000000000E+00  0.00000000000E+00  0.32640578311E+03  0.32640578311E+03  0.00000000000E+00 0.  1.
         22   -1    0    0    0    0 -0.00000000000E+00 -0.00000000000E+00 -0.78680323113E+03  0.78680323113E+03  0.00000000000E+00 0. -1.
        -24    2    1    2    0    0 -0.29777814122E+02  0.58126664242E+02 -0.68303586970E+03  0.69074404686E+03  0.79523026007E+02 0.  0.
         25    2    1    2    0    0  0.36574677903E+02 -0.10408169689E+03 -0.12318258415E+02  0.16723398688E+03  0.12507901577E+03 0.  0.
         24    2    1    2    0    0 -0.67968637808E+01  0.45955032652E+02  0.23495668010E+03  0.25523098049E+03  0.88205155729E+02 0.  0.
        -11    1    5    5    0    0  0.27648445930E+02  0.30674344465E+02  0.19867331758E+03  0.20291978486E+03  0.00000000000E+00 0.  1.
         12    1    5    5    0    0 -0.34445309710E+02  0.15280688187E+02  0.36283362516E+02  0.52311195628E+02  0.00000000000E+00 0. -1.
         13    1    3    3    0    0 -0.10386388905E+02  0.28001871483E+02 -0.59428321379E+03  0.59503320922E+03  0.00000000000E+00 0. -1.
        -14    1    3    3    0    0 -0.19391425217E+02  0.30124792759E+02 -0.88752655908E+02  0.95710837638E+02  0.00000000000E+00 0.  1.
          5    1    4    4  501    0  0.31237577090E+02 -0.13287845756E+03 -0.45203888431E+01  0.13663958805E+03  0.41800000000E+01 0. -1.
         -5    1    4    4    0  501  0.53371008132E+01  0.28796760669E+02 -0.77978695723E+01  0.30594398834E+02  0.41800000000E+01 0. -1.
</event>
<event>
11    1  0.8551154E-009  0.1940795E+03  0.7561462E-02  0.1058791E+00
         22   -1    0    0    0    0  0.00000000000E+00  0.00000000000E+00  0.33561708032E+04  0.33561708032E+04  0.00000000000E+00 0. -1.
         22   -1    0    0    0    0 -0.00000000000E+00 -0.00000000000E+00 -0.32231149292E+02  0.32231149292E+02  0.00000000000E+00 0. -1.
         24    2    1    2    0    0 -0.21094734405E+02 -0.14636062385E+03  0.28403569879E+03  0.33022224633E+03  0.80647589843E+02 0.  0.
         25    2    1    2    0    0 -0.33512346762E+02  0.15502743305E+03  0.13072761688E+04  0.13227903365E+04  0.12508681149E+03 0.  0.
        -24    2    1    2    0    0  0.54607081166E+02 -0.86668091967E+01  0.17326277863E+04  0.17353893697E+04  0.80747579415E+02 0.  0.
        -11    1    3    3    0    0  0.86878973507E+00  0.81155014512E+01  0.38119076424E+02  0.38983075133E+02  0.00000000000E+00 0.  1.
         12    1    3    3    0    0 -0.21963524140E+02 -0.15447612530E+03  0.24591662237E+03  0.29123917119E+03  0.00000000000E+00 0. -1.
         11    1    5    5    0    0  0.66972823835E+02 -0.11834019304E+02  0.16743183022E+04  0.16756990124E+04  0.00000000000E+00 0. -1.
        -12    1    5    5    0    0 -0.12365742669E+02  0.31672101077E+01  0.58309484113E+02  0.59690357254E+02  0.00000000000E+00 0.  1.
          5    1    4    4  501    0 -0.12823427246E+02  0.16716171182E+03  0.12390995516E+04  0.12503969967E+04  0.41800000000E+01 0.  1.
         -5    1    4    4    0  501 -0.20688919516E+02 -0.12134278775E+02  0.68176617161E+02  0.72393339747E+02  0.41800000000E+01 0.  1.
</event>
<event>
11    1  0.8551154E-009  0.1593236E+03  0.7561462E-02  0.1087715E+00
         22   -1    0    0    0    0  0.00000000000E+00  0.00000000000E+00  0.18017322044E+04  0.18017322044E+04  0.00000000000E+00 0. -1.
         22   -1    0    0    0    0 -0.00000000000E+00 -0.00000000000E+00 -0.13656221783E+04  0.13656221783E+04  0.00000000000E+00 0. -1.
        -24    2    1    2    0    0 -0.86580326704E+00 -0.48111073377E+02 -0.12576328494E+04  0.12610816495E+04  0.79819281777E+02 0.  0.
         25    2    1    2    0    0  0.59598104123E+01 -0.51485095097E+02 -0.59836736620E+02  0.14803412186E+03  0.12508969513E+03 0.  0.
         24    2    1    2    0    0 -0.50940071453E+01  0.99596168474E+02  0.17535796121E+04  0.17582386114E+04  0.80101266426E+02 0.  0.
        -13    1    5    5    0    0 -0.23305709059E+02  0.46397794918E+02  0.38268268046E+03  0.38618900214E+03  0.00000000000E+00 0.  1.
         14    1    5    5    0    0  0.18211701914E+02  0.53198373556E+02  0.13708969317E+04  0.13720496093E+04  0.00000000000E+00 0. -1.
         11    1    3    3    0    0  0.33289664577E+01 -0.30547508204E+02 -0.12058348997E+04  0.12062263625E+04  0.00000000000E+00 0. -1.
        -12    1    3    3    0    0 -0.41947697247E+01 -0.17563565172E+02 -0.51797949711E+02  0.54855286973E+02  0.00000000000E+00 0.  1.
          5    1    4    4  501    0 -0.12554666856E+02 -0.70278831358E+02  0.10976099467E+02  0.72351095060E+02  0.41800000000E+01 0.  1.
         -5    1    4    4    0  501  0.18514477269E+02  0.18793736261E+02 -0.70812836087E+02  0.75683026802E+02  0.41800000000E+01 0.  1.
</event>
<event>
11    1  0.8551154E-009  0.2919563E+03  0.7561462E-02  0.1003654E+00
         22   -1    0    0    0    0  0.00000000000E+00  0.00000000000E+00  0.12960451515E+03  0.12960451515E+03  0.00000000000E+00 0. -1.
         22   -1    0    0    0    0 -0.00000000000E+00 -0.00000000000E+00 -0.16193701843E+04  0.16193701843E+04  0.00000000000E+00 0. -1.
         24    2    1    2    0    0 -0.85832102905E+02  0.35584556283E+02 -0.90212560297E+03  0.91059243449E+03  0.81942465710E+02 0.  0.
         25    2    1    2    0    0  0.28121626555E+03  0.11415195458E+03 -0.40732852312E+03  0.52314185181E+03  0.12509042577E+03 0.  0.
        -24    2    1    2    0    0 -0.19538416264E+03 -0.14973651086E+03 -0.18031154304E+03  0.31524041313E+03  0.79172418315E+02 0.  0.
        -11    1    3    3    0    0 -0.31488019471E+02  0.57272764417E+02 -0.46846493618E+03  0.47300217901E+03  0.00000000000E+00 0.  1.
         12    1    3    3    0    0 -0.54344083434E+02 -0.21688208134E+02 -0.43366066679E+03  0.43759025549E+03  0.00000000000E+00 0. -1.
         13    1    5    5    0    0 -0.17580879094E+03 -0.15151463864E+03 -0.14173614605E+03  0.27194586188E+03  0.00000000000E+00 0. -1.
        -14    1    5    5    0    0 -0.19575371707E+02  0.17781277806E+01 -0.38575396986E+02  0.43294551257E+02  0.00000000000E+00 0.  1.
          5    1    4    4  501    0  0.55192739669E+02  0.55955237661E+02 -0.40960919575E+02  0.88727089810E+02  0.41800000000E+01 0. -1.
         -5    1    4    4    0  501  0.22602352588E+03  0.58196716917E+02 -0.36636760355E+03  0.43441476200E+03  0.41800000000E+01 0. -1.
</event>
<event>
11    1  0.8551154E-009  0.1332995E+03  0.7561462E-02  0.1115280E+00
         22   -1    0    0    0    0  0.00000000000E+00  0.00000000000E+00  0.39048336196E+03  0.39048336196E+03  0.00000000000E+00 0. -1.
         22   -1    0    0    0    0 -0.00000000000E+00 -0.00000000000E+00 -0.39666496053E+03  0.39666496053E+03  0.00000000000E+00 0. -1.
        -24    2    1    2    0    0  0.20754983554E+00 -0.23607458503E+02 -0.34278194483E+03  0.35285268032E+03  0.80300667050E+02 0.  0.
         25    2    1    2    0    0  0.45008653227E+02  0.28270373712E+02  0.71051411473E+02  0.15339621972E+03  0.12512835113E+03 0.  0.
         24    2    1    2    0    0 -0.45216203063E+02 -0.46629152089E+01  0.26554893479E+03  0.28089942245E+03  0.79511011609E+02 0.  0.
        -11    1    5    5    0    0 -0.36246456540E+02 -0.15425065599E+01  0.35849163692E+02  0.51003406510E+02  0.00000000000E+00 0.  1.
         12    1    5    5    0    0 -0.89697465225E+01 -0.31204086490E+01  0.22969977110E+03  0.22989601594E+03  0.00000000000E+00 0. -1.
         13    1    3    3    0    0  0.22201052754E+02 -0.44753856145E+02 -0.25689295989E+03  0.26170553534E+03  0.00000000000E+00 0. -1.
        -14    1    3    3    0    0 -0.21993502919E+02  0.21146397642E+02 -0.85888984943E+02  0.91147144982E+02  0.00000000000E+00 0.  1.
          5    1    4    4  501    0 -0.18770377802E+02  0.60529890700E+02  0.24917095144E+02  0.68224107040E+02  0.41800000000E+01 0. -1.
         -5    1    4    4    0  501  0.63779031029E+02 -0.32259516988E+02  0.46134316329E+02  0.85172112681E+02  0.41800000000E+01 0. -1.
</event>
<event>
11    1  0.8551154E-009  0.1285636E+03  0.7561462E-02  0.1121047E+00
         22   -1    0    0    0    0  0.00000000000E+00  0.00000000000E+00  0.17917069033E+04  0.17917069033E+04  0.00000000000E+00 0.  1.
         22   -1    0    0    0    0 -0.00000000000E+00 -0.00000000000E+00 -0.10990749136E+03  0.10990749136E+03  0.00000000000E+00 0. -1.
         24    2    1    2    0    0 -0.45759004606E+01  0.20683687752E+02 -0.56626160009E+02  0.98465986218E+02  0.77719203808E+02 0.  0.
         25    2    1    2    0    0 -0.14603945181E+02  0.27989532948E+01  0.95563547277E+02  0.15811622265E+03  0.12508892414E+03 0.  0.
        -24    2    1    2    0    0  0.19179845642E+02 -0.23482641047E+02  0.16428620247E+04  0.16450321858E+04  0.78841355089E+02 0.  0.
        -11    1    3    3    0    0  0.34568169569E+02  0.98551194103E+01 -0.42039288433E+02  0.55311694043E+02  0.00000000000E+00 0.  1.
         12    1    3    3    0    0 -0.39144070029E+02  0.10828568342E+02 -0.14586871576E+02  0.43154292175E+02  0.00000000000E+00 0. -1.
         11    1    5    5    0    0 -0.17835693611E+02  0.13177798352E+02  0.93195187532E+03  0.93221567474E+03  0.00000000000E+00 0. -1.
        -12    1    5    5    0    0  0.37015539253E+02 -0.36660439399E+02  0.71091014936E+03  0.71281651105E+03  0.00000000000E+00 0.  1.
          5    1    4    4  501    0 -0.23063220147E+02 -0.20502707380E+02  0.11944744139E+03  0.12344001292E+03  0.41800000000E+01 0. -1.
         -5    1    4    4    0  501  0.84592749660E+01  0.23301660675E+02 -0.23883894116E+02  0.34676209731E+02  0.41800000000E+01 0. -1.
</event>
<event>
11    1  0.8551154E-009  0.1296498E+03  0.7561462E-02  0.1119700E+00
         22   -1    0    0    0    0  0.00000000000E+00  0.00000000000E+00  0.76408052988E+03  0.76408052988E+03  0.00000000000E+00 0.  1.
         22   -1    0    0    0    0 -0.00000000000E+00 -0.00000000000E+00 -0.12569342012E+03  0.12569342012E+03  0.00000000000E+00 0.  1.
        -24    2    1    2    0    0 -0.13332235709E+02 -0.70110616567E+01 -0.70906309644E+02  0.10840852632E+03  0.80608934603E+02 0.  0.
         25    2    1    2    0    0 -0.20311758321E+02  0.16696625685E+02  0.90642737178E+02  0.15669333034E+03  0.12508137005E+03 0.  0.
         24    2    1    2    0    0  0.33643994030E+02 -0.96855640280E+01  0.61865068223E+03  0.62467209333E+03  0.79125400962E+02 0.  0.
        -11    1    5    5    0    0  0.53511197280E+02 -0.11444509156E+02  0.56112510059E+03  0.56378701966E+03  0.00000000000E+00 0.  1.
         12    1    5    5    0    0 -0.19867203250E+02  0.17589451276E+01  0.57525581640E+02  0.60885073671E+02  0.00000000000E+00 0. -1.
         11    1    3    3    0    0 -0.24855644266E+02  0.15207128488E+02  0.40179440308E+01  0.29414344850E+02  0.00000000000E+00 0. -1.
        -12    1    3    3    0    0  0.11523408556E+02 -0.22218190145E+02 -0.74924253675E+02  0.78994181474E+02  0.00000000000E+00 0.  1.
          5    1    4    4  501    0  0.48566826920E+02  0.20039710589E+02  0.16213656900E+02  0.55142377058E+02  0.41800000000E+01 0. -1.
         -5    1    4    4    0  501 -0.68878585241E+02 -0.33430849040E+01  0.74429080278E+02  0.10155095328E+03  0.41800000000E+01 0. -1.
</event>
<event>
11    1  0.8551154E-009  0.1645817E+03  0.7561462E-02  0.1082846E+00
         22   -1    0    0    0    0  0.00000000000E+00  0.00000000000E+00  0.13340236807E+03  0.13340236807E+03  0.00000000000E+00 0.  1.
         22   -1    0    0    0    0 -0.00000000000E+00 -0.00000000000E+00 -0.12560697573E+04  0.12560697573E+04  0.00000000000E+00 0. -1.
        -24    2    1    2    0    0 -0.94199412379E+02  0.35501699485E+02 -0.69891186048E+03  0.71063199226E+03  0.79913326389E+02 0.  0.
         25    2    1    2    0    0  0.10615600181E+03 -0.63707670316E+02 -0.52083103136E+03  0.54976465445E+03  0.12509375717E+03 0.  0.
         24    2    1    2    0    0 -0.11956589429E+02  0.28205970832E+02  0.97075502579E+02  0.12907547870E+03  0.79361761445E+02 0.  0.
        -13    1    5    5    0    0  0.43188563986E+01  0.35405507700E+01  0.99284869618E+02  0.99441808891E+02  0.00000000000E+00 0.  1.
         14    1    5    5    0    0 -0.16275445828E+02  0.24665420062E+02 -0.22093670396E+01  0.29633669810E+02  0.00000000000E+00 0. -1.
         13    1    3    3    0    0 -0.78460448137E+02  0.58454999578E+02 -0.47309202522E+03  0.48310360506E+03  0.00000000000E+00 0. -1.
        -14    1    3    3    0    0 -0.15738964242E+02 -0.22953300093E+02 -0.22581983527E+03  0.22752838720E+03  0.00000000000E+00 0.  1.
          5    1    4    4  501    0  0.36165766290E+02  0.37896038323E+02 -0.15426867140E+03  0.16297351855E+03  0.41800000000E+01 0.  1.
         -5    1    4    4    0  501  0.69990235518E+02 -0.10160370864E+03 -0.36656235995E+03  0.38679113590E+03  0.41800000000E+01 0.  1.
</event>
<event>
11    1  0.8551154E-009  0.1464547E+03  0.7561462E-02  0.1100557E+00
         22   -1    0    0    0    0  0.00000000000E+00  0.00000000000E+00  0.20397990203E+04  0.20397990203E+04  0.00000000000E+00 0.  1.
         22   -1    0    0    0    0 -0.00000000000E+00 -0.00000000000E+00 -0.96888747833E+03  0.96888747833E+03  0.00000000000E+00 0.  1.
        -24    2    1    2    0    0  0.95154474093E+01  0.76010199707E+02 -0.94394359461E+03  0.95030054872E+03  0.78571807286E+02 0.  0.
         25    2    1    2    0    0 -0.17866614717E+02 -0.45107184789E+02  0.19618785152E+03  0.23767573757E+03  0.12508480765E+03 0.  0.
         24    2    1    2    0    0  0.83511673078E+01 -0.30903014918E+02  0.18186672851E+04  0.18207102123E+04  0.80064007056E+02 0.  0.
        -11    1    5    5    0    0  0.39288131246E+02 -0.14921967888E+02  0.56560397223E+03  0.56716318268E+03  0.00000000000E+00 0.  1.
         12    1    5    5    0    0 -0.30936963939E+02 -0.15981047030E+02  0.12530633128E+04  0.12535470297E+04  0.00000000000E+00 0. -1.
         13    1    3    3    0    0 -0.65189775636E+01  0.56150742309E+02 -0.26903663393E+03  0.27491110077E+03  0.00000000000E+00 0. -1.
        -14    1    3    3    0    0  0.16034424973E+02  0.19859457398E+02 -0.67490696068E+03  0.67538944796E+03  0.00000000000E+00 0.  1.
          5    1    4    4  501    0 -0.25872496827E+02 -0.77202680860E+02  0.18555968256E+03  0.20268080377E+03  0.41800000000E+01 0.  1.
         -5    1    4    4    0  501  0.80058821101E+01  0.32095496070E+02  0.10628168957E+02  0.34994933801E+02  0.41800000000E+01 0.  1.
</event>
<event>
11    1  0.8551154E-009  0.1536188E+03  0.7561462E-02  0.1093237E+00
         22   -1    0    0    0    0  0.00000000000E+00  0.00000000000E+00  0.96079759582E+03  0.96079759582E+03  0.00000000000E+00 0. -1.
         22   -1    0    0    0    0 -0.00000000000E+00 -0.00000000000E+00 -0.28857425964E+03  0.28857425964E+03  0.00000000000E+00 0. -1.
        -24    2    1    2    0    0  0.50650739269E+02 -0.77127223504E+02 -0.19895028660E+03  0.23365110015E+03  0.80607158901E+02 0.  0.
         25    2    1    2    0    0 -0.14405931477E+02  0.79149874507E+02  0.87659953468E+01  0.14898538409E+03  0.12509024143E+03 0.  0.
         24    2    1    2    0    0 -0.36244807792E+02 -0.20226510030E+01  0.86240762745E+03  0.86673537123E+03  0.78520765742E+02 0.  0.
        -13    1    5    5    0    0 -0.10026221128E+02 -0.21781906436E+02  0.77121022835E+02  0.80762792927E+02  0.00000000000E+00 0.  1.
         14    1    5    5    0    0 -0.26218586664E+02  0.19759255433E+02  0.78528660461E+03  0.78597257830E+03  0.00000000000E+00 0. -1.
         11    1    3    3    0    0  0.27203212660E+02 -0.89525373394E+02 -0.17221038668E+03  0.19598781733E+03  0.00000000000E+00 0. -1.
        -12    1    3    3    0    0  0.23447526609E+02  0.12398149890E+02 -0.26739899923E+02  0.37663282818E+02  0.00000000000E+00 0.  1.
          5    1    4    4  501    0 -0.44907217792E+02  0.39704792976E+02 -0.45350431973E+02  0.75281225250E+02  0.41800000000E+01 0.  1.
         -5    1    4    4    0  501  0.30501286314E+02  0.39445081531E+02  0.54116427320E+02  0.73704158836E+02  0.41800000000E+01 0.  1.
</event>
<event>
11    1  0.8551154E-009  0.1918942E+03  0.7561462E-02  0.1060408E+00
         22   -1    0    0    0    0  0.00000000000E+00  0.00000000000E+00  0.17992095389E+03  0.17992095389E+03  0.00000000000E+00 0.  1.
         22   -1    0    0    0    0 -0.00000000000E+00 -0.00000000000E+00 -0.21725263931E+04  0.21725263931E+04  0.00000000000E+00 0. -1.
        -24    2    1    2    0    0 -0.38455460024E+02 -0.36105993293E+01 -0.12661659002E+04  0.12693719695E+04  0.81469327439E+02 0.  0.
         25    2    1    2    0    0  0.53912574814E+02 -0.14105240257E+03 -0.85118259459E+03  0.87347648614E+03  0.12508803509E+03 0.  0.
         24    2    1    2    0    0 -0.15457114791E+02  0.14466300190E+03  0.12474305552E+03  0.20959889140E+03  0.84879672828E+02 0.  0.
        -13    1    5    5    0    0  0.25011589683E+02  0.50838721842E+02  0.80050222103E+02  0.98072388141E+02  0.00000000000E+00 0.  1.
         14    1    5    5    0    0 -0.40468704474E+02  0.93824280060E+02  0.44692833414E+02  0.11152650326E+03  0.00000000000E+00 0. -1.
         11    1    3    3    0    0  0.14788995469E+02  0.21626699497E+02 -0.22121064442E+03  0.22275676807E+03  0.00000000000E+00 0. -1.
        -12    1    3    3    0    0 -0.53244455493E+02 -0.25237298826E+02 -0.10449552558E+04  0.10466152014E+04  0.00000000000E+00 0.  1.
          5    1    4    4  501    0 -0.37843987816E+01 -0.10745819102E+03 -0.69908281083E+03  0.70731593598E+03  0.41800000000E+01 0.  1.
         -5    1    4    4    0  501  0.57696973596E+02 -0.33594211549E+02 -0.15209978376E+03  0.16616055016E+03  0.41800000000E+01 0.  1.
</event>
<event>
11    1  0.8551154E-009  0.1337298E+03  0.7561462E-02  0.1114769E+00
         22   -1    0    0    0    0  0.00000000000E+00  0.00000000000E+00  0.39612661098E+03  0.39612661098E+03  0.00000000000E+00 0. -1.
         22   -1    0    0    0    0 -0.00000000000E+00 -0.00000000000E+00 -0.33224933895E+03  0.33224933895E+03  0.00000000000E+00 0. -1.
         24    2    1    2    0    0 -0.17505055301E+02  0.49456573161E+01 -0.26768357274E+03  0.28225231859E+03  0.87641255968E+02 0.  0.
         25    2    1    2    0    0 -0.31704869572E+02 -0.89672330625E+01  0.33191344598E+02  0.13355406233E+03  0.12509761063E+03 0.  0.
        -24    2    1    2    0    0  0.49209924873E+02  0.40215757464E+01  0.29836950017E+03  0.31256956902E+03  0.78978396178E+02 0.  0.
        -11    1    3    3    0    0 -0.35958371313E+02 -0.23454156975E+02 -0.73355106506E+02  0.84994550398E+02  0.00000000000E+00 0.  1.
         12    1    3    3    0    0  0.18453316012E+02  0.28399814291E+02 -0.19432846623E+03  0.19725776819E+03  0.00000000000E+00 0. -1.
         13    1    5    5    0    0  0.42842689268E+02 -0.20752238611E+02  0.27083664019E+03  0.27498843085E+03  0.00000000000E+00 0. -1.
        -14    1    5    5    0    0  0.63672356049E+01  0.24773814358E+02  0.27532859987E+02  0.37581138170E+02  0.00000000000E+00 0.  1.
          5    1    4    4  501    0 -0.15256365737E+02 -0.58469925710E+02  0.50049879788E+02  0.78574498247E+02  0.41800000000E+01 0.  1.
         -5    1    4    4    0  501 -0.16448503835E+02  0.49502692648E+02 -0.16858535190E+02  0.54979564081E+02  0.41800000000E+01 0.  1.
</event>
<event>
11    1  0.8551154E-009  0.1342722E+03  0.7561462E-02  0.1114128E+00
         22   -1    0    0    0    0  0.00000000000E+00  0.00000000000E+00  0.60552412967E+03  0.60552412967E+03  0.00000000000E+00 0.  1.
         22   -1    0    0    0    0 -0.00000000000E+00 -0.00000000000E+00 -0.59297455979E+03  0.59297455979E+03  0.00000000000E+00 0. -1.
         24    2    1    2    0    0  0.25125911687E+02  0.41716545768E+02 -0.54343955764E+03  0.55149002971E+03  0.80269037860E+02 0.  0.
         25    2    1    2    0    0  0.62115290033E+01 -0.63880340654E+02  0.78258124385E+02  0.16090542193E+03  0.12508772826E+03 0.  0.
        -24    2    1    2    0    0 -0.31337440691E+02  0.22163794887E+02  0.47773100313E+03  0.48610323782E+03  0.81216854587E+02 0.  0.
        -11    1    3    3    0    0  0.30252891316E+02  0.47568879367E+02 -0.19555645786E+03  0.20351993497E+03  0.00000000000E+00 0.  1.
         12    1    3    3    0    0 -0.51269796291E+01 -0.58523335995E+01 -0.34788309977E+03  0.34797009475E+03  0.00000000000E+00 0. -1.
         13    1    5    5    0    0 -0.14817124926E+02 -0.19522268731E+02  0.46648025091E+02  0.52694443847E+02  0.00000000000E+00 0. -1.
        -14    1    5    5    0    0 -0.16520315764E+02  0.41686063617E+02  0.43108297804E+03  0.43340879397E+03  0.00000000000E+00 0.  1.
          5    1    4    4  501    0 -0.32167309099E+02 -0.86566466575E+02  0.68549823032E+02  0.11508709549E+03  0.41800000000E+01 0. -1.
         -5    1    4    4    0  501  0.38378838102E+02  0.22686125920E+02  0.97083013527E+01  0.45818326448E+02  0.41800000000E+01 0. -1.
</event>
<event>
11    1  0.8551154E-009  0.1365275E+03  0.7561462E-02  0.1111499E+00
         22   -1    0    0    0    0  0.00000000000E+00  0.00000000000E+00  0.23701856361E+04  0.23701856361E+04  0.00000000000E+00 0. -1.
         22   -1    0    0    0    0 -0.00000000000E+00 -0.00000000000E+00 -0.35285158963E+02  0.35285158963E+02  0.00000000000E+00 0. -1.
        -24    2    1    2    0    0 -0.42077590577E+02 -0.15975601463E+01  0.57491203068E+02  0.10834863613E+03  0.81615640010E+02 0.  0.
         25    2    1    2    0    0 -0.63514375946E+01  0.36303760892E+02  0.49968329382E+03  0.51642009216E+03  0.12509202074E+03 0.  0.
         24    2    1    2    0    0  0.48429028172E+02 -0.34706200746E+02  0.17777259803E+04  0.17807020668E+04  0.83906487226E+02 0.  0.
        -13    1    5    5    0    0  0.30456930487E+02 -0.61587567899E+02  0.10394369332E+04  0.10417052325E+04  0.00000000000E+00 0.  1.
         14    1    5    5    0    0  0.17972097685E+02  0.26881367153E+02  0.73828904702E+03  0.73899683433E+03  0.00000000000E+00 0. -1.
         11    1    3    3    0    0  0.24858456725E+02 -0.83320857293E+00  0.16705540486E+02  0.29961845574E+02  0.00000000000E+00 0. -1.
        -12    1    3    3    0    0 -0.66936047302E+02 -0.76435157332E+00  0.40785662582E+02  0.78386790558E+02  0.00000000000E+00 0.  1.
          5    1    4    4  501    0 -0.64986508429E+02  0.24021391562E+02  0.29858593341E+03  0.30654739530E+03  0.41800000000E+01 0.  1.
         -5    1    4    4    0  501  0.58635070835E+02  0.12282369330E+02  0.20109736040E+03  0.20987269686E+03  0.41800000000E+01 0.  1.
</event>
<event>
11    1  0.8551154E-009  0.3519186E+03  0.7561462E-02  0.9803353E-01
         22   -1    0    0    0    0  0.00000000000E+00  0.00000000000E+00  0.68083662671E+03  0.68083662671E+03  0.00000000000E+00 0.  1.
         22   -1    0    0    0    0 -0.00000000000E+00 -0.00000000000E+00 -0.18772830126E+04  0.18772830126E+04  0.00000000000E+00 0.  1.
        -24    2    1    2    0    0  0.29762285372E+02 -0.12169130530E+03 -0.10700973580E+04  0.10803833667E+04  0.80157945306E+02 0.  0.
         25    2    1    2    0    0 -0.34800532111E+03  0.38349315311E+02 -0.71071180203E+03  0.80208310362E+03  0.12509063135E+03 0.  0.
         24    2    1    2    0    0  0.31824303574E+03  0.83341989989E+02  0.58436277410E+03  0.67565316896E+03  0.82479305792E+02 0.  0.
        -11    1    5    5    0    0  0.24407070931E+03  0.48493886965E+02  0.36749862479E+03  0.44382136884E+03  0.00000000000E+00 0.  1.
         12    1    5    5    0    0  0.74172326427E+02  0.34848103024E+02  0.21686414931E+03  0.23183180012E+03  0.00000000000E+00 0. -1.
         11    1    3    3    0    0  0.15372993484E+01  0.11765578815E+02 -0.65339700569E+02  0.66408347402E+02  0.00000000000E+00 0. -1.
        -12    1    3    3    0    0  0.28224986024E+02 -0.13345688411E+03 -0.10047576574E+04  0.10139750193E+04  0.00000000000E+00 0.  1.
          5    1    4    4  501    0 -0.25201743236E+03 -0.25716583929E+02 -0.53290074242E+03  0.59006338860E+03  0.41800000000E+01 0.  1.
         -5    1    4    4    0  501 -0.95987888756E+02  0.64065899240E+02 -0.17781105961E+03  0.21201971501E+03  0.41800000000E+01 0.  1.
</event>
<event>
11    1  0.8551154E-009  0.1357486E+03  0.7561462E-02  0.1112401E+00
         22   -1    0    0    0    0  0.00000000000E+00  0.00000000000E+00  0.20368487529E+04  0.20368487529E+04  0.00000000000E+00 0.  1.
         22   -1    0    0    0    0 -0.00000000000E+00 -0.00000000000E+00 -0.12130363997E+03  0.12130363997E+03  0.00000000000E+00 0. -1.
         24    2    1    2    0    0  0.43005108107E+02  0.29791700138E+02 -0.90088741401E+02  0.13036163075E+03  0.78365736922E+02 0.  0.
         25    2    1    2    0    0 -0.72990727363E+02  0.58365391363E-01  0.53330666292E+03  0.55263318525E+03  0.12513908674E+03 0.  0.
        -24    2    1    2    0    0  0.29985619256E+02 -0.29850065530E+02  0.14723271914E+04  0.14751575769E+04  0.80946613965E+02 0.  0.
        -11    1    3    3    0    0  0.27202880003E+02  0.63000890659E+01  0.73656364713E+01  0.28878026306E+02  0.00000000000E+00 0.  1.
         12    1    3    3    0    0  0.15802228104E+02  0.23491611072E+02 -0.97454377872E+02  0.10148360444E+03  0.00000000000E+00 0. -1.
         13    1    5    5    0    0  0.35147715108E+02  0.12279521660E+02  0.33947084379E+03  0.34150637229E+03  0.00000000000E+00 0. -1.
        -14    1    5    5    0    0 -0.51620958520E+01 -0.42129587190E+02  0.11328563476E+04  0.11336512046E+04  0.00000000000E+00 0.  1.
          5    1    4    4  501    0 -0.55780054547E+02 -0.59776045448E+02  0.32730355661E+03  0.33738654488E+03  0.41800000000E+01 0.  1.
         -5    1    4    4    0  501 -0.17210672817E+02  0.59834410839E+02  0.20600310631E+03  0.21524664037E+03  0.41800000000E+01 0.  1.
</event>
<event>
11    1  0.8551154E-009  0.1835942E+03  0.7561462E-02  0.1066772E+00
         22   -1    0    0    0    0  0.00000000000E+00  0.00000000000E+00  0.31453504902E+04  0.31453504902E+04  0.00000000000E+00 0. -1.
         22   -1    0    0    0    0 -0.00000000000E+00 -0.00000000000E+00 -0.33096283870E+03  0.33096283870E+03  0.00000000000E+00 0. -1.
        -24    2    1    2    0    0  0.11410058212E+03  0.61659929425E+02 -0.22381015635E+03  0.27061086381E+03  0.79488136165E+02 0.  0.
         25    2    1    2    0    0 -0.15859280645E+03 -0.41170161539E+02  0.44850306812E+02  0.21096762023E+03  0.12509646799E+03 0.  0.
         24    2    1    2    0    0  0.44492224335E+02 -0.20489767887E+02  0.29933475011E+04  0.29947348449E+04  0.76864429203E+02 0.  0.
        -11    1    5    5    0    0 -0.22663106318E+01 -0.98548321860E+01  0.50800821104E+02  0.51797464283E+02  0.00000000000E+00 0.  1.
         12    1    5    5    0    0  0.46758534966E+02 -0.10634935701E+02  0.29425466800E+04  0.29429373806E+04  0.00000000000E+00 0. -1.
         11    1    3    3    0    0  0.14022333344E+02 -0.47218038247E+01 -0.88354562854E+02  0.89584876184E+02  0.00000000000E+00 0. -1.
        -12    1    3    3    0    0  0.10007824877E+03  0.66381733250E+02 -0.13545559349E+03  0.18102598762E+03  0.00000000000E+00 0.  1.
          5    1    4    4  501    0 -0.86023253229E+02 -0.70167129643E+02  0.66877322154E+02  0.12966678371E+03  0.41800000000E+01 0.  1.
         -5    1    4    4    0  501 -0.72569553225E+02  0.28996968104E+02 -0.22027015343E+02  0.81300836523E+02  0.41800000000E+01 0.  1.
</event>
<event>
11    1  0.8551154E-009  0.1775803E+03  0.7561462E-02  0.1071617E+00
         22   -1    0    0    0    0  0.00000000000E+00  0.00000000000E+00  0.92147211249E+02  0.92147211249E+02  0.00000000000E+00 0.  1.
         22   -1    0    0    0    0 -0.00000000000E+00 -0.00000000000E+00 -0.21051728324E+04  0.21051728324E+04  0.00000000000E+00 0.  1.
         24    2    1    2    0    0 -0.86214308907E+02  0.11429372227E+03 -0.17745410471E+04  0.17821011750E+04  0.79954413652E+02 0.  0.
         25    2    1    2    0    0 -0.78679612333E+01 -0.58366963340E+02 -0.24281153724E+03  0.27942500983E+03  0.12510909751E+03 0.  0.
        -24    2    1    2    0    0  0.94082270140E+02 -0.55926758926E+02  0.43269632222E+01  0.13579385873E+03  0.80261905911E+02 0.  0.
        -11    1    3    3    0    0 -0.73336584689E+02  0.32226185055E+02 -0.95925014640E+03  0.96258902187E+03  0.00000000000E+00 0.  1.
         12    1    3    3    0    0 -0.12877724218E+02  0.82067537211E+02 -0.81529090070E+03  0.81951215317E+03  0.00000000000E+00 0. -1.
         13    1    5    5    0    0  0.82568524060E+02 -0.22234527861E+02 -0.25623923803E+02  0.89266571939E+02  0.00000000000E+00 0. -1.
        -14    1    5    5    0    0  0.11513746080E+02 -0.33692231065E+02  0.29950887025E+02  0.46527286795E+02  0.00000000000E+00 0.  1.
          5    1    4    4  501    0 -0.10834211681E+02 -0.95299991931E+02 -0.20476197773E+03  0.22615129566E+03  0.41800000000E+01 0. -1.
         -5    1    4    4    0  501  0.29662504480E+01  0.36933028591E+02 -0.38049559508E+02  0.53273714169E+02  0.41800000000E+01 0. -1.
</event>
<event>
11    1  0.8551154E-009  0.1313739E+03  0.7561462E-02  0.1117592E+00
         22   -1    0    0    0    0  0.00000000000E+00  0.00000000000E+00  0.13421031770E+03  0.13421031770E+03  0.00000000000E+00 0. -1.
         22   -1    0    0    0    0 -0.00000000000E+00 -0.00000000000E+00 -0.21862181422E+04  0.21862181422E+04  0.00000000000E+00 0. -1.
         24    2    1    2    0    0 -0.71754918522E+01  0.91482921068E+01 -0.20575928232E+04  0.20591228020E+04  0.78506743768E+02 0.  0.
         25    2    1    2    0    0 -0.56593374351E+01  0.30969742173E+02 -0.64969860180E+02  0.14442661447E+03  0.12508721440E+03 0.  0.
        -24    2    1    2    0    0  0.12834829287E+02 -0.40118034280E+02  0.70554858874E+02  0.11687904340E+03  0.83117586335E+02 0.  0.
        -11    1    3    3    0    0 -0.39777017730E+02  0.20455605663E+02 -0.12189925735E+04  0.12198129108E+04  0.00000000000E+00 0.  1.
         12    1    3    3    0    0  0.32601525878E+02 -0.11307313557E+02 -0.83860024965E+03  0.83930989124E+03  0.00000000000E+00 0. -1.
         11    1    5    5    0    0 -0.31940449514E+02 -0.19701183225E+02  0.52344774017E+02  0.64407331124E+02  0.00000000000E+00 0. -1.
        -12    1    5    5    0    0  0.44775278801E+02 -0.20416851055E+02  0.18210084857E+02  0.52471712277E+02  0.00000000000E+00 0.  1.
          5    1    4    4  501    0 -0.26842736134E+01  0.79761436198E+02 -0.41193015679E+02  0.89907891589E+02  0.41800000000E+01 0. -1.
         -5    1    4    4    0  501 -0.29750638217E+01 -0.48791694025E+02 -0.23776844501E+02  0.54518722885E+02  0.41800000000E+01 0. -1.
</event>
<event>
11    1  0.8551154E-009  0.1420252E+03  0.7561462E-02  0.1105318E+00
         22   -1    0    0    0    0  0.00000000000E+00  0.00000000000E+00  0.66729634018E+02  0.66729634018E+02  0.00000000000E+00 0. -1.
         22   -1    0    0    0    0 -0.00000000000E+00 -0.00000000000E+00 -0.16873522585E+04  0.16873522585E+04  0.00000000000E+00 0. -1.
         24    2    1    2    0    0 -0.60434392427E+02 -0.35894270198E+02 -0.11064861945E+04  0.11117069138E+04  0.81485268929E+02 0.  0.
         25    2    1    2    0    0 -0.68524399013E+01  0.59260532125E+02 -0.51609830249E+03  0.53438206230E+03  0.12509182258E+03 0.  0.
        -24    2    1    2    0    0  0.67286832328E+02 -0.23366261927E+02  0.19618724560E+01  0.10799291651E+03  0.81148758908E+02 0.  0.
        -11    1    3    3    0    0 -0.48363912105E+02 -0.56947490942E+02 -0.59910943251E+03  0.60375011126E+03  0.00000000000E+00 0.  1.
         12    1    3    3    0    0 -0.12070480322E+02  0.21053220744E+02 -0.50737676199E+03  0.50795680250E+03  0.00000000000E+00 0. -1.
         11    1    5    5    0    0  0.72174424429E+02 -0.28567906832E+02  0.26823827989E+02  0.82126674049E+02  0.00000000000E+00 0. -1.
        -12    1    5    5    0    0 -0.48875921005E+01  0.52016449051E+01 -0.24861955533E+02  0.25866242464E+02  0.00000000000E+00 0.  1.
          5    1    4    4  501    0  0.41988499453E+02 -0.97906520012E+01 -0.89146364826E+02  0.99113257007E+02  0.41800000000E+01 0. -1.
         -5    1    4    4    0  501 -0.48840939354E+02  0.69051184127E+02 -0.42695193766E+03  0.43526880529E+03  0.41800000000E+01 0. -1.
</event>
<event>
11    1  0.8551154E-009  0.1291433E+03  0.7561462E-02  0.1120326E+00
         22   -1    0    0    0    0  0.00000000000E+00  0.00000000000E+00  0.23063621374E+03  0.23063621374E+03  0.00000000000E+00 0. -1.
         22   -1    0    0    0    0 -0.00000000000E+00 -0.00000000000E+00 -0.17354333800E+04  0.17354333800E+04  0.00000000000E+00 0.  1.
         24    2    1    2    0    0 -0.22660764344E+02  0.23115764053E+02 -0.16823156205E+04  0.16846256009E+04  0.82034865886E+02 0.  0.
         25    2    1    2    0    0 -0.61827079573E+01 -0.15108771966E+02  0.73302185071E+02  0.14590149742E+03  0.12509011050E+03 0.  0.
        -24    2    1    2    0    0  0.28843472301E+02 -0.80069920874E+01  0.10421626916E+03  0.13554249551E+03  0.81330680034E+02 0.  0.
        -11    1    3    3    0    0 -0.14970994710E+02 -0.18579433759E+02 -0.12517743275E+04  0.12520017144E+04  0.00000000000E+00 0.  1.
         12    1    3    3    0    0 -0.76897696335E+01  0.41695197812E+02 -0.43054129307E+03  0.43262388644E+03  0.00000000000E+00 0. -1.
         11    1    5    5    0    0  0.42029745895E+02  0.20266039333E+02  0.89750157683E+02  0.10115484514E+03  0.00000000000E+00 0. -1.
        -12    1    5    5    0    0 -0.13186273594E+02 -0.28273031420E+02  0.14466111473E+02  0.34387650372E+02  0.00000000000E+00 0.  1.
          5    1    4    4  501    0  0.22354922576E+02  0.43642905410E+02  0.62527024833E+02  0.79571018534E+02  0.41800000000E+01 0.  1.
         -5    1    4    4    0  501 -0.28537630533E+02 -0.58751677376E+02  0.10775160238E+02  0.66330478885E+02  0.41800000000E+01 0.  1.
</event>
<event>
11    1  0.8551154E-009  0.1600467E+03  0.7561462E-02  0.1087033E+00
         22   -1    0    0    0    0  0.00000000000E+00  0.00000000000E+00  0.29396883024E+03  0.29396883024E+03  0.00000000000E+00 0.  1.
         22   -1    0    0    0    0 -0.00000000000E+00 -0.00000000000E+00 -0.11288484620E+04  0.11288484620E+04  0.00000000000E+00 0. -1.
         24    2    1    2    0    0 -0.29293867864E+01  0.54273889147E+01 -0.65894015692E+03  0.66369289379E+03  0.79044854458E+02 0.  0.
         25    2    1    2    0    0  0.98265914995E+02  0.24021793163E+02 -0.43851206972E+03  0.46709435557E+03  0.12510421702E+03 0.  0.
        -24    2    1    2    0    0 -0.95336528209E+02 -0.29449182077E+02  0.26257259487E+03  0.29203004290E+03  0.79880350794E+02 0.  0.
        -13    1    3    3    0    0 -0.24700149430E+02  0.11201732311E+02 -0.83130229637E+02  0.87442617002E+02  0.00000000000E+00 0.  1.
         14    1    3    3    0    0  0.21770762644E+02 -0.57743433961E+01 -0.57580992728E+03  0.57625027679E+03  0.00000000000E+00 0. -1.
         11    1    5    5    0    0  0.10167181903E+02  0.10113262882E+02  0.20498348492E+02  0.25016633764E+02  0.00000000000E+00 0. -1.
        -12    1    5    5    0    0 -0.10550371011E+03 -0.39562444960E+02  0.24207424637E+03  0.26701340913E+03  0.00000000000E+00 0.  1.
          5    1    4    4  501    0 -0.21882174166E+02  0.27810269358E+02 -0.58467586039E+02  0.68470224515E+02  0.41800000000E+01 0.  1.
         -5    1    4    4    0  501  0.12014808916E+03 -0.37884761950E+01 -0.38004448368E+03  0.39862413105E+03  0.41800000000E+01 0.  1.
</event>
<event>
11    1  0.8551154E-009  0.7297381E+03  0.7561462E-02  0.8989593E-01
         22   -1    0    0    0    0  0.00000000000E+00  0.00000000000E+00  0.37618376123E+03  0.37618376123E+03  0.00000000000E+00 0. -1.
         22   -1    0    0    0    0 -0.00000000000E+00 -0.00000000000E+00 -0.16575081668E+04  0.16575081668E+04  0.00000000000E+00 0. -1.
         24    2    1    2    0    0  0.66581153684E+03 -0.31795408688E+03 -0.65163742992E+03  0.98779890733E+03  0.81948381839E+02 0.  0.
         25    2    1    2    0    0 -0.66422680460E+03  0.22728983761E+03 -0.56712965243E+03  0.91112097524E+03  0.12508985021E+03 0.  0.
        -24    2    1    2    0    0 -0.15847322375E+01  0.90664249270E+02 -0.62557323242E+02  0.13477204549E+03  0.77637414195E+02 0.  0.
        -13    1    3    3    0    0  0.41433033483E+03 -0.22459838385E+03 -0.45604434054E+03  0.65581285511E+03  0.00000000000E+00 0.  1.
         14    1    3    3    0    0  0.25148120201E+03 -0.93355703036E+02 -0.19559308938E+03  0.33198605222E+03  0.00000000000E+00 0. -1.
         13    1    5    5    0    0 -0.23418887989E+02  0.34955670172E+00 -0.12548703387E+01  0.23455089088E+02  0.00000000000E+00 0. -1.
        -14    1    5    5    0    0  0.21834155752E+02  0.90314692568E+02 -0.61302452903E+02  0.11131695640E+03  0.00000000000E+00 0.  1.
          5    1    4    4  501    0 -0.55009194872E+03  0.15883995921E+03 -0.50792369176E+03  0.76539874166E+03  0.41800000000E+01 0. -1.
         -5    1    4    4    0  501 -0.11413485588E+03  0.68449878401E+02 -0.59205960670E+02  0.14572223358E+03  0.41800000000E+01 0. -1.
</event>
<event>
11    1  0.8551154E-009  0.1360337E+03  0.7561462E-02  0.1112070E+00
         22   -1    0    0    0    0  0.00000000000E+00  0.00000000000E+00  0.18906848196E+04  0.18906848196E+04  0.00000000000E+00 0.  1.
         22   -1    0    0    0    0 -0.00000000000E+00 -0.00000000000E+00 -0.10531139540E+03  0.10531139540E+03  0.00000000000E+00 0.  1.
        -24    2    1    2    0    0 -0.63186619823E+01 -0.29696792501E+02 -0.74251513048E+02  0.11369882835E+03  0.80574880726E+02 0.  0.
         25    2    1    2    0    0  0.21224580226E+02 -0.25506799433E+02  0.41950271370E+03  0.43901281776E+03  0.12509455514E+03 0.  0.
         24    2    1    2    0    0 -0.14905918244E+02  0.55203591934E+02  0.14401222236E+04  0.14432845689E+04  0.76476827269E+02 0.  0.
        -13    1    5    5    0    0 -0.19427313361E+02  0.51925923015E+02  0.14337096768E+04  0.14347812235E+04  0.00000000000E+00 0.  1.
         14    1    5    5    0    0  0.45213951175E+01  0.32776689198E+01  0.64125468220E+01  0.85033454653E+01  0.00000000000E+00 0. -1.
         13    1    3    3    0    0  0.25891001340E+02 -0.58613343155E+01  0.29584314060E+01  0.26710513037E+02  0.00000000000E+00 0. -1.
        -14    1    3    3    0    0 -0.32209663322E+02 -0.23835458186E+02 -0.77209944454E+02  0.86988315312E+02  0.00000000000E+00 0.  1.
          5    1    4    4  501    0 -0.51371125481E+02 -0.23242690608E+02  0.17373357712E+03  0.18270206189E+03  0.41800000000E+01 0.  1.
         -5    1    4    4    0  501  0.72595705707E+02 -0.22641088253E+01  0.24576913658E+03  0.25631075586E+03  0.41800000000E+01 0.  1.
</event>
<event>
11    1  0.8551154E-009  0.1532060E+03  0.7561462E-02  0.1093647E+00
         22   -1    0    0    0    0  0.00000000000E+00  0.00000000000E+00  0.71579620501E+03  0.71579620501E+03  0.00000000000E+00 0. -1.
         22   -1    0    0    0    0 -0.00000000000E+00 -0.00000000000E+00 -0.14171918115E+03  0.14171918115E+03  0.00000000000E+00 0.  1.
        -24    2    1    2    0    0  0.53169305493E+02 -0.84816382883E+02 -0.64578973617E+02  0.14638776043E+03  0.85077251482E+02 0.  0.
         25    2    1    2    0    0 -0.42353418132E+02  0.28660316389E+02  0.11280541727E+03  0.17603586234E+03  0.12509331278E+03 0.  0.
         24    2    1    2    0    0 -0.10815887361E+02  0.56156066494E+02  0.52585058021E+03  0.53509176339E+03  0.80832390304E+02 0.  0.
        -13    1    5    5    0    0 -0.35519160622E+02  0.79435008005E+01  0.11337405471E+03  0.11907302909E+03  0.00000000000E+00 0.  1.
         14    1    5    5    0    0  0.24703273261E+02  0.48212565694E+02  0.41247652550E+03  0.41601873430E+03  0.00000000000E+00 0. -1.
         13    1    3    3    0    0 -0.12549147546E+01  0.75316398932E+01  0.12299619932E+02  0.14476914761E+02  0.00000000000E+00 0. -1.
        -14    1    3    3    0    0  0.54424220247E+02 -0.92348022776E+02 -0.76878593550E+02  0.13191084567E+03  0.00000000000E+00 0.  1.
          5    1    4    4  501    0  0.14417540388E+02 -0.92952679870E+01  0.10579648030E+03  0.10725966214E+03  0.41800000000E+01 0.  1.
         -5    1    4    4    0  501 -0.56770958520E+02  0.37955584376E+02  0.70089369652E+01  0.68776200200E+02  0.41800000000E+01 0.  1.
</event>
<event>
11    1  0.8551154E-009  0.1367841E+03  0.7561462E-02  0.1111204E+00
         22   -1    0    0    0    0  0.00000000000E+00  0.00000000000E+00  0.58722640350E+02  0.58722640350E+02  0.00000000000E+00 0.  1.
         22   -1    0    0    0    0 -0.00000000000E+00 -0.00000000000E+00 -0.22867454063E+04  0.22867454063E+04  0.00000000000E+00 0.  1.
         24    2    1    2    0    0 -0.55783710256E+01 -0.25187666281E+02 -0.15052495115E+04  0.15075639958E+04  0.79420229482E+02 0.  0.
         25    2    1    2    0    0  0.21557554172E+02  0.76570975419E+02 -0.72617047983E+03  0.74114629167E+03  0.12508564050E+03 0.  0.
        -24    2    1    2    0    0 -0.15979183147E+02 -0.51383309137E+02  0.33972253329E+01  0.96757759213E+02  0.80342666597E+02 0.  0.
        -13    1    3    3    0    0 -0.35734856015E+01 -0.36428993592E+02 -0.14711132031E+04  0.14715685162E+04  0.00000000000E+00 0.  1.
         14    1    3    3    0    0 -0.20048854241E+01  0.11241327311E+02 -0.34136308332E+02  0.35995479603E+02  0.00000000000E+00 0. -1.
         11    1    5    5    0    0  0.49201132496E+01  0.13826806911E+02 -0.19632412319E+02  0.24511624124E+02  0.00000000000E+00 0. -1.
        -12    1    5    5    0    0 -0.20899296396E+02 -0.65210116048E+02  0.23029637652E+02  0.72246135089E+02  0.00000000000E+00 0.  1.
          5    1    4    4  501    0  0.21599000103E+02 -0.35381005539E+01 -0.51137711713E+03  0.51186234798E+03  0.41800000000E+01 0.  1.
         -5    1    4    4    0  501 -0.41445930598E-01  0.80109075973E+02 -0.21479336270E+03  0.22928394368E+03  0.41800000000E+01 0.  1.
</event>
<event>
11    1  0.8551154E-009  0.3356113E+03  0.7561462E-02  0.9861531E-01
         22   -1    0    0    0    0  0.00000000000E+00  0.00000000000E+00  0.34079140449E+03  0.34079140449E+03  0.00000000000E+00 0. -1.
         22   -1    0    0    0    0 -0.00000000000E+00 -0.00000000000E+00 -0.28081603643E+04  0.28081603643E+04  0.00000000000E+00 0. -1.
        -24    2    1    2    0    0 -0.99946449199E+01 -0.27588756794E+03 -0.14521458416E+04  0.14803024837E+04  0.79712326546E+02 0.  0.
         25    2    1    2    0    0  0.76341205548E+02  0.38921307165E+03 -0.12890595137E+04  0.13544877327E+04  0.12509114003E+03 0.  0.
         24    2    1    2    0    0 -0.66346560628E+02 -0.11332550371E+03  0.27383639549E+03  0.31416155239E+03  0.80415008594E+02 0.  0.
        -13    1    5    5    0    0 -0.12342724133E+02 -0.14752975332E+02  0.12080007667E+01  0.19273100063E+02  0.00000000000E+00 0.  1.
         14    1    5    5    0    0 -0.54003836495E+02 -0.98572528376E+02  0.27262839472E+03  0.29488845232E+03  0.00000000000E+00 0. -1.
         11    1    3    3    0    0  0.16001216232E+02 -0.17812810377E+03 -0.10774373219E+04  0.10921798583E+04  0.00000000000E+00 0. -1.
        -12    1    3    3    0    0 -0.25995861152E+02 -0.97759464170E+02 -0.37470851974E+03  0.38812262546E+03  0.00000000000E+00 0.  1.
          5    1    4    4  501    0  0.99817763284E+02  0.36664918973E+03 -0.12236675396E+04  0.12813176554E+04  0.41800000000E+01 0.  1.
         -5    1    4    4    0  501 -0.23476557736E+02  0.22563881918E+02 -0.65391974035E+02  0.73170077207E+02  0.41800000000E+01 0.  1.
</event>
<event>
11    1  0.8551154E-009  0.1577400E+03  0.7561462E-02  0.1089222E+00
         22   -1    0    0    0    0  0.00000000000E+00  0.00000000000E+00  0.34680074029E+03  0.34680074029E+03  0.00000000000E+00 0.  1.
         22   -1    0    0    0    0 -0.00000000000E+00 -0.00000000000E+00 -0.23207562268E+03  0.23207562268E+03  0.00000000000E+00 0.  1.
        -24    2    1    2    0    0  0.95394370992E+02 -0.49045383832E+01 -0.13839571573E+03  0.18569930802E+03  0.78782728771E+02 0.  0.
         25    2    1    2    0    0 -0.92052808953E+02  0.93266156924E+02  0.16090194492E+03  0.24229986861E+03  0.12508994679E+03 0.  0.
         24    2    1    2    0    0 -0.33415620389E+01 -0.88361618540E+02  0.92218888426E+02  0.15087718634E+03  0.80253724566E+02 0.  0.
        -13    1    5    5    0    0  0.30513015563E+02 -0.76893888125E+02  0.55410226382E+02  0.99569108349E+02  0.00000000000E+00 0.  1.
         14    1    5    5    0    0 -0.33854577602E+02 -0.11467730416E+02  0.36808662044E+02  0.51308077989E+02  0.00000000000E+00 0. -1.
         13    1    3    3    0    0  0.90416955388E+02  0.21952466429E+02 -0.12337656707E+03  0.15452803599E+03  0.00000000000E+00 0. -1.
        -14    1    3    3    0    0  0.49774156036E+01 -0.26857004813E+02 -0.15019148659E+02  0.31171272031E+02  0.00000000000E+00 0.  1.
          5    1    4    4  501    0 -0.11976031186E+03  0.60416918162E+02  0.98734585461E+02  0.16660950472E+03  0.41800000000E+01 0. -1.
         -5    1    4    4    0  501  0.27707502905E+02  0.32849238762E+02  0.62167359458E+02  0.75690363894E+02  0.41800000000E+01 0. -1.
</event>
<event>
11    1  0.8551154E-009  0.1625767E+03  0.7561462E-02  0.1084679E+00
         22   -1    0    0    0    0  0.00000000000E+00  0.00000000000E+00  0.31393836222E+04  0.31393836222E+04  0.00000000000E+00 0.  1.
         22   -1    0    0    0    0 -0.00000000000E+00 -0.00000000000E+00 -0.13872567905E+03  0.13872567905E+03  0.00000000000E+00 0.  1.
         24    2    1    2    0    0 -0.11551557764E+02  0.94433206752E+02 -0.55613600725E+02  0.13645166945E+03  0.80468108501E+02 0.  0.
         25    2    1    2    0    0  0.55215664172E+02 -0.15093372037E+03  0.20702718525E+03  0.29040961604E+03  0.12509089552E+03 0.  0.
        -24    2    1    2    0    0 -0.43664106408E+02  0.56500513617E+02  0.28492443587E+04  0.28512480158E+04  0.79517104856E+02 0.  0.
        -11    1    3    3    0    0 -0.43091277513E+01  0.10854985321E+03 -0.50341014703E+02  0.11973243911E+03  0.00000000000E+00 0.  1.
         12    1    3    3    0    0 -0.72424300127E+01 -0.14116646459E+02 -0.52725860223E+01  0.16719230339E+02  0.00000000000E+00 0. -1.
         13    1    5    5    0    0  0.20302943394E+02  0.16231148058E+02  0.40379934228E+03  0.40463510538E+03  0.00000000000E+00 0. -1.
        -14    1    5    5    0    0 -0.63967049802E+02  0.40269365559E+02  0.24454450164E+04  0.24466129104E+04  0.00000000000E+00 0.  1.
          5    1    4    4  501    0 -0.22060322728E+02 -0.16579439083E+02  0.95290427429E+02  0.99293874931E+02  0.41800000000E+01 0. -1.
         -5    1    4    4    0  501  0.77275986900E+02 -0.13435428129E+03  0.11173675782E+03  0.19111574111E+03  0.41800000000E+01 0. -1.
</event>
<event>
11    1  0.8551154E-009  0.2270338E+03  0.7561462E-02  0.1036899E+00
         22   -1    0    0    0    0  0.00000000000E+00  0.00000000000E+00  0.66562957563E+03  0.66562957563E+03  0.00000000000E+00 0. -1.
         22   -1    0    0    0    0 -0.00000000000E+00 -0.00000000000E+00 -0.33674027756E+03  0.33674027756E+03  0.00000000000E+00 0.  1.
        -24    2    1    2    0    0 -0.13116485193E+03 -0.13193052195E+03 -0.24642778769E+03  0.31918952670E+03  0.80903760118E+02 0.  0.
         25    2    1    2    0    0  0.15248145031E+03  0.16183471581E+03  0.30158716844E+03  0.39502302710E+03  0.12508918356E+03 0.  0.
         24    2    1    2    0    0 -0.21316598384E+02 -0.29904193861E+02  0.27372991733E+03  0.28815729938E+03  0.82206467931E+02 0.  0.
        -11    1    5    5    0    0  0.29465130505E+02 -0.25107865550E+02  0.10627363005E+03  0.11310474469E+03  0.00000000000E+00 0.  1.
         12    1    5    5    0    0 -0.50781728888E+02 -0.47963283111E+01  0.16745628728E+03  0.17505255469E+03  0.00000000000E+00 0. -1.
         11    1    3    3    0    0 -0.12270236011E+02  0.94375941475E+01 -0.36006889840E+02  0.39193404943E+02  0.00000000000E+00 0. -1.
        -12    1    3    3    0    0 -0.11889461592E+03 -0.14136811610E+03 -0.21042089785E+03  0.27999612175E+03  0.00000000000E+00 0.  1.
          5    1    4    4  501    0  0.76566089862E+02  0.79657713708E+00  0.81372342074E+02  0.11181203471E+03  0.41800000000E+01 0. -1.
         -5    1    4    4    0  501  0.75915360453E+02  0.16103813867E+03  0.22021482636E+03  0.28321099239E+03  0.41800000000E+01 0. -1.
</event>
<event>
11    1  0.8551154E-009  0.1668267E+03  0.7561462E-02  0.1080827E+00
         22   -1    0    0    0    0  0.00000000000E+00  0.00000000000E+00  0.65120674074E+03  0.65120674074E+03  0.00000000000E+00 0.  1.
         22   -1    0    0    0    0 -0.00000000000E+00 -0.00000000000E+00 -0.13463460685E+03  0.13463460685E+03  0.00000000000E+00 0. -1.
         24    2    1    2    0    0  0.60354266087E+02 -0.91511752921E+02 -0.35496378510E+02  0.14081439501E+03  0.80942341187E+02 0.  0.
         25    2    1    2    0    0 -0.67111661046E+02  0.90771758447E+02  0.12376964048E+03  0.20907020812E+03  0.12509172969E+03 0.  0.
        -24    2    1    2    0    0  0.67573949595E+01  0.73999447333E+00  0.42829887192E+03  0.43595674447E+03  0.81068794112E+02 0.  0.
        -13    1    3    3    0    0  0.41014155598E+02 -0.24446475035E+01 -0.27244131930E+02  0.49298884221E+02  0.00000000000E+00 0.  1.
         14    1    3    3    0    0  0.19340110489E+02 -0.89067105417E+02 -0.82522465802E+01  0.91515510788E+02  0.00000000000E+00 0. -1.
         11    1    5    5    0    0 -0.33799249107E+02 -0.16032338367E+02  0.20519962306E+03  0.20858166366E+03  0.00000000000E+00 0. -1.
        -12    1    5    5    0    0  0.40556644066E+02  0.16772332841E+02  0.22309924886E+03  0.22737508080E+03  0.00000000000E+00 0.  1.
          5    1    4    4  501    0  0.28058565359E+02  0.35584512128E+02  0.29347092554E+01  0.45602911221E+02  0.41800000000E+01 0.  1.
         -5    1    4    4    0  501 -0.95170226405E+02  0.55187246319E+02  0.12083493122E+03  0.16346729689E+03  0.41800000000E+01 0.  1.
</event>
<event>
11    1  0.8551154E-009  0.1434438E+03  0.7561462E-02  0.1103773E+00
         22   -1    0    0    0    0  0.00000000000E+00  0.00000000000E+00  0.34699921720E+03  0.34699921720E+03  0.00000000000E+00 0.  1.
         22   -1    0    0    0    0 -0.00000000000E+00 -0.00000000000E+00 -0.70075158261E+03  0.70075158261E+03  0.00000000000E+00 0.  1.
        -24    2    1    2    0    0  0.42809567724E+02 -0.41841446045E+02 -0.42021472658E+03  0.43258643933E+03  0.83470026686E+02 0.  0.
         25    2    1    2    0    0 -0.77465422005E+02  0.86545255321E+02 -0.23962524573E+03  0.29420249982E+03  0.12507549594E+03 0.  0.
         24    2    1    2    0    0  0.34655854281E+02 -0.44703809276E+02  0.30608760691E+03  0.32096186066E+03  0.78277928552E+02 0.  0.
        -11    1    5    5    0    0  0.57109138977E+02 -0.26735296796E+02  0.25123853385E+03  0.25903094553E+03  0.00000000000E+00 0.  1.
         12    1    5    5    0    0 -0.22453284695E+02 -0.17968512480E+02  0.54849073055E+02  0.61930915134E+02  0.00000000000E+00 0. -1.
         13    1    3    3    0    0 -0.22355134940E+02 -0.28327127982E+02 -0.13972949793E+03  0.14431393152E+03  0.00000000000E+00 0. -1.
        -14    1    3    3    0    0  0.65164702663E+02 -0.13514318063E+02 -0.28048522865E+03  0.28827250781E+03  0.00000000000E+00 0.  1.
          5    1    4    4  501    0 -0.36342315132E+02 -0.26383380682E+02 -0.10145602118E+03  0.11102992065E+03  0.41800000000E+01 0.  1.
         -5    1    4    4    0  501 -0.41123106873E+02  0.11292863600E+03 -0.13816922455E+03  0.18317257917E+03  0.41800000000E+01 0.  1.
</event>
<event>
11    1  0.8551154E-009  0.1702099E+03  0.7561462E-02  0.1077849E+00
         22   -1    0    0    0    0  0.00000000000E+00  0.00000000000E+00  0.12442404799E+04  0.12442404799E+04  0.00000000000E+00 0. -1.
         22   -1    0    0    0    0 -0.00000000000E+00 -0.00000000000E+00 -0.12783311160E+03  0.12783311160E+03  0.00000000000E+00 0. -1.
        -24    2    1    2    0    0  0.12398840358E+03 -0.34845214069E+02 -0.50386921663E+02  0.15977788338E+03  0.80017604161E+02 0.  0.
         25    2    1    2    0    0 -0.45161516472E+02  0.39624888166E+02  0.22896158965E+03  0.26773486864E+03  0.12509538768E+03 0.  0.
         24    2    1    2    0    0 -0.78826887109E+02 -0.47796740966E+01  0.93783270034E+03  0.94456083951E+03  0.80177816655E+02 0.  0.
        -13    1    5    5    0    0 -0.72359632668E+02  0.16259833009E+02  0.43729585612E+03  0.44354026243E+03  0.00000000000E+00 0.  1.
         14    1    5    5    0    0 -0.64672544414E+01 -0.21039507106E+02  0.50053684422E+03  0.50102057708E+03  0.00000000000E+00 0. -1.
         13    1    3    3    0    0  0.13096053738E+03 -0.43378834358E+02 -0.37787695180E+02  0.14303948940E+03  0.00000000000E+00 0. -1.
        -14    1    3    3    0    0 -0.69721337984E+01  0.85336202886E+01 -0.12599226483E+02  0.16738393976E+02  0.00000000000E+00 0.  1.
          5    1    4    4  501    0  0.24020611425E+02 -0.94630442962E+01  0.29829563377E+01  0.26323172474E+02  0.41800000000E+01 0.  1.
         -5    1    4    4    0  501 -0.69182127897E+02  0.49087932462E+02  0.22597863331E+03  0.24141169617E+03  0.41800000000E+01 0.  1.
</event>
<event>
11    1  0.8551154E-009  0.1351029E+03  0.7561462E-02  0.1113153E+00
         22   -1    0    0    0    0  0.00000000000E+00  0.00000000000E+00  0.11705516381E+03  0.11705516381E+03  0.00000000000E+00 0. -1.
         22   -1    0    0    0    0 -0.00000000000E+00 -0.00000000000E+00 -0.81479529829E+03  0.81479529829E+03  0.00000000000E+00 0. -1.
        -24    2    1    2    0    0  0.35539618571E+02  0.35657840076E+02 -0.46255650138E+03  0.47227992819E+03  0.80964606814E+02 0.  0.
         25    2    1    2    0    0 -0.32365210284E+02 -0.42435377506E+02 -0.31679402988E+03  0.34475317624E+03  0.12509207434E+03 0.  0.
         24    2    1    2    0    0 -0.31744082870E+01  0.67775374301E+01  0.81610396776E+02  0.11481735767E+03  0.80416148127E+02 0.  0.
        -11    1    5    5    0    0  0.22901211523E+02  0.35234113147E+02  0.39107915460E+02  0.57405028265E+02  0.00000000000E+00 0.  1.
         12    1    5    5    0    0 -0.26075619810E+02 -0.28456575717E+02  0.42502481316E+02  0.57412329408E+02  0.00000000000E+00 0. -1.
         11    1    3    3    0    0 -0.51653611480E+00 -0.17658382016E+02 -0.23873769450E+03  0.23939041760E+03  0.00000000000E+00 0. -1.
        -12    1    3    3    0    0  0.36056154685E+02  0.53316222092E+02 -0.22381880688E+03  0.23288951059E+03  0.00000000000E+00 0.  1.
          5    1    4    4  501    0 -0.56506123658E+02 -0.67904656214E+02 -0.14893270058E+03  0.17321202628E+03  0.41800000000E+01 0. -1.
         -5    1    4    4    0  501  0.24140913374E+02  0.25469278708E+02 -0.16786132929E+03  0.17154114996E+03  0.41800000000E+01 0. -1.
</event>
<event>
11    1  0.8551154E-009  0.1668361E+03  0.7561462E-02  0.1080818E+00
         22   -1    0    0    0    0  0.00000000000E+00  0.00000000000E+00  0.61679439766E+03  0.61679439766E+03  0.00000000000E+00 0.  1.
         22   -1    0    0    0    0 -0.00000000000E+00 -0.00000000000E+00 -0.12704735103E+03  0.12704735103E+03  0.00000000000E+00 0.  1.
        -24    2    1    2    0    0  0.10900757396E+03  0.17287937986E+02 -0.48091472449E+02  0.14548049741E+03  0.81671668432E+02 0.  0.
         25    2    1    2    0    0 -0.11161204286E+03  0.43659672328E-01  0.26721056084E+03  0.31545158420E+03  0.12510382943E+03 0.  0.
         24    2    1    2    0    0  0.26044688998E+01 -0.17331597659E+02  0.27062795824E+03  0.28290966708E+03  0.80568110389E+02 0.  0.
        -13    1    5    5    0    0  0.21186081463E+01 -0.19505162540E+02  0.27620675944E+03  0.27690271546E+03  0.00000000000E+00 0.  1.
         14    1    5    5    0    0  0.48586075344E+00  0.21735648816E+01 -0.55788012021E+01  0.60069516245E+01  0.00000000000E+00 0. -1.
         13    1    3    3    0    0  0.69868941842E+02 -0.17524263646E+02  0.32874049040E+01  0.72108084716E+02  0.00000000000E+00 0. -1.
        -14    1    3    3    0    0  0.39138632114E+02  0.34812201633E+02 -0.51378877353E+02  0.73372412693E+02  0.00000000000E+00 0.  1.
          5    1    4    4  501    0  0.23619451095E+02 -0.95460793212E+01  0.17209011191E+02  0.31026256084E+02  0.41800000000E+01 0. -1.
         -5    1    4    4    0  501 -0.13523149395E+03  0.95897389936E+01  0.25000154965E+03  0.28442532812E+03  0.41800000000E+01 0. -1.
</event>
<event>
11    1  0.8551154E-009  0.1879430E+03  0.7561462E-02  0.1063393E+00
         22   -1    0    0    0    0  0.00000000000E+00  0.00000000000E+00  0.29583348904E+04  0.29583348904E+04  0.00000000000E+00 0.  1.
         22   -1    0    0    0    0 -0.00000000000E+00 -0.00000000000E+00 -0.43174911560E+03  0.43174911560E+03  0.00000000000E+00 0. -1.
        -24    2    1    2    0    0 -0.17599131659E+02  0.10970248811E+03 -0.34850259719E+03  0.37385723137E+03  0.77270976907E+02 0.  0.
         25    2    1    2    0    0  0.13574123750E+03 -0.18073439407E+03  0.17637238043E+03  0.31280156828E+03  0.12508796818E+03 0.  0.
         24    2    1    2    0    0 -0.11814210584E+03  0.71031905968E+02  0.26987159916E+04  0.27034252064E+04  0.80229385987E+02 0.  0.
        -13    1    5    5    0    0 -0.96103675674E+02  0.79179947183E+02  0.25321819055E+04  0.25352417209E+04  0.00000000000E+00 0.  1.
         14    1    5    5    0    0 -0.22038430166E+02 -0.81480412152E+01  0.16653408608E+03  0.16818348553E+03  0.00000000000E+00 0. -1.
         11    1    3    3    0    0  0.97693904907E+01  0.75641610940E+02 -0.29540888830E+03  0.30509589571E+03  0.00000000000E+00 0. -1.
        -12    1    3    3    0    0 -0.27368522149E+02  0.34060877166E+02 -0.53093708886E+02  0.68761335657E+02  0.00000000000E+00 0.  1.
          5    1    4    4  501    0  0.91581472368E+01 -0.10559930368E+03  0.44179950874E+02  0.11491050891E+03  0.41800000000E+01 0. -1.
         -5    1    4    4    0  501  0.12658309026E+03 -0.75135090391E+02  0.13219242955E+03  0.19789105937E+03  0.41800000000E+01 0. -1.
</event>
<event>
11    1  0.8551154E-009  0.1397005E+03  0.7561462E-02  0.1107893E+00
         22   -1    0    0    0    0  0.00000000000E+00  0.00000000000E+00  0.83166266385E+03  0.83166266385E+03  0.00000000000E+00 0. -1.
         22   -1    0    0    0    0 -0.00000000000E+00 -0.00000000000E+00 -0.29433080090E+04  0.29433080090E+04  0.00000000000E+00 0.  1.
        -24    2    1    2    0    0  0.69533201041E+01 -0.36825153380E+02 -0.29116580763E+04  0.29130640790E+04  0.82371924910E+02 0.  0.
         25    2    1    2    0    0 -0.66261043641E+02  0.16417551817E+02  0.16212062403E+03  0.21584845377E+03  0.12508955331E+03 0.  0.
         24    2    1    2    0    0  0.59307723537E+02  0.20407601563E+02  0.63789210719E+03  0.64605814009E+03  0.80937653092E+02 0.  0.
        -13    1    5    5    0    0  0.14407320069E+02 -0.30467102281E+02  0.17454300310E+03  0.17776691234E+03  0.00000000000E+00 0.  1.
         14    1    5    5    0    0  0.44900403468E+02  0.50874703845E+02  0.46334910409E+03  0.46829122775E+03  0.00000000000E+00 0. -1.
         11    1    3    3    0    0  0.74204668472E+01  0.86166637983E+01 -0.61423518891E+02  0.62467262596E+02  0.00000000000E+00 0. -1.
        -12    1    3    3    0    0 -0.46714674312E+00 -0.45441817178E+02 -0.28502345574E+04  0.28505968164E+04  0.00000000000E+00 0.  1.
          5    1    4    4  501    0  0.36117483784E+02  0.15720501252E+02  0.52901526743E+02  0.66088204138E+02  0.41800000000E+01 0. -1.
         -5    1    4    4    0  501 -0.10237852742E+03  0.69705056524E+00  0.10921909729E+03  0.14976024963E+03  0.41800000000E+01 0. -1.
</event>
<event>
11    1  0.8551154E-009  0.1296853E+03  0.7561462E-02  0.1119656E+00
         22   -1    0    0    0    0  0.00000000000E+00  0.00000000000E+00  0.28536095777E+03  0.28536095777E+03  0.00000000000E+00 0. -1.
         22   -1    0    0    0    0 -0.00000000000E+00 -0.00000000000E+00 -0.75543474333E+03  0.75543474333E+03  0.00000000000E+00 0. -1.
        -24    2    1    2    0    0  0.20365327536E+02 -0.26781744600E+02 -0.67053714997E+03  0.67625824818E+03  0.81074905625E+02 0.  0.
         25    2    1    2    0    0 -0.13479739163E+02  0.47763148756E+02 -0.13227911798E+02  0.13522393843E+03  0.12509002409E+03 0.  0.
         24    2    1    2    0    0 -0.68855883729E+01 -0.20981404156E+02  0.21369127621E+03  0.22931351450E+03  0.80206581745E+02 0.  0.
        -13    1    5    5    0    0 -0.21388320057E+01 -0.31421881664E+02  0.24832669829E+02  0.40106991167E+02  0.00000000000E+00 0.  1.
         14    1    5    5    0    0 -0.47467563672E+01  0.10440477507E+02  0.18885860638E+03  0.18920652333E+03  0.00000000000E+00 0. -1.
         13    1    3    3    0    0  0.24703064128E+02 -0.32661657921E+02 -0.66679053432E+03  0.66804688603E+03  0.00000000000E+00 0. -1.
        -14    1    3    3    0    0 -0.43377365922E+01  0.58799133212E+01 -0.37466156500E+01  0.82113621427E+01  0.00000000000E+00 0.  1.
          5    1    4    4  501    0  0.36351666778E+02  0.55266272968E+02  0.26027493684E+02  0.71208899955E+02  0.41800000000E+01 0.  1.
         -5    1    4    4    0  501 -0.49831405941E+02 -0.75031242121E+01 -0.39255405483E+02  0.64015038473E+02  0.41800000000E+01 0.  1.
</event>
<event>
11    1  0.8551154E-009  0.1463587E+03  0.7561462E-02  0.1100659E+00
         22   -1    0    0    0    0  0.00000000000E+00  0.00000000000E+00  0.12909746419E+03  0.12909746419E+03  0.00000000000E+00 0. -1.
         22   -1    0    0    0    0 -0.00000000000E+00 -0.00000000000E+00 -0.53002275246E+03  0.53002275246E+03  0.00000000000E+00 0.  1.
        -24    2    1    2    0    0  0.23215593640E+02 -0.49308400021E+01 -0.32309175220E+03  0.33383146368E+03  0.80572258478E+02 0.  0.
         25    2    1    2    0    0  0.52413447592E+02 -0.21746911446E+02 -0.13695524297E+03  0.19396962753E+03  0.12508948869E+03 0.  0.
         24    2    1    2    0    0 -0.75629041232E+02  0.26677751448E+02  0.59121706895E+02  0.13131912544E+03  0.85544620983E+02 0.  0.
        -11    1    5    5    0    0 -0.63707998871E+02  0.22265328706E+02 -0.33475843094E+01  0.67569669995E+02  0.00000000000E+00 0.  1.
         12    1    5    5    0    0 -0.11921042360E+02  0.44124227418E+01  0.62469291204E+02  0.63749455440E+02  0.00000000000E+00 0. -1.
         13    1    3    3    0    0  0.20919214925E+02 -0.35017875492E+02 -0.90217392357E+02  0.99010317850E+02  0.00000000000E+00 0. -1.
        -14    1    3    3    0    0  0.22963787143E+01  0.30087035489E+02 -0.23287435984E+03  0.23482114583E+03  0.00000000000E+00 0.  1.
          5    1    4    4  501    0  0.76981913946E+01 -0.37195834797E+02  0.10025169980E+02  0.39506565405E+02  0.41800000000E+01 0.  1.
         -5    1    4    4    0  501  0.44715256197E+02  0.15448923351E+02 -0.14698041295E+03  0.15446306212E+03  0.41800000000E+01 0.  1.
</event>
<event>
11    1  0.8551154E-009  0.1311798E+03  0.7561462E-02  0.1117828E+00
         22   -1    0    0    0    0  0.00000000000E+00  0.00000000000E+00  0.71294874453E+03  0.71294874453E+03  0.00000000000E+00 0. -1.
         22   -1    0    0    0    0 -0.00000000000E+00 -0.00000000000E+00 -0.34833768014E+03  0.34833768014E+03  0.00000000000E+00 0. -1.
        -24    2    1    2    0    0 -0.38886192689E+02 -0.76877132646E+01 -0.27313933466E+03  0.28671549328E+03  0.77649475415E+02 0.  0.
         25    2    1    2    0    0  0.63922165907E+02  0.36326694826E+02  0.15424196132E+02  0.14591403578E+03  0.12508927996E+03 0.  0.
         24    2    1    2    0    0 -0.25035973219E+02 -0.28638981562E+02  0.62232620292E+03  0.62865689560E+03  0.80452460042E+02 0.  0.
        -11    1    5    5    0    0 -0.80684735653E+01 -0.25520979577E+02  0.55998764596E+02  0.62066756807E+02  0.00000000000E+00 0.  1.
         12    1    5    5    0    0 -0.16967499653E+02 -0.31180019845E+01  0.56632743832E+03  0.56659013879E+03  0.00000000000E+00 0. -1.
         13    1    3    3    0    0 -0.47213563934E+02 -0.33368829598E+02 -0.15248328494E+03  0.16307590746E+03  0.00000000000E+00 0. -1.
        -14    1    3    3    0    0  0.83273712453E+01  0.25681116333E+02 -0.12065604972E+03  0.12363958582E+03  0.00000000000E+00 0.  1.
          5    1    4    4  501    0  0.61646949136E+01 -0.44550800670E+02  0.10194213552E+02  0.46305201583E+02  0.41800000000E+01 0. -1.
         -5    1    4    4    0  501  0.57757470994E+02  0.80877495496E+02  0.52299825802E+01  0.99608834202E+02  0.41800000000E+01 0. -1.
</event>
<event>
11    1  0.8551154E-009  0.1414082E+03  0.7561462E-02  0.1105996E+00
         22   -1    0    0    0    0  0.00000000000E+00  0.00000000000E+00  0.26849549677E+02  0.26849549677E+02  0.00000000000E+00 0.  1.
         22   -1    0    0    0    0 -0.00000000000E+00 -0.00000000000E+00 -0.24512402673E+04  0.24512402673E+04  0.00000000000E+00 0.  1.
        -24    2    1    2    0    0 -0.14818890187E+01  0.80655118756E+02 -0.17199222260E+04  0.17237167717E+04  0.80991364918E+02 0.  0.
         25    2    1    2    0    0 -0.20476204588E+02 -0.89315832553E+01 -0.54485611574E+03  0.55947704826E+03  0.12508929825E+03 0.  0.
         24    2    1    2    0    0  0.21958093607E+02 -0.71723535501E+02 -0.15961237587E+03  0.19489599706E+03  0.82957312627E+02 0.  0.
        -13    1    5    5    0    0  0.53130121416E+02 -0.42876735164E+02 -0.11127875554E+03  0.13055338239E+03  0.00000000000E+00 0.  1.
         14    1    5    5    0    0 -0.31172027810E+02 -0.28846800337E+02 -0.48333620333E+02  0.64342614665E+02  0.00000000000E+00 0. -1.
         13    1    3    3    0    0 -0.30026793356E+02  0.26280672245E+02 -0.32455822491E+03  0.32700202356E+03  0.00000000000E+00 0. -1.
        -14    1    3    3    0    0  0.28544904337E+02  0.54374446511E+02 -0.13953640011E+04  0.13967147481E+04  0.00000000000E+00 0.  1.
          5    1    4    4  501    0 -0.14485348084E+02 -0.25196664437E+02 -0.22952932427E+02  0.37269380393E+02  0.41800000000E+01 0. -1.
         -5    1    4    4    0  501 -0.59908565037E+01  0.16265081182E+02 -0.52190318331E+03  0.52220766786E+03  0.41800000000E+01 0. -1.
</event>
<event>
11    1  0.8551154E-009  0.1615165E+03  0.7561462E-02  0.1085660E+00
         22   -1    0    0    0    0  0.00000000000E+00  0.00000000000E+00  0.35959924114E+03  0.35959924114E+03  0.00000000000E+00 0.  1.
         22   -1    0    0    0    0 -0.00000000000E+00 -0.00000000000E+00 -0.82535203433E+03  0.82535203433E+03  0.00000000000E+00 0.  1.
        -24    2    1    2    0    0  0.58506310587E+02  0.13374495064E+02 -0.68295165107E+03  0.69028419667E+03  0.80420451211E+02 0.  0.
         25    2    1    2    0    0 -0.93758854621E+02  0.81483168549E+02 -0.62213968328E+02  0.18694431652E+03  0.12508944819E+03 0.  0.
         24    2    1    2    0    0  0.35252544034E+02 -0.94857663613E+02  0.27941282620E+03  0.30772276228E+03  0.79881492049E+02 0.  0.
        -13    1    5    5    0    0 -0.11150361651E+01 -0.40950284965E+02  0.20432454238E+03  0.20839070940E+03  0.00000000000E+00 0.  1.
         14    1    5    5    0    0  0.36367580199E+02 -0.53907378648E+02  0.75088283817E+02  0.99332052877E+02  0.00000000000E+00 0. -1.
         13    1    3    3    0    0 -0.18409715956E+01  0.31345621746E+01  0.86239504053E+00  0.37360917612E+01  0.00000000000E+00 0. -1.
        -14    1    3    3    0    0  0.60347282182E+02  0.10239932889E+02 -0.68381404611E+03  0.68654810490E+03  0.00000000000E+00 0.  1.
          5    1    4    4  501    0 -0.93691938816E+02  0.10573209314E+02 -0.67011091914E+02  0.11574943194E+03  0.41800000000E+01 0.  1.
         -5    1    4    4    0  501 -0.66915804442E-01  0.70909959235E+02  0.47971235860E+01  0.71194884586E+02  0.41800000000E+01 0.  1.
</event>
<event>
11    1  0.8551154E-009  0.2003532E+03  0.7561462E-02  0.1054274E+00
         22   -1    0    0    0    0  0.00000000000E+00  0.00000000000E+00  0.34372575958E+03  0.34372575958E+03  0.00000000000E+00 0. -1.
         22   -1    0    0    0    0 -0.00000000000E+00 -0.00000000000E+00 -0.17071844949E+04  0.17071844949E+04  0.00000000000E+00 0.  1.
         24    2    1    2    0    0 -0.34857723462E+01 -0.14549709160E+03 -0.12212276730E+04  0.12328928593E+04  0.86291475990E+02 0.  0.
         25    2    1    2    0    0  0.28985128215E+02  0.22097542572E+03 -0.43498561300E+03  0.50450998694E+03  0.12509023531E+03 0.  0.
        -24    2    1    2    0    0 -0.25499355869E+02 -0.75478334122E+02  0.29275455073E+03  0.31350740824E+03  0.78958672575E+02 0.  0.
        -13    1    3    3    0    0  0.16320620600E+02 -0.14470843898E+03 -0.11408639359E+04  0.11501206090E+04  0.00000000000E+00 0.  1.
         14    1    3    3    0    0 -0.19806392946E+02 -0.78865262338E+00 -0.80363737065E+02  0.82772250239E+02  0.00000000000E+00 0. -1.
         13    1    5    5    0    0 -0.21794720218E+02 -0.81584144983E+02  0.29432108264E+03  0.30619582334E+03  0.00000000000E+00 0. -1.
        -14    1    5    5    0    0 -0.37046356508E+01  0.61058108613E+01 -0.15665319077E+01  0.73115849032E+01  0.00000000000E+00 0.  1.
          5    1    4    4  501    0  0.30529960189E+02  0.23259961106E+03 -0.43215688672E+03  0.49174353547E+03  0.41800000000E+01 0.  1.
         -5    1    4    4    0  501 -0.15448319745E+01 -0.11624185340E+02 -0.28287262769E+01  0.12766451465E+02  0.41800000000E+01 0.  1.
</event>
<event>
11    1  0.8551154E-009  0.1410126E+03  0.7561462E-02  0.1106433E+00
         22   -1    0    0    0    0  0.00000000000E+00  0.00000000000E+00  0.62737249584E+03  0.62737249584E+03  0.00000000000E+00 0. -1.
         22   -1    0    0    0    0 -0.00000000000E+00 -0.00000000000E+00 -0.20530662532E+03  0.20530662532E+03  0.00000000000E+00 0.  1.
         24    2    1    2    0    0  0.21028681791E+02  0.59411847794E+02 -0.15905000721E+03  0.18986853446E+03  0.82347935413E+02 0.  0.
         25    2    1    2    0    0 -0.23859464763E+02 -0.95222334801E+02  0.21741432253E+03  0.26935685421E+03  0.12509020811E+03 0.  0.
        -24    2    1    2    0    0  0.28307829716E+01  0.35810487007E+02  0.36370155519E+03  0.37345373248E+03  0.76801463173E+02 0.  0.
        -11    1    3    3    0    0 -0.92706713200E+01  0.69510366402E+02 -0.12395490785E+03  0.14241648628E+03  0.00000000000E+00 0.  1.
         12    1    3    3    0    0  0.30299353111E+02 -0.10098518609E+02 -0.35095099360E+02  0.47452048176E+02  0.00000000000E+00 0. -1.
         11    1    5    5    0    0  0.54968253952E+01  0.59933565239E+02  0.24362244546E+03  0.25094649482E+03  0.00000000000E+00 0. -1.
        -12    1    5    5    0    0 -0.26660424236E+01 -0.24123078232E+02  0.12007910973E+03  0.12250723766E+03  0.00000000000E+00 0.  1.
          5    1    4    4  501    0 -0.33106936391E+02 -0.27528965064E+02  0.19746319559E+01  0.43304557798E+02  0.41800000000E+01 0. -1.
         -5    1    4    4    0  501  0.92474716287E+01 -0.67693369737E+02  0.21543969058E+03  0.22605229642E+03  0.41800000000E+01 0. -1.
</event>
<event>
11    1  0.8551154E-009  0.1512456E+03  0.7561462E-02  0.1095613E+00
         22   -1    0    0    0    0  0.00000000000E+00  0.00000000000E+00  0.17982005945E+04  0.17982005945E+04  0.00000000000E+00 0.  1.
         22   -1    0    0    0    0 -0.00000000000E+00 -0.00000000000E+00 -0.19179049810E+03  0.19179049810E+03  0.00000000000E+00 0.  1.
         24    2    1    2    0    0  0.14513362747E+02  0.80399398998E+02 -0.12859340809E+03  0.17162550248E+03  0.79021183483E+02 0.  0.
         25    2    1    2    0    0  0.35957791550E+01 -0.11436663770E+03  0.13724661342E+03  0.21812697429E+03  0.12510030604E+03 0.  0.
        -24    2    1    2    0    0 -0.18109141902E+02  0.33967238705E+02  0.15977568910E+04  0.16002386158E+04  0.80341958630E+02 0.  0.
        -13    1    3    3    0    0 -0.26612344141E+01  0.59810016058E+02 -0.13166555599E+03  0.14463795775E+03  0.00000000000E+00 0.  1.
         14    1    3    3    0    0  0.17174597161E+02  0.20589382940E+02  0.30721478985E+01  0.26987544724E+02  0.00000000000E+00 0. -1.
         13    1    5    5    0    0  0.29826261366E+02 -0.79489787806E+00  0.51373714681E+03  0.51460285050E+03  0.00000000000E+00 0. -1.
        -14    1    5    5    0    0 -0.47935403268E+02  0.34762136583E+02  0.10840197442E+04  0.10856357653E+04  0.00000000000E+00 0.  1.
          5    1    4    4  501    0 -0.36266216419E+02 -0.92339020536E+02  0.14076017795E+03  0.17225746214E+03  0.41800000000E+01 0. -1.
         -5    1    4    4    0  501  0.39861995574E+02 -0.22027617167E+02 -0.35135645310E+01  0.45869512151E+02  0.41800000000E+01 0. -1.
</event>
<event>
11    1  0.8551154E-009  0.1730863E+03  0.7561462E-02  0.1075377E+00
         22   -1    0    0    0    0  0.00000000000E+00  0.00000000000E+00  0.71604634544E+03  0.71604634544E+03  0.00000000000E+00 0.  1.
         22   -1    0    0    0    0 -0.00000000000E+00 -0.00000000000E+00 -0.15526024350E+03  0.15526024350E+03  0.00000000000E+00 0. -1.
         24    2    1    2    0    0  0.70470958048E+01 -0.17282572258E+00 -0.64123742777E+02  0.10312044351E+03  0.80450481997E+02 0.  0.
         25    2    1    2    0    0  0.13007625223E+02 -0.11793044236E+03  0.55867920882E+02  0.18123453597E+03  0.12509174591E+03 0.  0.
        -24    2    1    2    0    0 -0.20054721028E+02  0.11810326808E+03  0.56904192384E+03  0.58695160947E+03  0.79705125331E+02 0.  0.
        -11    1    3    3    0    0 -0.23432663351E+02 -0.74010173602E+01  0.68759283038E+01  0.25517506926E+02  0.00000000000E+00 0.  1.
         12    1    3    3    0    0  0.30479759156E+02  0.72281916376E+01 -0.70999671081E+02  0.77602936582E+02  0.00000000000E+00 0. -1.
         11    1    5    5    0    0 -0.48083814954E+01 -0.92073792782E+01  0.14863588876E+02  0.18133467403E+02  0.00000000000E+00 0. -1.
        -12    1    5    5    0    0 -0.15246339532E+02  0.12731064736E+03  0.55417833496E+03  0.56881814206E+03  0.00000000000E+00 0.  1.
          5    1    4    4  501    0  0.69150341412E+02 -0.60630468754E+02  0.31146534757E+02  0.97187460540E+02  0.41800000000E+01 0. -1.
         -5    1    4    4    0  501 -0.56142716189E+02 -0.57299973607E+02  0.24721386125E+02  0.84047075431E+02  0.41800000000E+01 0. -1.
</event>
<event>
11    1  0.8551154E-009  0.1359474E+03  0.7561462E-02  0.1112170E+00
         22   -1    0    0    0    0  0.00000000000E+00  0.00000000000E+00  0.16444480082E+04  0.16444480082E+04  0.00000000000E+00 0. -1.
         22   -1    0    0    0    0 -0.00000000000E+00 -0.00000000000E+00 -0.15140836252E+03  0.15140836252E+03  0.00000000000E+00 0. -1.
         24    2    1    2    0    0 -0.82337604821E+01  0.45657384452E+02 -0.17236503347E+02  0.94506906623E+02  0.80511283589E+02 0.  0.
         25    2    1    2    0    0 -0.21201851674E+02 -0.63286222095E+02 -0.41526324241E+02  0.14773566752E+03  0.12508687954E+03 0.  0.
        -24    2    1    2    0    0  0.29435612156E+02  0.17628837643E+02  0.15518024733E+04  0.15536137966E+04  0.66690941389E+02 0.  0.
        -13    1    3    3    0    0  0.10490638854E+02 -0.43244802018E+01  0.24337020709E+02  0.26852284998E+02  0.00000000000E+00 0.  1.
         14    1    3    3    0    0 -0.18724399337E+02  0.49981864654E+02 -0.41573524056E+02  0.67654621625E+02  0.00000000000E+00 0. -1.
         13    1    5    5    0    0  0.35846787873E+02  0.36906258465E+02  0.12894025923E+04  0.12904286532E+04  0.00000000000E+00 0. -1.
        -14    1    5    5    0    0 -0.64111757167E+01 -0.19277420821E+02  0.26239988100E+03  0.26318514334E+03  0.00000000000E+00 0.  1.
          5    1    4    4  501    0  0.35778577374E+00 -0.98725131552E+02 -0.20012850923E+02  0.10082046525E+03  0.41800000000E+01 0. -1.
         -5    1    4    4    0  501 -0.21559637448E+02  0.35438909457E+02 -0.21513473318E+02  0.46915202276E+02  0.41800000000E+01 0. -1.
</event>
<event>
11    1  0.8551154E-009  0.1473026E+03  0.7561462E-02  0.1099667E+00
         22   -1    0    0    0    0  0.00000000000E+00  0.00000000000E+00  0.16441870039E+03  0.16441870039E+03  0.00000000000E+00 0.  1.
         22   -1    0    0    0    0 -0.00000000000E+00 -0.00000000000E+00 -0.42835365578E+03  0.42835365578E+03  0.00000000000E+00 0.  1.
        -24    2    1    2    0    0  0.73590406299E+01  0.19213241980E+02 -0.25640480577E+03  0.27016600774E+03  0.82601108751E+02 0.  0.
         25    2    1    2    0    0  0.71288798197E+02 -0.91928015594E+01 -0.10120854490E+03  0.17623106271E+03  0.12509043750E+03 0.  0.
         24    2    1    2    0    0 -0.78647838827E+02 -0.10020440421E+02  0.93678395277E+02  0.14637528572E+03  0.79775878243E+02 0.  0.
        -11    1    5    5    0    0 -0.53563634428E+02 -0.41953511085E+02  0.76232869797E+02  0.10217930545E+03  0.00000000000E+00 0.  1.
         12    1    5    5    0    0 -0.25084204398E+02  0.31933070665E+02  0.17445525480E+02  0.44195980266E+02  0.00000000000E+00 0. -1.
         13    1    3    3    0    0  0.25857267483E+02 -0.24946121143E+02 -0.87038730645E+02  0.94162879491E+02  0.00000000000E+00 0. -1.
        -14    1    3    3    0    0 -0.18498226853E+02  0.44159363123E+02 -0.16936607513E+03  0.17600312824E+03  0.00000000000E+00 0.  1.
          5    1    4    4  501    0  0.96631416403E+02 -0.39543216027E+02 -0.74560640997E+02  0.12836688886E+03  0.41800000000E+01 0. -1.
         -5    1    4    4    0  501 -0.25342618207E+02  0.30350414467E+02 -0.26647903902E+02  0.47864173849E+02  0.41800000000E+01 0. -1.
</event>
<event>
11    1  0.8551154E-009  0.1700831E+03  0.7561462E-02  0.1077959E+00
         22   -1    0    0    0    0  0.00000000000E+00  0.00000000000E+00  0.23624448298E+04  0.23624448298E+04  0.00000000000E+00 0.  1.
         22   -1    0    0    0    0 -0.00000000000E+00 -0.00000000000E+00 -0.13950880684E+03  0.13950880684E+03  0.00000000000E+00 0. -1.
        -24    2    1    2    0    0 -0.54648158250E+02  0.62366941780E+02 -0.74243683115E+02  0.14769718470E+03  0.97089017196E+02 0.  0.
         25    2    1    2    0    0  0.15727814431E+03 -0.98604474491E+02  0.45515655645E+03  0.50722210318E+03  0.12509002359E+03 0.  0.
         24    2    1    2    0    0 -0.10262998606E+03  0.36237532711E+02  0.18420231496E+04  0.18470343488E+04  0.81489440786E+02 0.  0.
        -13    1    5    5    0    0 -0.10026251743E+03  0.50950033310E+02  0.17652095990E+04  0.17687886835E+04  0.00000000000E+00 0.  1.
         14    1    5    5    0    0 -0.23674686323E+01 -0.14712500599E+02  0.76813550604E+02  0.78245665299E+02  0.00000000000E+00 0. -1.
         11    1    3    3    0    0 -0.62125872533E+02  0.39857777995E+02 -0.92085571917E+02  0.11801702869E+03  0.00000000000E+00 0. -1.
        -12    1    3    3    0    0  0.74777142837E+01  0.22509163784E+02  0.17841888802E+02  0.29680156017E+02  0.00000000000E+00 0.  1.
          5    1    4    4  501    0  0.12085955310E+03 -0.11834165679E+03  0.41974740534E+03  0.45256727234E+03  0.41800000000E+01 0. -1.
         -5    1    4    4    0  501  0.36418591211E+02  0.19737182301E+02  0.35409151117E+02  0.54654830837E+02  0.41800000000E+01 0. -1.
</event>
<event>
11    1  0.8551154E-009  0.1428593E+03  0.7561462E-02  0.1104407E+00
         22   -1    0    0    0    0  0.00000000000E+00  0.00000000000E+00  0.17191751259E+03  0.17191751259E+03  0.00000000000E+00 0.  1.
         22   -1    0    0    0    0 -0.00000000000E+00 -0.00000000000E+00 -0.11224647862E+04  0.11224647862E+04  0.00000000000E+00 0. -1.
         24    2    1    2    0    0  0.68000468879E+02 -0.93884877507E+01 -0.91860527730E+03  0.92482963336E+03  0.82231306541E+02 0.  0.
         25    2    1    2    0    0 -0.75602486101E+02 -0.24702892621E+02 -0.15749568058E+03  0.21628350826E+03  0.12509075798E+03 0.  0.
        -24    2    1    2    0    0  0.76020172213E+01  0.34091380372E+02  0.12555368429E+03  0.15326915717E+03  0.80670279641E+02 0.  0.
        -13    1    3    3    0    0  0.24987749479E+01  0.16250453739E+02 -0.37809491611E+02  0.41229586208E+02  0.00000000000E+00 0.  1.
         14    1    3    3    0    0  0.65501693931E+02 -0.25638941490E+02 -0.88079578569E+03  0.88360004715E+03  0.00000000000E+00 0. -1.
         13    1    5    5    0    0  0.24213863331E+02 -0.15953464871E+02  0.19841051656E+02  0.35135331927E+02  0.00000000000E+00 0. -1.
        -14    1    5    5    0    0 -0.16611846110E+02  0.50044845243E+02  0.10571263264E+03  0.11813382524E+03  0.00000000000E+00 0.  1.
          5    1    4    4  501    0 -0.26627385183E+02 -0.66389326921E+02 -0.12505956211E+03  0.14413163027E+03  0.41800000000E+01 0.  1.
         -5    1    4    4    0  501 -0.48975100918E+02  0.41686434300E+02 -0.32436118479E+02  0.72151877983E+02  0.41800000000E+01 0.  1.
</event>
<event>
11    1  0.8551154E-009  0.1315771E+03  0.7561462E-02  0.1117346E+00
         22   -1    0    0    0    0  0.00000000000E+00  0.00000000000E+00  0.22898448936E+03  0.22898448936E+03  0.00000000000E+00 0.  1.
         22   -1    0    0    0    0 -0.00000000000E+00 -0.00000000000E+00 -0.33545765401E+03  0.33545765401E+03  0.00000000000E+00 0.  1.
        -24    2    1    2    0    0  0.33586713011E+02  0.16893418115E+02 -0.24094990098E+03  0.25692894174E+03  0.80883690923E+02 0.  0.
         25    2    1    2    0    0 -0.12682492295E+02 -0.51964155606E+02 -0.11102147342E+02  0.13649784163E+03  0.12508910430E+03 0.  0.
         24    2    1    2    0    0 -0.20904220716E+02  0.35070737491E+02  0.14557888367E+03  0.17101535999E+03  0.79913070971E+02 0.  0.
        -11    1    5    5    0    0 -0.25188977726E+02  0.41975163216E+02  0.15261039057E+03  0.16026955492E+03  0.00000000000E+00 0.  1.
         12    1    5    5    0    0  0.42847570101E+01 -0.69044257249E+01 -0.70315069036E+01  0.10745805068E+02  0.00000000000E+00 0. -1.
         11    1    3    3    0    0 -0.98169502743E+01 -0.24782559414E+02 -0.49169297869E+02  0.55930024287E+02  0.00000000000E+00 0. -1.
        -12    1    3    3    0    0  0.43403663285E+02  0.41675977529E+02 -0.19178060311E+03  0.20099891746E+03  0.00000000000E+00 0.  1.
          5    1    4    4  501    0  0.18270110949E+02 -0.79874421553E+02 -0.33942995135E+02  0.88788059396E+02  0.41800000000E+01 0.  1.
         -5    1    4    4    0  501 -0.30952603244E+02  0.27910265947E+02  0.22840847794E+02  0.47709782233E+02  0.41800000000E+01 0.  1.
</event>
<event>
11    1  0.8551154E-009  0.1670720E+03  0.7561462E-02  0.1080608E+00
         22   -1    0    0    0    0  0.00000000000E+00  0.00000000000E+00  0.60297415244E+03  0.60297415244E+03  0.00000000000E+00 0.  1.
         22   -1    0    0    0    0 -0.00000000000E+00 -0.00000000000E+00 -0.18690916131E+03  0.18690916131E+03  0.00000000000E+00 0.  1.
         24    2    1    2    0    0  0.19228177326E+02 -0.10276517852E+03 -0.10830815065E+03  0.17111181537E+03  0.81352278039E+02 0.  0.
         25    2    1    2    0    0 -0.51822651917E+02  0.16626722423E+03  0.27913310235E+03  0.35198277915E+03  0.12508481477E+03 0.  0.
        -24    2    1    2    0    0  0.32594474591E+02 -0.63502045708E+02  0.24524003943E+03  0.26678871923E+03  0.77062534273E+02 0.  0.
        -11    1    3    3    0    0  0.24114423954E+02 -0.11076566742E+03 -0.11348414849E+03  0.16040321218E+03  0.00000000000E+00 0.  1.
         12    1    3    3    0    0 -0.48862466274E+01  0.80004888968E+01  0.51759978323E+01  0.10708603189E+02  0.00000000000E+00 0. -1.
         13    1    5    5    0    0 -0.23106514563E+02 -0.12418637031E+02  0.95763596252E+02  0.99291489707E+02  0.00000000000E+00 0. -1.
        -14    1    5    5    0    0  0.55700989153E+02 -0.51083408677E+02  0.14947644318E+03  0.16749722953E+03  0.00000000000E+00 0.  1.
          5    1    4    4  501    0 -0.16899320802E+02  0.16704746583E+03  0.17718988805E+03  0.24413965617E+03  0.41800000000E+01 0.  1.
         -5    1    4    4    0  501 -0.34923331115E+02 -0.78024160475E+00  0.10194321430E+03  0.10784312299E+03  0.41800000000E+01 0.  1.
</event>
<event>
11    1  0.8551154E-009  0.1805215E+03  0.7561462E-02  0.1069222E+00
         22   -1    0    0    0    0  0.00000000000E+00  0.00000000000E+00  0.95805478242E+03  0.95805478242E+03  0.00000000000E+00 0. -1.
         22   -1    0    0    0    0 -0.00000000000E+00 -0.00000000000E+00 -0.59612600356E+03  0.59612600356E+03  0.00000000000E+00 0.  1.
        -24    2    1    2    0    0 -0.96698478032E+02 -0.13421679333E+02 -0.54354466141E+03  0.55846616681E+03  0.83143991893E+02 0.  0.
         25    2    1    2    0    0  0.35938122922E+02 -0.11229144950E+03  0.16621844103E+03  0.23911663301E+03  0.12508907119E+03 0.  0.
         24    2    1    2    0    0  0.60760355109E+02  0.12571312884E+03  0.73925499924E+03  0.75659798616E+03  0.80292884174E+02 0.  0.
        -11    1    5    5    0    0  0.19858004436E+02 -0.75727118273E+00  0.38268138800E+02  0.43120346091E+02  0.00000000000E+00 0.  1.
         12    1    5    5    0    0  0.40902350673E+02  0.12647040002E+03  0.70098686044E+03  0.71347764007E+03  0.00000000000E+00 0. -1.
         13    1    3    3    0    0 -0.67733898119E+02  0.31333741074E+02 -0.33543040333E+03  0.34363241954E+03  0.00000000000E+00 0. -1.
        -14    1    3    3    0    0 -0.28964579913E+02 -0.44755420407E+02 -0.20811425809E+03  0.21483374727E+03  0.00000000000E+00 0.  1.
          5    1    4    4  501    0 -0.71266493899E+01  0.21735555593E+02  0.28589738592E+01  0.23427967048E+02  0.41800000000E+01 0.  1.
         -5    1    4    4    0  501  0.43064772312E+02 -0.13402700510E+03  0.16335946717E+03  0.21568866596E+03  0.41800000000E+01 0.  1.
</event>
<event>
11    1  0.8551154E-009  0.1861563E+03  0.7561462E-02  0.1064769E+00
         22   -1    0    0    0    0  0.00000000000E+00  0.00000000000E+00  0.10060062317E+04  0.10060062317E+04  0.00000000000E+00 0.  1.
         22   -1    0    0    0    0 -0.00000000000E+00 -0.00000000000E+00 -0.22344196930E+04  0.22344196930E+04  0.00000000000E+00 0.  1.
         24    2    1    2    0    0 -0.13079728529E+03 -0.44751098230E+02 -0.21352193294E+04  0.21412051986E+04  0.80545187132E+02 0.  0.
         25    2    1    2    0    0  0.81388613281E+02  0.14013962797E+03  0.24108848569E+02  0.20613542233E+03  0.12508938428E+03 0.  0.
        -24    2    1    2    0    0  0.49408672009E+02 -0.95388529741E+02  0.88269701964E+03  0.89308530375E+03  0.83109222271E+02 0.  0.
        -11    1    3    3    0    0 -0.39256539826E+02 -0.25932892016E+02 -0.12857582068E+04  0.12866187303E+04  0.00000000000E+00 0.  1.
         12    1    3    3    0    0 -0.91540745465E+02 -0.18818206214E+02 -0.84946112267E+03  0.85458646835E+03  0.00000000000E+00 0. -1.
         11    1    5    5    0    0 -0.18843803516E+02 -0.48879543093E+02  0.29538338888E+03  0.29999274173E+03  0.00000000000E+00 0. -1.
        -12    1    5    5    0    0  0.68252475525E+02 -0.46508986647E+02  0.58731363075E+03  0.59309256202E+03  0.00000000000E+00 0.  1.
          5    1    4    4  501    0  0.36282134643E+01  0.11141772257E+03 -0.18108049634E+02  0.11301524984E+03  0.41800000000E+01 0. -1.
         -5    1    4    4    0  501  0.77760399817E+02  0.28721905400E+02  0.42216898203E+02  0.93120172484E+02  0.41800000000E+01 0. -1.
</event>
<event>
11    1  0.8551154E-009  0.1415409E+03  0.7561462E-02  0.1105850E+00
         22   -1    0    0    0    0  0.00000000000E+00  0.00000000000E+00  0.45552869130E+03  0.45552869130E+03  0.00000000000E+00 0.  1.
         22   -1    0    0    0    0 -0.00000000000E+00 -0.00000000000E+00 -0.26801635619E+03  0.26801635619E+03  0.00000000000E+00 0.  1.
         24    2    1    2    0    0 -0.43813867096E+02  0.19747975391E+02 -0.22036221343E+03  0.23968426022E+03  0.81113513103E+02 0.  0.
         25    2    1    2    0    0 -0.31178729567E+02  0.10941383328E+02  0.13292267265E+03  0.18549287282E+03  0.12508933574E+03 0.  0.
        -24    2    1    2    0    0  0.74992596662E+02 -0.30689358718E+02  0.27495187589E+03  0.29836791446E+03  0.82819997770E+02 0.  0.
        -11    1    3    3    0    0 -0.59229580509E+02  0.36333529128E+02 -0.14157589078E+03  0.15770859646E+03  0.00000000000E+00 0.  1.
         12    1    3    3    0    0  0.15415713414E+02 -0.16585553737E+02 -0.78786322652E+02  0.81975663766E+02  0.00000000000E+00 0. -1.
         11    1    5    5    0    0  0.38738554671E+02 -0.23256403621E+02  0.39468338881E+02  0.59994047216E+02  0.00000000000E+00 0. -1.
        -12    1    5    5    0    0  0.36254041992E+02 -0.74329550979E+01  0.23548353701E+03  0.23837386724E+03  0.00000000000E+00 0.  1.
          5    1    4    4  501    0 -0.76309732679E+02  0.59026334694E+01  0.52066183002E+02  0.92662701211E+02  0.41800000000E+01 0. -1.
         -5    1    4    4    0  501  0.45131003112E+02  0.50387498582E+01  0.80856489649E+02  0.92830171606E+02  0.41800000000E+01 0. -1.
</event>
<event>
11    1  0.8551154E-009  0.1879227E+03  0.7561462E-02  0.1063409E+00
         22   -1    0    0    0    0  0.00000000000E+00  0.00000000000E+00  0.72545288577E+03  0.72545288577E+03  0.00000000000E+00 0.  1.
         22   -1    0    0    0    0 -0.00000000000E+00 -0.00000000000E+00 -0.38873144033E+04  0.38873144033E+04  0.00000000000E+00 0.  1.
         24    2    1    2    0    0 -0.94126862454E+02  0.90948508170E+02 -0.25626764060E+04  0.25672192890E+04  0.78568560971E+02 0.  0.
         25    2    1    2    0    0  0.15531554964E+03 -0.93900638574E+02 -0.13092988097E+04  0.13277258315E+04  0.12510899544E+03 0.  0.
        -24    2    1    2    0    0 -0.61188687185E+02  0.29521304041E+01  0.71011369815E+03  0.71782216851E+03  0.85172946386E+02 0.  0.
        -13    1    3    3    0    0 -0.27377608683E+02  0.15211640928E+02 -0.13451945293E+04  0.13455590842E+04  0.00000000000E+00 0.  1.
         14    1    3    3    0    0 -0.66749253771E+02  0.75736867242E+02 -0.12174818767E+04  0.12216602048E+04  0.00000000000E+00 0. -1.
         11    1    5    5    0    0 -0.39717981968E+02  0.34432520443E+02  0.21850340911E+03  0.22473730520E+03  0.00000000000E+00 0. -1.
        -12    1    5    5    0    0 -0.21470705217E+02 -0.31480390039E+02  0.49161028904E+03  0.49308486331E+03  0.00000000000E+00 0.  1.
          5    1    4    4  501    0  0.15018806011E+03 -0.10314837463E+03 -0.13008654768E+04  0.13135693745E+04  0.41800000000E+01 0.  1.
         -5    1    4    4    0  501  0.51274895320E+01  0.92477360551E+01 -0.84333329235E+01  0.14156457016E+02  0.41800000000E+01 0.  1.
</event>
<event>
11    1  0.8551154E-009  0.1593746E+03  0.7561462E-02  0.1087667E+00
         22   -1    0    0    0    0  0.00000000000E+00  0.00000000000E+00  0.48715866605E+03  0.48715866605E+03  0.00000000000E+00 0. -1.
         22   -1    0    0    0    0 -0.00000000000E+00 -0.00000000000E+00 -0.21108540437E+04  0.21108540437E+04  0.00000000000E+00 0.  1.
         24    2    1    2    0    0 -0.61511011624E+02 -0.48436968759E+02 -0.19580279286E+04  0.19612647855E+04  0.80971879793E+02 0.  0.
         25    2    1    2    0    0  0.15270077293E+03  0.71896953575E+02 -0.63579089536E+02  0.21948828023E+03  0.12508439770E+03 0.  0.
        -24    2    1    2    0    0 -0.91189761304E+02 -0.23459984815E+02  0.39791164042E+03  0.41725964405E+03  0.83102307505E+02 0.  0.
        -11    1    3    3    0    0 -0.44670150553E+01 -0.12714289938E+02 -0.12436892362E+04  0.12437622456E+04  0.00000000000E+00 0.  1.
         12    1    3    3    0    0 -0.57043996569E+02 -0.35722678821E+02 -0.71433869239E+03  0.71750253991E+03  0.00000000000E+00 0. -1.
         11    1    5    5    0    0 -0.61144850997E+02  0.20209664107E+02  0.28959063513E+03  0.29666455683E+03  0.00000000000E+00 0. -1.
        -12    1    5    5    0    0 -0.30044910306E+02 -0.43669648922E+02  0.10832100529E+03  0.12059508721E+03  0.00000000000E+00 0.  1.
          5    1    4    4  501    0  0.10715049842E+03  0.10408800108E+03 -0.24946890043E+02  0.15151026698E+03  0.41800000000E+01 0. -1.
         -5    1    4    4    0  501  0.45550274512E+02 -0.32191047503E+02 -0.38632199493E+02  0.67978013248E+02  0.41800000000E+01 0. -1.
</event>
<event>
11    1  0.8551154E-009  0.1307153E+03  0.7561462E-02  0.1118393E+00
         22   -1    0    0    0    0  0.00000000000E+00  0.00000000000E+00  0.42990160171E+03  0.42990160171E+03  0.00000000000E+00 0.  1.
         22   -1    0    0    0    0 -0.00000000000E+00 -0.00000000000E+00 -0.73347546343E+03  0.73347546343E+03  0.00000000000E+00 0. -1.
         24    2    1    2    0    0 -0.10607987977E+02 -0.43039413637E+01 -0.62085412402E+03  0.62544784943E+03  0.74793821442E+02 0.  0.
         25    2    1    2    0    0  0.45083696272E+02 -0.10623702206E+02 -0.62800508272E+02  0.14743010268E+03  0.12508528538E+03 0.  0.
        -24    2    1    2    0    0 -0.34475708295E+02  0.14927643570E+02  0.38008077057E+03  0.39049911303E+03  0.81343445431E+02 0.  0.
        -11    1    3    3    0    0  0.97706974490E+01  0.26570265764E+01 -0.10057220342E+02  0.14271440007E+02  0.00000000000E+00 0.  1.
         12    1    3    3    0    0 -0.20378685426E+02 -0.69609679402E+01 -0.61079690368E+03  0.61117640943E+03  0.00000000000E+00 0. -1.
         11    1    5    5    0    0  0.12009261153E+02  0.18994814479E+02  0.30864478371E+02  0.38179069601E+02  0.00000000000E+00 0. -1.
        -12    1    5    5    0    0 -0.46484969448E+02 -0.40671709094E+01  0.34921629220E+03  0.35232004343E+03  0.00000000000E+00 0.  1.
          5    1    4    4  501    0  0.50787579335E+02 -0.27107278245E+02  0.21234293518E+02  0.61502441982E+02  0.41800000000E+01 0. -1.
         -5    1    4    4    0  501 -0.57038830627E+01  0.16483576039E+02 -0.84034801790E+02  0.85927660697E+02  0.41800000000E+01 0. -1.
</event>
<event>
11    1  0.8551154E-009  0.1409618E+03  0.7561462E-02  0.1106489E+00
         22   -1    0    0    0    0  0.00000000000E+00  0.00000000000E+00  0.49287362319E+03  0.49287362319E+03  0.00000000000E+00 0.  1.
         22   -1    0    0    0    0 -0.00000000000E+00 -0.00000000000E+00 -0.18501181679E+03  0.18501181679E+03  0.00000000000E+00 0.  1.
         24    2    1    2    0    0 -0.72016178473E+01  0.50417940864E+02 -0.10895121593E+03  0.14664809277E+03  0.83913429196E+02 0.  0.
         25    2    1    2    0    0 -0.54173804612E+02 -0.19551577035E+02  0.46611200832E+02  0.14538975748E+03  0.12509401371E+03 0.  0.
        -24    2    1    2    0    0  0.61375422459E+02 -0.30866363828E+02  0.37020182150E+03  0.38584758973E+03  0.84316658857E+02 0.  0.
        -13    1    3    3    0    0  0.27221538682E+02  0.41896767455E+02 -0.97200243983E+02  0.10928970090E+03  0.00000000000E+00 0.  1.
         14    1    3    3    0    0 -0.34423156530E+02  0.85211734087E+01 -0.11750971951E+02  0.37358391875E+02  0.00000000000E+00 0. -1.
         11    1    5    5    0    0  0.31507716627E+02 -0.31377226033E+02  0.62527291021E+02  0.76726323013E+02  0.00000000000E+00 0. -1.
        -12    1    5    5    0    0  0.29867705832E+02  0.51086220460E+00  0.30767453048E+03  0.30912126672E+03  0.00000000000E+00 0.  1.
          5    1    4    4  501    0 -0.15941615648E+01  0.20206230771E+02  0.71781322832E+02  0.74705179342E+02  0.41800000000E+01 0. -1.
         -5    1    4    4    0  501 -0.52579643047E+02 -0.39757807807E+02 -0.25170122000E+02  0.70684578134E+02  0.41800000000E+01 0. -1.
</event>
<event>
11    1  0.8551154E-009  0.1855124E+03  0.7561462E-02  0.1065269E+00
         22   -1    0    0    0    0  0.00000000000E+00  0.00000000000E+00  0.49705314414E+03  0.49705314414E+03  0.00000000000E+00 0. -1.
         22   -1    0    0    0    0 -0.00000000000E+00 -0.00000000000E+00 -0.20888154960E+03  0.20888154960E+03  0.00000000000E+00 0.  1.
         24    2    1    2    0    0 -0.12237382174E+03  0.28423273615E+02 -0.73629899469E+02  0.16653419086E+03  0.80802474571E+02 0.  0.
         25    2    1    2    0    0  0.16755262782E+03 -0.31756899888E+02  0.54912099173E+02  0.21850619771E+03  0.12508891247E+03 0.  0.
        -24    2    1    2    0    0 -0.45178806077E+02  0.33336262732E+01  0.30688939483E+03  0.32089430517E+03  0.82096387574E+02 0.  0.
        -11    1    3    3    0    0 -0.56965253638E+02 -0.11280397125E+02  0.31248831250E+01  0.58155415705E+02  0.00000000000E+00 0.  1.
         12    1    3    3    0    0 -0.65408568107E+02  0.39703670740E+02 -0.76754782594E+02  0.10837877515E+03  0.00000000000E+00 0. -1.
         11    1    5    5    0    0 -0.58757765395E+02  0.38993521168E+01  0.29987118438E+03  0.30559844103E+03  0.00000000000E+00 0. -1.
        -12    1    5    5    0    0  0.13578959318E+02 -0.56572584357E+00  0.70182104477E+01  0.15295864140E+02  0.00000000000E+00 0.  1.
          5    1    4    4  501    0 -0.12932308139E+02 -0.11793154492E+02  0.30261495360E+02  0.35207294529E+02  0.41800000000E+01 0.  1.
         -5    1    4    4    0  501  0.18048493596E+03 -0.19963745396E+02  0.24650603813E+02  0.18329890318E+03  0.41800000000E+01 0.  1.
</event>
<event>
11    1  0.8551154E-009  0.1509734E+03  0.7561462E-02  0.1095888E+00
         22   -1    0    0    0    0  0.00000000000E+00  0.00000000000E+00  0.96208196202E+02  0.96208196202E+02  0.00000000000E+00 0. -1.
         22   -1    0    0    0    0 -0.00000000000E+00 -0.00000000000E+00 -0.13383942635E+04  0.13383942635E+04  0.00000000000E+00 0. -1.
         24    2    1    2    0    0 -0.59337558843E+02 -0.56259579626E+02 -0.11025663051E+04  0.11084884187E+04  0.80050178257E+02 0.  0.
         25    2    1    2    0    0  0.11866990692E+03  0.60580992741E+02 -0.13123950234E+03  0.22499680745E+03  0.12508858021E+03 0.  0.
        -24    2    1    2    0    0 -0.59332348081E+02 -0.43214131146E+01 -0.83802598478E+01  0.10111723355E+03  0.81335502861E+02 0.  0.
        -13    1    3    3    0    0 -0.15478506135E+02  0.50191479346E+01 -0.39035373280E+02  0.42291090850E+02  0.00000000000E+00 0.  1.
         14    1    3    3    0    0 -0.43859052708E+02 -0.61278727561E+02 -0.10635309318E+04  0.10661973278E+04  0.00000000000E+00 0. -1.
         13    1    5    5    0    0 -0.27637536456E+02 -0.29292559664E+02  0.26142834498E+02  0.48013907034E+02  0.00000000000E+00 0. -1.
        -14    1    5    5    0    0 -0.31694811625E+02  0.24971146550E+02 -0.34523094346E+02  0.53103326517E+02  0.00000000000E+00 0.  1.
          5    1    4    4  501    0 -0.19515303983E+02  0.32786856942E+02 -0.47207776287E+02  0.60843007977E+02  0.41800000000E+01 0. -1.
         -5    1    4    4    0  501  0.13818521091E+03  0.27794135799E+02 -0.84031726052E+02  0.16415379947E+03  0.41800000000E+01 0. -1.
</event>
<event>
11    1  0.8551154E-009  0.1421380E+03  0.7561462E-02  0.1105194E+00
         22   -1    0    0    0    0  0.00000000000E+00  0.00000000000E+00  0.11072670070E+04  0.11072670070E+04  0.00000000000E+00 0. -1.
         22   -1    0    0    0    0 -0.00000000000E+00 -0.00000000000E+00 -0.75917238988E+02  0.75917238988E+02  0.00000000000E+00 0.  1.
         24    2    1    2    0    0 -0.27528877245E+02 -0.29365107763E+02 -0.22830016559E+02  0.92535152479E+02  0.80133614369E+02 0.  0.
         25    2    1    2    0    0 -0.44731986758E+02  0.10628710046E+02  0.29601152802E+03  0.32463116876E+03  0.12509456780E+03 0.  0.
        -24    2    1    2    0    0  0.72260864004E+02  0.18736397717E+02  0.75816825655E+03  0.76601792475E+03  0.79947925128E+02 0.  0.
        -13    1    3    3    0    0  0.24459719511E+02 -0.24010180909E+02  0.26771895601E+01  0.34379267150E+02  0.00000000000E+00 0.  1.
         14    1    3    3    0    0 -0.51988596757E+02 -0.53549268540E+01 -0.25507206119E+02  0.58155885329E+02  0.00000000000E+00 0. -1.
         11    1    5    5    0    0  0.22446399115E+02 -0.90965971761E+01  0.53897285402E+03  0.53951675256E+03  0.00000000000E+00 0. -1.
        -12    1    5    5    0    0  0.49814464889E+02  0.27832994893E+02  0.21919540253E+03  0.22650117220E+03  0.00000000000E+00 0.  1.
          5    1    4    4  501    0  0.37852397409E+01  0.38387345577E+02  0.21304283902E+02  0.44263543158E+02  0.41800000000E+01 0.  1.
         -5    1    4    4    0  501 -0.48517226499E+02 -0.27758635531E+02  0.27470724412E+03  0.28036762560E+03  0.41800000000E+01 0.  1.
</event>
<event>
11    1  0.8551154E-009  0.2568685E+03  0.7561462E-02  0.1020303E+00
         22   -1    0    0    0    0  0.00000000000E+00  0.00000000000E+00  0.11059477069E+04  0.11059477069E+04  0.00000000000E+00 0. -1.
         22   -1    0    0    0    0 -0.00000000000E+00 -0.00000000000E+00 -0.65777298054E+03  0.65777298054E+03  0.00000000000E+00 0. -1.
        -24    2    1    2    0    0 -0.42772927971E+01  0.85208919596E+00 -0.53598100748E+03  0.54233535804E+03  0.82661834690E+02 0.  0.
         25    2    1    2    0    0  0.18804610123E+03 -0.12866167174E+03  0.59593129514E+02  0.26667187995E+03  0.12508952196E+03 0.  0.
         24    2    1    2    0    0 -0.18376880843E+03  0.12780958255E+03  0.92456260434E+03  0.95471344946E+03  0.80966023072E+02 0.  0.
        -11    1    5    5    0    0  0.36259861032E+00  0.19849782117E+02  0.38657514143E+02  0.43457435814E+02  0.00000000000E+00 0.  1.
         12    1    5    5    0    0 -0.18413140705E+03  0.10795980043E+03  0.88590509019E+03  0.91125601364E+03  0.00000000000E+00 0. -1.
         13    1    3    3    0    0 -0.35454274594E+02  0.14210199440E+02 -0.41300757950E+03  0.41477005205E+03  0.00000000000E+00 0. -1.
        -14    1    3    3    0    0  0.31176981797E+02 -0.13358110244E+02 -0.12297342798E+03  0.12756530599E+03  0.00000000000E+00 0.  1.
          5    1    4    4  501    0  0.13485036514E+03 -0.25306159804E+02  0.29583030073E+01  0.13729984216E+03  0.41800000000E+01 0.  1.
         -5    1    4    4    0  501  0.53195736096E+02 -0.10335551194E+03  0.56634826507E+02  0.12937203778E+03  0.41800000000E+01 0.  1.
</event>
<event>
11    1  0.8551154E-009  0.1939679E+03  0.7561462E-02  0.1058873E+00
         22   -1    0    0    0    0  0.00000000000E+00  0.00000000000E+00  0.15452501011E+04  0.15452501011E+04  0.00000000000E+00 0.  1.
         22   -1    0    0    0    0 -0.00000000000E+00 -0.00000000000E+00 -0.28029157827E+03  0.28029157827E+03  0.00000000000E+00 0.  1.
        -24    2    1    2    0    0 -0.52543265925E+01 -0.59934695326E+02 -0.24371978512E+03  0.26399126080E+03  0.81684003754E+02 0.  0.
         25    2    1    2    0    0  0.81383256524E+02 -0.82408662389E+02  0.35545131927E+03  0.39421753540E+03  0.12508957896E+03 0.  0.
         24    2    1    2    0    0 -0.76128929931E+02  0.14234335771E+03  0.11532269887E+04  0.11673328832E+04  0.81708795367E+02 0.  0.
        -11    1    5    5    0    0 -0.81407370586E+02  0.13038231288E+03  0.84748681652E+03  0.86131330634E+03  0.00000000000E+00 0.  1.
         12    1    5    5    0    0  0.52784406552E+01  0.11961044834E+02  0.30574017220E+03  0.30601957687E+03  0.00000000000E+00 0. -1.
         11    1    3    3    0    0  0.29696088320E+02 -0.23421780282E+02 -0.44219019131E+02  0.58187276153E+02  0.00000000000E+00 0. -1.
        -12    1    3    3    0    0 -0.34950414913E+02 -0.36512915044E+02 -0.19950076599E+03  0.20580398465E+03  0.00000000000E+00 0.  1.
          5    1    4    4  501    0  0.16334178307E+02  0.20790017218E+02  0.17070094445E+03  0.17278690642E+03  0.41800000000E+01 0. -1.
         -5    1    4    4    0  501  0.65049078217E+02 -0.10319867961E+03  0.18475037482E+03  0.22143062897E+03  0.41800000000E+01 0. -1.
</event>
<event>
11    1  0.8551154E-009  0.1614658E+03  0.7561462E-02  0.1085707E+00
         22   -1    0    0    0    0  0.00000000000E+00  0.00000000000E+00  0.12442850428E+03  0.12442850428E+03  0.00000000000E+00 0. -1.
         22   -1    0    0    0    0 -0.00000000000E+00 -0.00000000000E+00 -0.38165275471E+03  0.38165275471E+03  0.00000000000E+00 0.  1.
        -24    2    1    2    0    0 -0.11064438708E+03  0.26160440080E+02 -0.19271969192E+03  0.23796379215E+03  0.80989738255E+02 0.  0.
         25    2    1    2    0    0  0.65066714322E+02 -0.55713615947E+02 -0.79974149306E+02  0.17141076785E+03  0.12509237573E+03 0.  0.
         24    2    1    2    0    0  0.45577672758E+02  0.29553175866E+02  0.15469590805E+02  0.96706698988E+02  0.78499445423E+02 0.  0.
        -11    1    5    5    0    0 -0.22213738186E+02  0.79153835641E+01 -0.12253946749E+01  0.23613662428E+02  0.00000000000E+00 0.  1.
         12    1    5    5    0    0  0.67791410944E+02  0.21637792302E+02  0.16694985480E+02  0.73093036561E+02  0.00000000000E+00 0. -1.
         11    1    3    3    0    0  0.61371812504E+01  0.20185610076E+02 -0.43838963590E+02  0.48651604049E+02  0.00000000000E+00 0. -1.
        -12    1    3    3    0    0 -0.11678156833E+03  0.59748300036E+01 -0.14888072833E+03  0.18931218810E+03  0.00000000000E+00 0.  1.
          5    1    4    4  501    0  0.43521234243E+02 -0.74202815552E+02 -0.10325407478E+03  0.13445829102E+03  0.41800000000E+01 0.  1.
         -5    1    4    4    0  501  0.21545480079E+02  0.18489199606E+02  0.23279925475E+02  0.36952476832E+02  0.41800000000E+01 0.  1.
</event>
<event>
11    1  0.8551154E-009  0.1822456E+03  0.7561462E-02  0.1067841E+00
         22   -1    0    0    0    0  0.00000000000E+00  0.00000000000E+00  0.13866056438E+04  0.13866056438E+04  0.00000000000E+00 0.  1.
         22   -1    0    0    0    0 -0.00000000000E+00 -0.00000000000E+00 -0.31802536174E+03  0.31802536174E+03  0.00000000000E+00 0. -1.
         24    2    1    2    0    0 -0.42299690822E+02 -0.12427813027E+03 -0.26921380802E+03  0.31104109777E+03  0.83881896539E+02 0.  0.
         25    2    1    2    0    0  0.49245364121E+02  0.14711014773E+03  0.34960185466E+03  0.40241217504E+03  0.12509036888E+03 0.  0.
        -24    2    1    2    0    0 -0.69456732994E+01 -0.22832017460E+02  0.98819223543E+03  0.99117773275E+03  0.73074347901E+02 0.  0.
        -11    1    3    3    0    0 -0.21961252034E+02 -0.20224980526E+02 -0.10843560568E+02  0.31763646422E+02  0.00000000000E+00 0.  1.
         12    1    3    3    0    0 -0.20338438787E+02 -0.10405314974E+03 -0.25837024745E+03  0.27927745135E+03  0.00000000000E+00 0. -1.
         13    1    5    5    0    0 -0.28318019774E+02  0.17465206360E+01  0.17108304326E+03  0.17341963058E+03  0.00000000000E+00 0. -1.
        -14    1    5    5    0    0  0.21372346475E+02 -0.24578538096E+02  0.81710919217E+03  0.81775810217E+03  0.00000000000E+00 0.  1.
          5    1    4    4  501    0  0.79350382076E+02  0.14838605116E+03  0.30612926492E+03  0.34935297702E+03  0.41800000000E+01 0.  1.
         -5    1    4    4    0  501 -0.30105017955E+02 -0.12759034284E+01  0.43472589740E+02  0.53059198018E+02  0.41800000000E+01 0.  1.
</event>
<event>
11    1  0.8551154E-009  0.1514399E+03  0.7561462E-02  0.1095417E+00
         22   -1    0    0    0    0  0.00000000000E+00  0.00000000000E+00  0.35977274469E+03  0.35977274469E+03  0.00000000000E+00 0. -1.
         22   -1    0    0    0    0 -0.00000000000E+00 -0.00000000000E+00 -0.28789445362E+03  0.28789445362E+03  0.00000000000E+00 0. -1.
         24    2    1    2    0    0 -0.32131687020E+02 -0.99135322809E+01 -0.18715442449E+03  0.20381834991E+03  0.73378591708E+02 0.  0.
         25    2    1    2    0    0  0.11030860625E+03  0.29965311138E+02  0.10564459879E+02  0.16977974520E+03  0.12509054953E+03 0.  0.
        -24    2    1    2    0    0 -0.78176919226E+02 -0.20051778857E+02  0.24846825568E+03  0.27406910320E+03  0.82847418279E+02 0.  0.
        -13    1    3    3    0    0  0.23917619501E+02 -0.50792678479E+01 -0.58027346031E+02  0.62968439490E+02  0.00000000000E+00 0.  1.
         14    1    3    3    0    0 -0.56049306520E+02 -0.48342644330E+01 -0.12912707846E+03  0.14084991042E+03  0.00000000000E+00 0. -1.
         13    1    5    5    0    0 -0.79520903932E+02 -0.23400091943E+02  0.25415683982E+03  0.26733282196E+03  0.00000000000E+00 0. -1.
        -14    1    5    5    0    0  0.13439847058E+01  0.33483130861E+01 -0.56885841480E+01  0.67362812456E+01  0.00000000000E+00 0.  1.
          5    1    4    4  501    0  0.54968882368E+02  0.42210025478E+02 -0.50882630218E+02  0.86080071664E+02  0.41800000000E+01 0.  1.
         -5    1    4    4    0  501  0.55339723878E+02 -0.12244714341E+02  0.61447090097E+02  0.83699673533E+02  0.41800000000E+01 0.  1.
</event>
<event>
11    1  0.8551154E-009  0.1399439E+03  0.7561462E-02  0.1107621E+00
         22   -1    0    0    0    0  0.00000000000E+00  0.00000000000E+00  0.11064209983E+04  0.11064209983E+04  0.00000000000E+00 0. -1.
         22   -1    0    0    0    0 -0.00000000000E+00 -0.00000000000E+00 -0.33758631603E+03  0.33758631603E+03  0.00000000000E+00 0. -1.
        -24    2    1    2    0    0 -0.55458402459E+02 -0.31419735162E+02 -0.30786321646E+03  0.32455165601E+03  0.80567879478E+02 0.  0.
         25    2    1    2    0    0  0.44904037105E+02 -0.83323135506E+01  0.21203842568E+03  0.25038627344E+03  0.12508873637E+03 0.  0.
         24    2    1    2    0    0  0.10554365354E+02  0.39752048712E+02  0.86465947306E+03  0.86906938489E+03  0.77161981526E+02 0.  0.
        -13    1    5    5    0    0  0.33641927929E+02  0.13049194891E+02  0.68643281045E+03  0.68738058168E+03  0.00000000000E+00 0.  1.
         14    1    5    5    0    0 -0.23087562575E+02  0.26702853821E+02  0.17822666261E+03  0.18168880321E+03  0.00000000000E+00 0. -1.
         11    1    3    3    0    0 -0.51989948093E+02  0.15571733775E+02 -0.13843238415E+03  0.14869081537E+03  0.00000000000E+00 0. -1.
        -12    1    3    3    0    0 -0.34684543657E+01 -0.46991468937E+02 -0.16943083232E+03  0.17586084063E+03  0.00000000000E+00 0.  1.
          5    1    4    4  501    0  0.11656999663E+02 -0.27865286624E+00 -0.15732055318E+02  0.20023317734E+02  0.41800000000E+01 0.  1.
         -5    1    4    4    0  501  0.33247037442E+02 -0.80536606843E+01  0.22777048099E+03  0.23036295571E+03  0.41800000000E+01 0.  1.
</event>
<event>
11    1  0.8551154E-009  0.2001063E+03  0.7561462E-02  0.1054449E+00
         22   -1    0    0    0    0  0.00000000000E+00  0.00000000000E+00  0.45049781211E+03  0.45049781211E+03  0.00000000000E+00 0. -1.
         22   -1    0    0    0    0 -0.00000000000E+00 -0.00000000000E+00 -0.23120755914E+03  0.23120755914E+03  0.00000000000E+00 0. -1.
         24    2    1    2    0    0  0.77545547169E+02  0.60295974393E+02 -0.26584841311E+02  0.12939649705E+03  0.79923608829E+02 0.  0.
         25    2    1    2    0    0  0.33053460702E+01 -0.19094421121E+03 -0.26269081519E+02  0.22980033385E+03  0.12509001435E+03 0.  0.
        -24    2    1    2    0    0 -0.80850893239E+02  0.13064823681E+03  0.27214417580E+03  0.32250854035E+03  0.79645950655E+02 0.  0.
        -13    1    3    3    0    0  0.76856756454E+02  0.11625328276E+02 -0.12546688550E+02  0.78737085695E+02  0.00000000000E+00 0.  1.
         14    1    3    3    0    0  0.68879071468E+00  0.48670646118E+02 -0.14038152761E+02  0.50659411358E+02  0.00000000000E+00 0. -1.
         11    1    5    5    0    0 -0.90744398106E+02  0.13019152807E+03  0.26862161146E+03  0.31199671458E+03  0.00000000000E+00 0. -1.
        -12    1    5    5    0    0  0.98935048667E+01  0.45670874397E+00  0.35225643474E+01  0.10511825769E+02  0.00000000000E+00 0.  1.
          5    1    4    4  501    0  0.58117955013E+02 -0.14515331723E+03 -0.12216003686E+02  0.15688813003E+03  0.41800000000E+01 0.  1.
         -5    1    4    4    0  501 -0.54812608942E+02 -0.45790893977E+02 -0.14053077832E+02  0.72912203827E+02  0.41800000000E+01 0.  1.
</event>
<event>
11    1  0.8551154E-009  0.1711100E+03  0.7561462E-02  0.1077070E+00
         22   -1    0    0    0    0  0.00000000000E+00  0.00000000000E+00  0.33579321338E+03  0.33579321338E+03  0.00000000000E+00 0. -1.
         22   -1    0    0    0    0 -0.00000000000E+00 -0.00000000000E+00 -0.69106919923E+03  0.69106919923E+03  0.00000000000E+00 0. -1.
         24    2    1    2    0    0  0.48702383479E+01 -0.12365316869E+03 -0.59050239462E+03  0.60904507146E+03  0.83240589007E+02 0.  0.
         25    2    1    2    0    0 -0.11958468950E+03  0.71224479767E+02  0.90110106032E+02  0.20770400290E+03  0.12509075559E+03 0.  0.
        -24    2    1    2    0    0  0.11471445115E+03  0.52428688927E+02  0.14511630274E+03  0.21011333825E+03  0.84739016188E+02 0.  0.
        -13    1    3    3    0    0  0.35925337541E+01  0.10233885328E+02 -0.17350566658E+02  0.20461692771E+02  0.00000000000E+00 0.  1.
         14    1    3    3    0    0  0.12777045938E+01 -0.13388705402E+03 -0.57315182797E+03  0.58858337869E+03  0.00000000000E+00 0. -1.
         11    1    5    5    0    0  0.12314138408E+03  0.57845982277E+02  0.14657981959E+03  0.19998900383E+03  0.00000000000E+00 0. -1.
        -12    1    5    5    0    0 -0.84269329343E+01 -0.54172933496E+01 -0.14635168545E+01  0.10124334423E+02  0.00000000000E+00 0.  1.
          5    1    4    4  501    0 -0.45543955699E+02  0.84640960197E+02  0.84415501731E+01  0.96576789204E+02  0.41800000000E+01 0. -1.
         -5    1    4    4    0  501 -0.74040733799E+02 -0.13416480430E+02  0.81668555859E+02  0.11112721370E+03  0.41800000000E+01 0. -1.
</event>
<event>
11    1  0.8551154E-009  0.1344626E+03  0.7561462E-02  0.1113904E+00
         22   -1    0    0    0    0  0.00000000000E+00  0.00000000000E+00  0.94958368989E+03  0.94958368989E+03  0.00000000000E+00 0.  1.
         22   -1    0    0    0    0 -0.00000000000E+00 -0.00000000000E+00 -0.99631886625E+02  0.99631886625E+02  0.00000000000E+00 0. -1.
         24    2    1    2    0    0  0.25810842087E+02  0.40533641273E+02 -0.40734395703E+02  0.10225276266E+03  0.80542912999E+02 0.  0.
         25    2    1    2    0    0 -0.23419391540E+02 -0.52401382460E+02  0.15740734378E+03  0.20909063633E+03  0.12508976593E+03 0.  0.
        -24    2    1    2    0    0 -0.23914505472E+01  0.11867741187E+02  0.73327885518E+03  0.73787217752E+03  0.81307494044E+02 0.  0.
        -11    1    3    3    0    0  0.47527664892E+02  0.45156078901E+02 -0.13187947009E+02  0.66872059473E+02  0.00000000000E+00 0.  1.
         12    1    3    3    0    0 -0.21716822805E+02 -0.46224376285E+01 -0.27546448694E+02  0.35380703187E+02  0.00000000000E+00 0. -1.
         13    1    5    5    0    0 -0.23995547425E+02 -0.21924347422E+02  0.16446566575E+03  0.16764670744E+03  0.00000000000E+00 0. -1.
        -14    1    5    5    0    0  0.21604096878E+02  0.33792088609E+02  0.56881318943E+03  0.57022547008E+03  0.00000000000E+00 0.  1.
          5    1    4    4  501    0  0.76779700565E+01 -0.69208281952E+02  0.28493757007E+02  0.75353195708E+02  0.41800000000E+01 0.  1.
         -5    1    4    4    0  501 -0.31097361596E+02  0.16806899492E+02  0.12891358678E+03  0.13373744062E+03  0.41800000000E+01 0.  1.
</event>
<event>
11    1  0.8551154E-009  0.2138076E+03  0.7561462E-02  0.1045167E+00
         22   -1    0    0    0    0  0.00000000000E+00  0.00000000000E+00  0.81129693901E+03  0.81129693901E+03  0.00000000000E+00 0. -1.
         22   -1    0    0    0    0 -0.00000000000E+00 -0.00000000000E+00 -0.25969693742E+03  0.25969693742E+03  0.00000000000E+00 0.  1.
         24    2    1    2    0    0 -0.14742828292E+03 -0.51596276926E+02 -0.85318853702E+02  0.19302173835E+03  0.74704821010E+02 0.  0.
         25    2    1    2    0    0  0.20818786284E+03  0.59381673497E+02  0.17703816543E+02  0.25065808236E+03  0.12509068610E+03 0.  0.
        -24    2    1    2    0    0 -0.60759579927E+02 -0.77853965712E+01  0.61921503875E+03  0.62731405572E+03  0.79644970581E+02 0.  0.
        -11    1    3    3    0    0 -0.15333707889E+03 -0.37822462449E+02 -0.75082094494E+02  0.17487172253E+03  0.00000000000E+00 0.  1.
         12    1    3    3    0    0  0.59087959724E+01 -0.13773814476E+02 -0.10236759207E+02  0.18150015816E+02  0.00000000000E+00 0. -1.
         13    1    5    5    0    0 -0.38513187278E+02  0.23001849428E+02  0.15000242537E+03  0.15656652991E+03  0.00000000000E+00 0. -1.
        -14    1    5    5    0    0 -0.22246392649E+02 -0.30787245999E+02  0.46921261338E+03  0.47074752581E+03  0.00000000000E+00 0.  1.
          5    1    4    4  501    0  0.52826411013E+02 -0.33485081062E+02 -0.19855049240E+02  0.65753902808E+02  0.41800000000E+01 0.  1.
         -5    1    4    4    0  501  0.15536145183E+03  0.92866754558E+02  0.37558865782E+02  0.18490417955E+03  0.41800000000E+01 0.  1.
</event>
<event>
11    1  0.8551154E-009  0.1999141E+03  0.7561462E-02  0.1054584E+00
         22   -1    0    0    0    0  0.00000000000E+00  0.00000000000E+00  0.91308461475E+03  0.91308461475E+03  0.00000000000E+00 0. -1.
         22   -1    0    0    0    0 -0.00000000000E+00 -0.00000000000E+00 -0.31640230927E+03  0.31640230927E+03  0.00000000000E+00 0. -1.
         24    2    1    2    0    0 -0.29626107509E+02 -0.46352538112E+01 -0.22063804893E+03  0.23635182533E+03  0.79258090304E+02 0.  0.
         25    2    1    2    0    0 -0.56347425220E+02  0.13635374724E+03  0.41798146476E+02  0.19789383233E+03  0.12508999604E+03 0.  0.
        -24    2    1    2    0    0  0.85973532729E+02 -0.13171849343E+03  0.77552220793E+03  0.79524126635E+03  0.78947874420E+02 0.  0.
        -13    1    3    3    0    0  0.18187683911E+02  0.14408022634E+02 -0.25219418425E+02  0.34269549574E+02  0.00000000000E+00 0.  1.
         14    1    3    3    0    0 -0.47813791420E+02 -0.19043276445E+02 -0.19541863050E+03  0.20208227576E+03  0.00000000000E+00 0. -1.
         11    1    5    5    0    0  0.95320159934E+02 -0.12883822650E+03  0.65496742985E+03  0.67429040899E+03  0.00000000000E+00 0. -1.
        -12    1    5    5    0    0 -0.93466272049E+01 -0.28802669309E+01  0.12055477809E+03  0.12095085736E+03  0.00000000000E+00 0.  1.
          5    1    4    4  501    0 -0.73454414389E+02  0.14207736380E+03  0.90248958929E+01  0.16025120730E+03  0.41800000000E+01 0. -1.
         -5    1    4    4    0  501  0.17106989169E+02 -0.57236165591E+01  0.32773250583E+02  0.37642625025E+02  0.41800000000E+01 0. -1.
</event>
<event>
11    1  0.8551154E-009  0.3455428E+03  0.7561462E-02  0.9825689E-01
         22   -1    0    0    0    0  0.00000000000E+00  0.00000000000E+00  0.16357968395E+04  0.16357968395E+04  0.00000000000E+00 0. -1.
         22   -1    0    0    0    0 -0.00000000000E+00 -0.00000000000E+00 -0.10832274638E+04  0.10832274638E+04  0.00000000000E+00 0.  1.
        -24    2    1    2    0    0 -0.36323744773E+02  0.40038744043E+02 -0.10090468204E+04  0.10137995413E+04  0.81801642824E+02 0.  0.
         25    2    1    2    0    0 -0.27444158403E+03  0.10675647394E+03  0.58986786822E+03  0.67104907953E+03  0.12509051686E+03 0.  0.
         24    2    1    2    0    0  0.31076532880E+03 -0.14679521799E+03  0.97174832788E+03  0.10341756825E+04  0.84265080918E+02 0.  0.
        -11    1    5    5    0    0  0.60428654088E+02 -0.58185228615E+02  0.30952762682E+03  0.32069377111E+03  0.00000000000E+00 0.  1.
         12    1    5    5    0    0  0.25033667471E+03 -0.88609989371E+02  0.66222070106E+03  0.71348191136E+03  0.00000000000E+00 0. -1.
         13    1    3    3    0    0 -0.72159552977E+01  0.60566711359E+02 -0.54964255931E+03  0.55301658162E+03  0.00000000000E+00 0. -1.
        -14    1    3    3    0    0 -0.29107789475E+02 -0.20527967316E+02 -0.45940426104E+03  0.46078295966E+03  0.00000000000E+00 0.  1.
          5    1    4    4  501    0 -0.93045057932E+02  0.76688322169E+01  0.30549142970E+03  0.31946624205E+03  0.41800000000E+01 0.  1.
         -5    1    4    4    0  501 -0.18139652609E+03  0.99087641726E+02  0.28437643853E+03  0.35158283748E+03  0.41800000000E+01 0.  1.
</event>
<event>
11    1  0.8551154E-009  0.2154863E+03  0.7561462E-02  0.1044082E+00
         22   -1    0    0    0    0  0.00000000000E+00  0.00000000000E+00  0.86737019287E+03  0.86737019287E+03  0.00000000000E+00 0. -1.
         22   -1    0    0    0    0 -0.00000000000E+00 -0.00000000000E+00 -0.10227636387E+04  0.10227636387E+04  0.00000000000E+00 0. -1.
         24    2    1    2    0    0 -0.15160068342E+03  0.57656182944E+02 -0.55208847018E+03  0.58091517046E+03  0.79710436744E+02 0.  0.
         25    2    1    2    0    0  0.30867165010E+03 -0.12624693245E+03 -0.37350018545E+03  0.51610656717E+03  0.12508846717E+03 0.  0.
        -24    2    1    2    0    0 -0.15707096668E+03  0.68590749510E+02  0.77019520985E+03  0.79311209388E+03  0.80312842641E+02 0.  0.
        -13    1    3    3    0    0 -0.11783105156E+02 -0.12642716266E+02 -0.12242635887E+03  0.12364017627E+03  0.00000000000E+00 0.  1.
         14    1    3    3    0    0 -0.13981757826E+03  0.70298899210E+02 -0.42966211131E+03  0.45727499419E+03  0.00000000000E+00 0. -1.
         11    1    5    5    0    0 -0.14005725016E+03  0.39493110055E+02  0.70339233446E+03  0.71828720944E+03  0.00000000000E+00 0. -1.
        -12    1    5    5    0    0 -0.17013716522E+02  0.29097639455E+02  0.66802875388E+02  0.74824884443E+02  0.00000000000E+00 0.  1.
          5    1    4    4  501    0  0.30183721208E+03 -0.96286850473E+02 -0.36619537146E+03  0.48424516791E+03  0.41800000000E+01 0.  1.
         -5    1    4    4    0  501  0.68344380229E+01 -0.29960081980E+02 -0.73048139893E+01  0.31861399260E+02  0.41800000000E+01 0.  1.
</event>
<event>
11    1  0.8551154E-009  0.1485921E+03  0.7561462E-02  0.1098326E+00
         22   -1    0    0    0    0  0.00000000000E+00  0.00000000000E+00  0.88563754105E+03  0.88563754105E+03  0.00000000000E+00 0.  1.
         22   -1    0    0    0    0 -0.00000000000E+00 -0.00000000000E+00 -0.40894059982E+03  0.40894059982E+03  0.00000000000E+00 0.  1.
        -24    2    1    2    0    0 -0.62564734219E+02  0.40707086707E+02 -0.27981232387E+03  0.30029779154E+03  0.79450702576E+02 0.  0.
         25    2    1    2    0    0  0.11935259411E+03 -0.26476261628E+02 -0.49694797480E+02  0.18183455514E+03  0.12509275916E+03 0.  0.
         24    2    1    2    0    0 -0.56787859896E+02 -0.14230825079E+02  0.80620406258E+03  0.81244579418E+03  0.81705572326E+02 0.  0.
        -11    1    5    5    0    0 -0.48202834808E+02  0.22580101012E+02  0.62937572479E+03  0.63162265412E+03  0.00000000000E+00 0.  1.
         12    1    5    5    0    0 -0.85850250883E+01 -0.36810926091E+02  0.17682833779E+03  0.18082314006E+03  0.00000000000E+00 0. -1.
         11    1    3    3    0    0 -0.30097374091E+02  0.37844808627E+02 -0.55412811655E+02  0.73543600419E+02  0.00000000000E+00 0. -1.
        -12    1    3    3    0    0 -0.32467360128E+02  0.28622780798E+01 -0.22439951222E+03  0.22675419112E+03  0.00000000000E+00 0.  1.
          5    1    4    4  501    0  0.11095692589E+03 -0.57962935738E+01 -0.84932362308E+02  0.13991431303E+03  0.41800000000E+01 0.  1.
         -5    1    4    4    0  501  0.83956682232E+01 -0.20679968054E+02  0.35237564829E+02  0.41920242112E+02  0.41800000000E+01 0.  1.
</event>
<event>
11    1  0.8551154E-009  0.1402748E+03  0.7561462E-02  0.1107252E+00
         22   -1    0    0    0    0  0.00000000000E+00  0.00000000000E+00  0.17930831907E+03  0.17930831907E+03  0.00000000000E+00 0.  1.
         22   -1    0    0    0    0 -0.00000000000E+00 -0.00000000000E+00 -0.10370984355E+04  0.10370984355E+04  0.00000000000E+00 0. -1.
        -24    2    1    2    0    0  0.42254598100E+02  0.45625105389E+02 -0.89644418929E+03  0.90236214252E+03  0.82329523556E+02 0.  0.
         25    2    1    2    0    0 -0.20718617646E+02 -0.99151334303E+02 -0.61900304774E+02  0.17244563344E+03  0.12508237505E+03 0.  0.
         24    2    1    2    0    0 -0.21535980454E+02  0.53526228914E+02  0.10055437762E+03  0.14159897862E+03  0.81303334808E+02 0.  0.
        -13    1    5    5    0    0  0.26415089209E+02  0.33254785710E+02  0.68081319940E+02  0.80241534354E+02  0.00000000000E+00 0.  1.
         14    1    5    5    0    0 -0.47951069664E+02  0.20271443204E+02  0.32473057679E+02  0.61357444263E+02  0.00000000000E+00 0. -1.
         13    1    3    3    0    0  0.14599862849E+02  0.65949733165E+02 -0.65856393833E+03  0.66201886994E+03  0.00000000000E+00 0. -1.
        -14    1    3    3    0    0  0.27654735251E+02 -0.20324627776E+02 -0.23788025096E+03  0.24034327258E+03  0.00000000000E+00 0.  1.
          5    1    4    4  501    0 -0.53376244919E+02 -0.11218894804E+03 -0.39037638474E+02  0.13029502370E+03  0.41800000000E+01 0.  1.
         -5    1    4    4    0  501  0.32657627273E+02  0.13037613733E+02 -0.22862666301E+02  0.42150609738E+02  0.41800000000E+01 0.  1.
</event>
<event>
11    1  0.8551154E-009  0.1448999E+03  0.7561462E-02  0.1102207E+00
         22   -1    0    0    0    0  0.00000000000E+00  0.00000000000E+00  0.91370898966E+03  0.91370898966E+03  0.00000000000E+00 0. -1.
         22   -1    0    0    0    0 -0.00000000000E+00 -0.00000000000E+00 -0.24772155159E+04  0.24772155159E+04  0.00000000000E+00 0.  1.
         24    2    1    2    0    0  0.31579001912E+02  0.43216579443E+02 -0.22969440443E+04  0.22989844198E+04  0.80700147196E+02 0.  0.
         25    2    1    2    0    0  0.38819832448E+02 -0.20405366598E+02 -0.15053734452E+03  0.20058752857E+03  0.12510198299E+03 0.  0.
        -24    2    1    2    0    0 -0.70398834359E+02 -0.22811212845E+02  0.88397486259E+03  0.89135255717E+03  0.87301066303E+02 0.  0.
        -13    1    3    3    0    0  0.54848400613E+02  0.46379437354E+02 -0.15367664683E+04  0.15384442068E+04  0.00000000000E+00 0.  1.
         14    1    3    3    0    0 -0.23269398701E+02 -0.31628579108E+01 -0.76017757601E+03  0.76054021304E+03  0.00000000000E+00 0. -1.
         13    1    5    5    0    0 -0.28854463652E+02 -0.54427358944E+02  0.52484912726E+03  0.52845200715E+03  0.00000000000E+00 0. -1.
        -14    1    5    5    0    0 -0.41544370707E+02  0.31616146098E+02  0.35912573533E+03  0.36290055003E+03  0.00000000000E+00 0.  1.
          5    1    4    4  501    0  0.35131321195E+02 -0.69931712344E+02 -0.11583674006E+03  0.13985805972E+03  0.41800000000E+01 0.  1.
         -5    1    4    4    0  501  0.36885112531E+01  0.49526345745E+02 -0.34700604455E+02  0.60729468858E+02  0.41800000000E+01 0.  1.
</event>
<event>
11    1  0.8551154E-009  0.1805847E+03  0.7561462E-02  0.1069171E+00
         22   -1    0    0    0    0  0.00000000000E+00  0.00000000000E+00  0.10727000762E+03  0.10727000762E+03  0.00000000000E+00 0. -1.
         22   -1    0    0    0    0 -0.00000000000E+00 -0.00000000000E+00 -0.24298905179E+04  0.24298905179E+04  0.00000000000E+00 0. -1.
        -24    2    1    2    0    0  0.33548713658E+02 -0.12122043059E+03 -0.13495023059E+04  0.13577030577E+04  0.79882476701E+02 0.  0.
         25    2    1    2    0    0  0.49366998294E+01  0.14384452396E+03 -0.10457926353E+04  0.10630363116E+04  0.12509334816E+03 0.  0.
         24    2    1    2    0    0 -0.38485413488E+02 -0.22624093364E+02  0.72674430907E+02  0.11642115626E+03  0.79242261869E+02 0.  0.
        -13    1    5    5    0    0 -0.41586294850E+02 -0.38646156658E+02  0.18295444043E+02  0.59646195323E+02  0.00000000000E+00 0.  1.
         14    1    5    5    0    0  0.31008813621E+01  0.16022063293E+02  0.54378986864E+02  0.56774960940E+02  0.00000000000E+00 0. -1.
         13    1    3    3    0    0  0.45331039560E+01 -0.11424451311E+03 -0.11861100802E+04  0.11916079389E+04  0.00000000000E+00 0. -1.
        -14    1    3    3    0    0  0.29015609702E+02 -0.69759174777E+01 -0.16339222575E+03  0.16609511873E+03  0.00000000000E+00 0.  1.
          5    1    4    4  501    0  0.59157703189E+02  0.11078956695E+03 -0.63116429840E+03  0.64355248890E+03  0.41800000000E+01 0.  1.
         -5    1    4    4    0  501 -0.54221003360E+02  0.33054957010E+02 -0.41462833689E+03  0.41948382274E+03  0.41800000000E+01 0.  1.
</event>
<event>
11    1  0.8551154E-009  0.2861858E+03  0.7561462E-02  0.1006213E+00
         22   -1    0    0    0    0  0.00000000000E+00  0.00000000000E+00  0.19870283038E+04  0.19870283038E+04  0.00000000000E+00 0. -1.
         22   -1    0    0    0    0 -0.00000000000E+00 -0.00000000000E+00 -0.35503581895E+03  0.35503581895E+03  0.00000000000E+00 0.  1.
         24    2    1    2    0    0 -0.99577449548E+02 -0.51873946900E+02 -0.29840082997E+03  0.32745067337E+03  0.74661324238E+02 0.  0.
         25    2    1    2    0    0 -0.10942177816E+03  0.22495530200E+03  0.74236122750E+03  0.79330081807E+03  0.12509189592E+03 0.  0.
        -24    2    1    2    0    0  0.20899922771E+03 -0.17308135510E+03  0.11880320874E+04  0.12213126313E+04  0.80910260192E+02 0.  0.
        -11    1    3    3    0    0 -0.10165131354E+03 -0.33311891432E+02 -0.28513889525E+03  0.30454369348E+03  0.00000000000E+00 0.  1.
         12    1    3    3    0    0  0.20738639913E+01 -0.18562055468E+02 -0.13261934724E+02  0.22906979890E+02  0.00000000000E+00 0. -1.
         13    1    5    5    0    0  0.12867840535E+03 -0.13711615012E+03  0.92591534311E+03  0.94481648654E+03  0.00000000000E+00 0. -1.
        -14    1    5    5    0    0  0.80320822356E+02 -0.35965204978E+02  0.26211674425E+03  0.27649614480E+03  0.00000000000E+00 0.  1.
          5    1    4    4  501    0 -0.17764534645E+02  0.29115531399E+02  0.28858278217E+03  0.29062138157E+03  0.41800000000E+01 0.  1.
         -5    1    4    4    0  501 -0.91657243512E+02  0.19583977060E+03  0.45377844533E+03  0.50267943651E+03  0.41800000000E+01 0.  1.
</event>
<event>
11    1  0.8551154E-009  0.1450464E+03  0.7561462E-02  0.1102051E+00
         22   -1    0    0    0    0  0.00000000000E+00  0.00000000000E+00  0.12905559598E+04  0.12905559598E+04  0.00000000000E+00 0. -1.
         22   -1    0    0    0    0 -0.00000000000E+00 -0.00000000000E+00 -0.18235574328E+03  0.18235574328E+03  0.00000000000E+00 0.  1.
         24    2    1    2    0    0 -0.12691427406E+02 -0.10755761485E+02 -0.15213306535E+03  0.17375255927E+03  0.82272252593E+02 0.  0.
         25    2    1    2    0    0  0.34316439359E+02  0.78569237624E+02  0.33569988350E+03  0.36836352539E+03  0.12508609811E+03 0.  0.
        -24    2    1    2    0    0 -0.21625011953E+02 -0.67813476139E+02  0.92463339834E+03  0.93079561839E+03  0.79795069957E+02 0.  0.
        -11    1    3    3    0    0 -0.41210325691E+02 -0.20812596632E+02 -0.53895994291E+02  0.70966423911E+02  0.00000000000E+00 0.  1.
         12    1    3    3    0    0  0.28518898285E+02  0.10056835147E+02 -0.98237071058E+02  0.10278613536E+03  0.00000000000E+00 0. -1.
         11    1    5    5    0    0 -0.10356484007E+02 -0.61357217969E+02  0.90570650851E+03  0.90784153051E+03  0.00000000000E+00 0. -1.
        -12    1    5    5    0    0 -0.11268527945E+02 -0.64562581703E+01  0.18926889834E+02  0.22954087880E+02  0.00000000000E+00 0.  1.
          5    1    4    4  501    0 -0.28376988465E+02  0.83464176926E+02  0.20839278182E+03  0.22631072935E+03  0.41800000000E+01 0.  1.
         -5    1    4    4    0  501  0.62693427823E+02 -0.48949393023E+01  0.12730710168E+03  0.14205279603E+03  0.41800000000E+01 0.  1.
</event>
<event>
11    1  0.8551154E-009  0.1455852E+03  0.7561462E-02  0.1101477E+00
         22   -1    0    0    0    0  0.00000000000E+00  0.00000000000E+00  0.12123267846E+03  0.12123267846E+03  0.00000000000E+00 0. -1.
         22   -1    0    0    0    0 -0.00000000000E+00 -0.00000000000E+00 -0.12687026464E+04  0.12687026464E+04  0.00000000000E+00 0. -1.
        -24    2    1    2    0    0  0.78117590227E+02  0.55491317332E+01 -0.99771912777E+03  0.10040163557E+04  0.80450194174E+02 0.  0.
         25    2    1    2    0    0 -0.52439907065E+02  0.75935971259E+01 -0.23133881167E+03  0.26828156044E+03  0.12509893413E+03 0.  0.
         24    2    1    2    0    0 -0.25677683163E+02 -0.13142728859E+02  0.81587971539E+02  0.11763740872E+03  0.79686185103E+02 0.  0.
        -13    1    5    5    0    0 -0.28613747806E+02  0.22144081855E+02  0.96329034186E+01  0.37441951779E+02  0.00000000000E+00 0.  1.
         14    1    5    5    0    0  0.29360646434E+01 -0.35286810715E+02  0.71955068120E+02  0.80195456942E+02  0.00000000000E+00 0. -1.
         13    1    3    3    0    0  0.76463153059E+02 -0.14275946141E+02 -0.93471703643E+03  0.93794794877E+03  0.00000000000E+00 0. -1.
        -14    1    3    3    0    0  0.16544371688E+01  0.19825077875E+02 -0.63002091345E+02  0.66068406890E+02  0.00000000000E+00 0.  1.
          5    1    4    4  501    0 -0.41687844661E+02  0.29858669704E+02 -0.19587321834E+02  0.55050450730E+02  0.41800000000E+01 0.  1.
         -5    1    4    4    0  501 -0.10752062404E+02 -0.22265072578E+02 -0.21175148983E+03  0.21323110971E+03  0.41800000000E+01 0.  1.
</event>
<event>
11    1  0.8551154E-009  0.1928926E+03  0.7561462E-02  0.1059667E+00
         22   -1    0    0    0    0  0.00000000000E+00  0.00000000000E+00  0.12793078399E+03  0.12793078399E+03  0.00000000000E+00 0.  1.
         22   -1    0    0    0    0 -0.00000000000E+00 -0.00000000000E+00 -0.88773856531E+03  0.88773856531E+03  0.00000000000E+00 0. -1.
        -24    2    1    2    0    0 -0.18730226631E+02  0.93154943504E+02 -0.47699087494E+03  0.49278610188E+03  0.79304366499E+02 0.  0.
         25    2    1    2    0    0 -0.12287510650E+03 -0.12490130704E+03 -0.28458911710E+03  0.35684391774E+03  0.12509191723E+03 0.  0.
         24    2    1    2    0    0  0.14160533313E+03  0.31746363540E+02  0.17722107254E+01  0.16603932968E+03  0.80659880360E+02 0.  0.
        -13    1    5    5    0    0  0.13664420389E+03  0.50440402691E+02 -0.44419700876E+01  0.14572441038E+03  0.00000000000E+00 0.  1.
         14    1    5    5    0    0  0.49611292402E+01 -0.18694039151E+02  0.62141808130E+01  0.20314919303E+02  0.00000000000E+00 0. -1.
         13    1    3    3    0    0 -0.63270633200E+01  0.91906444352E+02 -0.46903797877E+03  0.47799942654E+03  0.00000000000E+00 0. -1.
        -14    1    3    3    0    0 -0.12403163311E+02  0.12484991520E+01 -0.79528961688E+01  0.14786675344E+02  0.00000000000E+00 0.  1.
          5    1    4    4  501    0 -0.85435181322E+02 -0.10934782907E+03 -0.28396181601E+03  0.31608211477E+03  0.41800000000E+01 0.  1.
         -5    1    4    4    0  501 -0.37439925180E+02 -0.15553477974E+02 -0.62730109617E+00  0.40761802969E+02  0.41800000000E+01 0.  1.
</event>
<event>
11    1  0.8551154E-009  0.1709454E+03  0.7561462E-02  0.1077212E+00
         22   -1    0    0    0    0  0.00000000000E+00  0.00000000000E+00  0.88062068261E+03  0.88062068261E+03  0.00000000000E+00 0. -1.
         22   -1    0    0    0    0 -0.00000000000E+00 -0.00000000000E+00 -0.10833668759E+03  0.10833668759E+03  0.00000000000E+00 0. -1.
         24    2    1    2    0    0 -0.78201412678E+02 -0.14954184462E+02 -0.25799238032E+02  0.11607931699E+03  0.80434560801E+02 0.  0.
         25    2    1    2    0    0  0.18488522940E+02 -0.98858638333E+02  0.20738451909E+03  0.26224519565E+03  0.12509735420E+03 0.  0.
        -24    2    1    2    0    0  0.59712889738E+02  0.11381282280E+03  0.59069871396E+03  0.61063285756E+03  0.86188910111E+02 0.  0.
        -11    1    3    3    0    0 -0.22921759483E+02  0.21403373010E+02  0.18540701479E+02  0.36431703849E+02  0.00000000000E+00 0.  1.
         12    1    3    3    0    0 -0.55279653195E+02 -0.36357557472E+02 -0.44339939511E+02  0.79647613137E+02  0.00000000000E+00 0. -1.
         11    1    5    5    0    0  0.26031942286E+02  0.11792957013E+03  0.45462641858E+03  0.47039369256E+03  0.00000000000E+00 0. -1.
        -12    1    5    5    0    0  0.33680947453E+02 -0.41167473365E+01  0.13607229538E+03  0.14023916500E+03  0.00000000000E+00 0.  1.
          5    1    4    4  501    0 -0.66828047323E+01  0.29015775868E+02  0.36354466551E+02  0.47177269596E+02  0.41800000000E+01 0. -1.
         -5    1    4    4    0  501  0.25171327672E+02 -0.12787441420E+03  0.17103005254E+03  0.21506792605E+03  0.41800000000E+01 0. -1.
</event>
<event>
11    1  0.8551154E-009  0.1924151E+03  0.7561462E-02  0.1060021E+00
         22   -1    0    0    0    0  0.00000000000E+00  0.00000000000E+00  0.55155722382E+03  0.55155722382E+03  0.00000000000E+00 0.  1.
         22   -1    0    0    0    0 -0.00000000000E+00 -0.00000000000E+00 -0.32886981772E+03  0.32886981772E+03  0.00000000000E+00 0. -1.
        -24    2    1    2    0    0  0.94256919525E+02  0.98074313048E+02 -0.20276115599E+03  0.25858062899E+03  0.85140575247E+02 0.  0.
         25    2    1    2    0    0 -0.20298146955E+03 -0.17731728310E+03  0.27010969347E+03  0.40156063655E+03  0.12509517358E+03 0.  0.
         24    2    1    2    0    0  0.10872455003E+03  0.79242970055E+02  0.15533886861E+03  0.22028577600E+03  0.79342188790E+02 0.  0.
        -11    1    5    5    0    0  0.87239905440E+02  0.56426351356E+02  0.15770864402E+03  0.18885642861E+03  0.00000000000E+00 0.  1.
         12    1    5    5    0    0  0.21484644586E+02  0.22816618699E+02 -0.23697754021E+01  0.31429347389E+02  0.00000000000E+00 0. -1.
         11    1    3    3    0    0  0.10227378468E+03  0.56749710472E+02 -0.16341664882E+03  0.20096133405E+03  0.00000000000E+00 0. -1.
        -12    1    3    3    0    0 -0.80168651580E+01  0.41324602577E+02 -0.39344507169E+02  0.57619294941E+02  0.00000000000E+00 0.  1.
          5    1    4    4  501    0 -0.18844576773E+03 -0.18173183530E+03  0.19939271711E+03  0.32910970112E+03  0.41800000000E+01 0.  1.
         -5    1    4    4    0  501 -0.14535701821E+02  0.44145522010E+01  0.70716976364E+02  0.72450935429E+02  0.41800000000E+01 0.  1.
</event>
<event>
11    1  0.8551154E-009  0.2983785E+03  0.7561462E-02  0.1000880E+00
         22   -1    0    0    0    0  0.00000000000E+00  0.00000000000E+00  0.28095258571E+03  0.28095258571E+03  0.00000000000E+00 0.  1.
         22   -1    0    0    0    0 -0.00000000000E+00 -0.00000000000E+00 -0.48726822704E+03  0.48726822704E+03  0.00000000000E+00 0. -1.
         24    2    1    2    0    0  0.11462521259E+02 -0.26768719731E+03 -0.20303440457E+03  0.34599483352E+03  0.81863486298E+02 0.  0.
         25    2    1    2    0    0 -0.88883993158E+02  0.27016802141E+03 -0.42525626603E+01  0.31073624285E+03  0.12509118393E+03 0.  0.
        -24    2    1    2    0    0  0.77421471898E+02 -0.24808240955E+01  0.97132589347E+00  0.11148973638E+03  0.80179667276E+02 0.  0.
        -11    1    3    3    0    0  0.22285022696E+02 -0.10949946885E+03 -0.40303016429E+02  0.11879010501E+03  0.00000000000E+00 0.  1.
         12    1    3    3    0    0 -0.10822501437E+02 -0.15818772846E+03 -0.16273138814E+03  0.22720472851E+03  0.00000000000E+00 0. -1.
         11    1    5    5    0    0  0.72736177696E+02  0.57560765807E+01  0.31537955835E+02  0.79487902360E+02  0.00000000000E+00 0. -1.
        -12    1    5    5    0    0  0.46852942027E+01 -0.82369006762E+01 -0.30566629941E+02  0.32001834017E+02  0.00000000000E+00 0.  1.
          5    1    4    4  501    0  0.31908373086E+02  0.50485475233E+02 -0.39460707783E+01  0.59999761309E+02  0.41800000000E+01 0. -1.
         -5    1    4    4    0  501 -0.12079236624E+03  0.21968254617E+03 -0.30649188205E+00  0.25073648154E+03  0.41800000000E+01 0. -1.
</event>
<event>
11    1  0.8551154E-009  0.1443208E+03  0.7561462E-02  0.1102827E+00
         22   -1    0    0    0    0  0.00000000000E+00  0.00000000000E+00  0.16831475957E+03  0.16831475957E+03  0.00000000000E+00 0. -1.
         22   -1    0    0    0    0 -0.00000000000E+00 -0.00000000000E+00 -0.18157915082E+04  0.18157915082E+04  0.00000000000E+00 0. -1.
         24    2    1    2    0    0 -0.13457163562E+02  0.71880712238E+02 -0.16719033617E+04  0.16754931340E+04  0.81660634143E+02 0.  0.
         25    2    1    2    0    0 -0.89413139341E+01 -0.50145259635E+02 -0.83498481121E+02  0.15879129811E+03  0.12509270901E+03 0.  0.
        -24    2    1    2    0    0  0.22398477496E+02 -0.21735452603E+02  0.10792509420E+03  0.14982183566E+03  0.99119295738E+02 0.  0.
        -13    1    3    3    0    0 -0.28246967072E+02 -0.68111898903E+01 -0.51892812205E+03  0.51974097328E+03  0.00000000000E+00 0.  1.
         14    1    3    3    0    0  0.14789803510E+02  0.78691902128E+02 -0.11529752397E+04  0.11557521607E+04  0.00000000000E+00 0. -1.
         11    1    5    5    0    0 -0.34252595057E+01 -0.32179823475E+02  0.11631253776E+03  0.12073060872E+03  0.00000000000E+00 0. -1.
        -12    1    5    5    0    0  0.25823737002E+02  0.10444370871E+02 -0.83874435548E+01  0.29091226942E+02  0.00000000000E+00 0.  1.
          5    1    4    4  501    0  0.56190150812E+02 -0.26284752296E+02 -0.21867471985E+02  0.65908117729E+02  0.41800000000E+01 0.  1.
         -5    1    4    4    0  501 -0.65131464746E+02 -0.23860507339E+02 -0.61631009136E+02  0.92883180381E+02  0.41800000000E+01 0.  1.
</event>
<event>
11    1  0.8551154E-009  0.1399558E+03  0.7561462E-02  0.1107608E+00
         22   -1    0    0    0    0  0.00000000000E+00  0.00000000000E+00  0.62864370306E+03  0.62864370306E+03  0.00000000000E+00 0. -1.
         22   -1    0    0    0    0 -0.00000000000E+00 -0.00000000000E+00 -0.25277851164E+03  0.25277851164E+03  0.00000000000E+00 0.  1.
         24    2    1    2    0    0  0.43353082530E+02 -0.50468548191E+02 -0.14347191543E+03  0.17723243606E+03  0.80003635893E+02 0.  0.
         25    2    1    2    0    0 -0.27909638598E+02  0.43591542503E+02 -0.37830743111E+02  0.14055892383E+03  0.12508587226E+03 0.  0.
        -24    2    1    2    0    0 -0.15443443931E+02  0.68770056878E+01  0.55716784995E+03  0.56363085481E+03  0.83414233202E+02 0.  0.
        -11    1    3    3    0    0  0.63449882373E+01 -0.35868272148E+02 -0.13034477077E+03  0.13533865335E+03  0.00000000000E+00 0.  1.
         12    1    3    3    0    0  0.37008094292E+02 -0.14600276042E+02 -0.13127144657E+02  0.41893782719E+02  0.00000000000E+00 0. -1.
         13    1    5    5    0    0 -0.47319783971E+02  0.18701763468E+02  0.31341219088E+03  0.31751554183E+03  0.00000000000E+00 0. -1.
        -14    1    5    5    0    0  0.31876340040E+02 -0.11824757780E+02  0.24375565908E+03  0.24611531298E+03  0.00000000000E+00 0.  1.
          5    1    4    4  501    0 -0.19766821852E+02  0.40647632447E+02 -0.82879404820E+02  0.94495637005E+02  0.41800000000E+01 0. -1.
         -5    1    4    4    0  501 -0.81428167468E+01  0.29439100564E+01  0.45048661709E+02  0.46063286821E+02  0.41800000000E+01 0. -1.
</event>
<event>
11    1  0.8551154E-009  0.1469009E+03  0.7561462E-02  0.1100088E+00
         22   -1    0    0    0    0  0.00000000000E+00  0.00000000000E+00  0.19067335452E+04  0.19067335452E+04  0.00000000000E+00 0.  1.
         22   -1    0    0    0    0 -0.00000000000E+00 -0.00000000000E+00 -0.46589808343E+03  0.46589808343E+03  0.00000000000E+00 0. -1.
        -24    2    1    2    0    0  0.55350689967E+02 -0.34755776591E+02 -0.36598136728E+03  0.37990761937E+03  0.78203421754E+02 0.  0.
         25    2    1    2    0    0 -0.11499869775E+03  0.81490217876E+02  0.62466080305E+01  0.18854557540E+03  0.12508020545E+03 0.  0.
         24    2    1    2    0    0  0.59648007785E+02 -0.46734441285E+02  0.18005702210E+04  0.18041784338E+04  0.85233253890E+02 0.  0.
        -13    1    5    5    0    0 -0.15080794190E+02  0.41334735102E-01  0.67228485636E+03  0.67245398367E+03  0.00000000000E+00 0.  1.
         14    1    5    5    0    0  0.74728801975E+02 -0.46775776021E+02  0.11282853646E+04  0.11317244502E+04  0.00000000000E+00 0. -1.
         11    1    3    3    0    0  0.44557972051E+02 -0.57625509614E+02 -0.21982594558E+03  0.23158056607E+03  0.00000000000E+00 0. -1.
        -12    1    3    3    0    0  0.10792717915E+02  0.22869733023E+02 -0.14615542170E+03  0.14832705330E+03  0.00000000000E+00 0.  1.
          5    1    4    4  501    0  0.73804851772E+01 -0.23587477903E+02 -0.86203460814E+01  0.26507045136E+02  0.41800000000E+01 0.  1.
         -5    1    4    4    0  501 -0.12237918293E+03  0.10507769578E+03  0.14866954112E+02  0.16203853026E+03  0.41800000000E+01 0.  1.
</event>
<event>
11    1  0.8551154E-009  0.1314579E+03  0.7561462E-02  0.1117491E+00
         22   -1    0    0    0    0  0.00000000000E+00  0.00000000000E+00  0.33595118458E+03  0.33595118458E+03  0.00000000000E+00 0.  1.
         22   -1    0    0    0    0 -0.00000000000E+00 -0.00000000000E+00 -0.41741725401E+03  0.41741725401E+03  0.00000000000E+00 0. -1.
        -24    2    1    2    0    0 -0.86432309069E+01  0.39645742382E+02 -0.29589233413E+03  0.30939963442E+03  0.80804517526E+02 0.  0.
         25    2    1    2    0    0  0.20186086709E+02  0.13733817458E+01 -0.70383328062E+02  0.14495242599E+03  0.12509208071E+03 0.  0.
         24    2    1    2    0    0 -0.11542855802E+02 -0.41019124128E+02  0.28480959276E+03  0.29901637818E+03  0.80489031728E+02 0.  0.
        -13    1    5    5    0    0 -0.19736919393E+02 -0.63371278266E+02  0.22677084565E+03  0.23628474630E+03  0.00000000000E+00 0.  1.
         14    1    5    5    0    0  0.81940635909E+01  0.22352154138E+02  0.58038747108E+02  0.62731631882E+02  0.00000000000E+00 0. -1.
         11    1    3    3    0    0  0.53358214487E+01  0.81089321134E+01 -0.25790130946E+03  0.25808392277E+03  0.00000000000E+00 0. -1.
        -12    1    3    3    0    0 -0.13979052356E+02  0.31536810269E+02 -0.37991024667E+02  0.51315711648E+02  0.00000000000E+00 0.  1.
          5    1    4    4  501    0 -0.21800689145E+02  0.86931073223E+01 -0.93358456067E+02  0.96354106717E+02  0.41800000000E+01 0.  1.
         -5    1    4    4    0  501  0.41986775854E+02 -0.73197255765E+01  0.22975128005E+02  0.48598319270E+02  0.41800000000E+01 0.  1.
</event>
<event>
11    1  0.8551154E-009  0.2226474E+03  0.7561462E-02  0.1039572E+00
         22   -1    0    0    0    0  0.00000000000E+00  0.00000000000E+00  0.15887700408E+03  0.15887700408E+03  0.00000000000E+00 0.  1.
         22   -1    0    0    0    0 -0.00000000000E+00 -0.00000000000E+00 -0.21303866201E+04  0.21303866201E+04  0.00000000000E+00 0.  1.
        -24    2    1    2    0    0 -0.48076574934E+02  0.18597444639E+03 -0.17199123888E+04  0.17324374186E+04  0.79642529454E+02 0.  0.
         25    2    1    2    0    0 -0.30220865396E+02 -0.15936379328E+03 -0.34958467198E+03  0.40517490311E+03  0.12508852830E+03 0.  0.
         24    2    1    2    0    0  0.78297440330E+02 -0.26610653103E+02  0.97987444745E+02  0.15165130248E+03  0.80981245941E+02 0.  0.
        -13    1    5    5    0    0  0.14424647517E+02 -0.17626690229E+02  0.82129179090E+02  0.85228942986E+02  0.00000000000E+00 0.  1.
         14    1    5    5    0    0  0.63872792813E+02 -0.89839628743E+01  0.15858265655E+02  0.66422359491E+02  0.00000000000E+00 0. -1.
         11    1    3    3    0    0 -0.65516199181E+01  0.11532696740E+02 -0.27283472138E+02  0.30336688507E+02  0.00000000000E+00 0. -1.
        -12    1    3    3    0    0 -0.41524955016E+02  0.17444174965E+03 -0.16926289167E+04  0.17021007301E+04  0.00000000000E+00 0.  1.
          5    1    4    4  501    0 -0.52183949084E+02 -0.55077638434E+02 -0.24213471299E+03  0.25377825445E+03  0.41800000000E+01 0.  1.
         -5    1    4    4    0  501  0.21963083688E+02 -0.10428615485E+03 -0.10744995899E+03  0.15139664866E+03  0.41800000000E+01 0.  1.
</event>
<event>
11    1  0.8551154E-009  0.1344814E+03  0.7561462E-02  0.1113882E+00
         22   -1    0    0    0    0  0.00000000000E+00  0.00000000000E+00  0.36950502179E+04  0.36950502179E+04  0.00000000000E+00 0. -1.
         22   -1    0    0    0    0 -0.00000000000E+00 -0.00000000000E+00 -0.34628652884E+02  0.34628652884E+02  0.00000000000E+00 0. -1.
         24    2    1    2    0    0  0.19789619292E+02 -0.48583998676E+02  0.76822013017E+02  0.12275165717E+03  0.80089410622E+02 0.  0.
         25    2    1    2    0    0 -0.20745920415E+02  0.31985456742E+02  0.37181057520E+03  0.39413641605E+03  0.12508776109E+03 0.  0.
        -24    2    1    2    0    0  0.95630112256E+00  0.16598541934E+02  0.32117889768E+04  0.32127907976E+04  0.78484720269E+02 0.  0.
        -13    1    3    3    0    0  0.46163802228E+02 -0.28637818409E+02  0.21755320324E+02  0.58519357838E+02  0.00000000000E+00 0.  1.
         14    1    3    3    0    0 -0.26374182935E+02 -0.19946180267E+02  0.55066692693E+02  0.64232299327E+02  0.00000000000E+00 0. -1.
         13    1    5    5    0    0  0.32972132984E+01  0.32049265521E+02  0.30655391924E+04  0.30657084935E+04  0.00000000000E+00 0. -1.
        -14    1    5    5    0    0 -0.23409121759E+01 -0.15450723587E+02  0.14624978445E+03  0.14708230411E+03  0.00000000000E+00 0.  1.
          5    1    4    4  501    0  0.42997004532E+02  0.45674452791E+02  0.22134887110E+03  0.23010365746E+03  0.41800000000E+01 0.  1.
         -5    1    4    4    0  501 -0.63742924947E+02 -0.13688996049E+02  0.15046170409E+03  0.16403275860E+03  0.41800000000E+01 0.  1.
</event>
<event>
11    1  0.8551154E-009  0.1623766E+03  0.7561462E-02  0.1084863E+00
         22   -1    0    0    0    0  0.00000000000E+00  0.00000000000E+00  0.23643138738E+03  0.23643138738E+03  0.00000000000E+00 0. -1.
         22   -1    0    0    0    0 -0.00000000000E+00 -0.00000000000E+00 -0.12841227153E+04  0.12841227153E+04  0.00000000000E+00 0.  1.
        -24    2    1    2    0    0 -0.10522222185E+02  0.28870867907E+02 -0.11445233862E+04  0.11478771943E+04  0.82122027488E+02 0.  0.
         25    2    1    2    0    0 -0.30228631343E+02  0.72188897862E+02 -0.65538938883E+02  0.16145720610E+03  0.12509224502E+03 0.  0.
         24    2    1    2    0    0  0.40750853528E+02 -0.10105976577E+03  0.16237099716E+03  0.21121970232E+03  0.79848065777E+02 0.  0.
        -13    1    5    5    0    0 -0.13590298276E+02 -0.38253027750E+02  0.98214208434E+02  0.10627333192E+03  0.00000000000E+00 0.  1.
         14    1    5    5    0    0  0.54341151803E+02 -0.62806738019E+02  0.64156788723E+02  0.10494637040E+03  0.00000000000E+00 0. -1.
         11    1    3    3    0    0 -0.15196332718E+02 -0.19753152605E+02 -0.14243358463E+03  0.14459751587E+03  0.00000000000E+00 0. -1.
        -12    1    3    3    0    0  0.46741105328E+01  0.48624020512E+02 -0.10020898016E+04  0.10032796784E+04  0.00000000000E+00 0.  1.
          5    1    4    4  501    0 -0.58683106566E+02 -0.80672727997E+01 -0.11401742746E+02  0.60467016003E+02  0.41800000000E+01 0. -1.
         -5    1    4    4    0  501  0.28454475223E+02  0.80256170662E+02 -0.54137196136E+02  0.10099019009E+03  0.41800000000E+01 0. -1.
</event>
<event>
11    1  0.8551154E-009  0.1640528E+03  0.7561462E-02  0.1083326E+00
         22   -1    0    0    0    0  0.00000000000E+00  0.00000000000E+00  0.13401973541E+03  0.13401973541E+03  0.00000000000E+00 0. -1.
         22   -1    0    0    0    0 -0.00000000000E+00 -0.00000000000E+00 -0.35734748445E+03  0.35734748445E+03  0.00000000000E+00 0. -1.
        -24    2    1    2    0    0 -0.89898900338E+02 -0.52049222548E+02 -0.17074109043E+03  0.21492670849E+03  0.79057170527E+02 0.  0.
         25    2    1    2    0    0  0.93321608910E+02  0.52337740110E+02  0.23155567633E+02  0.16622177139E+03  0.12508131452E+03 0.  0.
         24    2    1    2    0    0 -0.34227085720E+01 -0.28851756181E+00 -0.75742226235E+02  0.11021873998E+03  0.79996797638E+02 0.  0.
        -11    1    5    5    0    0  0.31095494596E+02 -0.14884755961E+02 -0.12432210558E+02  0.36647586599E+02  0.00000000000E+00 0.  1.
         12    1    5    5    0    0 -0.34518203168E+02  0.14596238399E+02 -0.63310015677E+02  0.73571153385E+02  0.00000000000E+00 0. -1.
         11    1    3    3    0    0 -0.94817924641E+02 -0.66093377825E+02 -0.15358186358E+03  0.19221384509E+03  0.00000000000E+00 0. -1.
        -12    1    3    3    0    0  0.49190243027E+01  0.14044155278E+02 -0.17159226854E+02  0.22712863399E+02  0.00000000000E+00 0.  1.
          5    1    4    4  501    0  0.71466678203E+02  0.93521339151E+02  0.17571853718E+02  0.11907967674E+03  0.41800000000E+01 0.  1.
         -5    1    4    4    0  501  0.21854930707E+02 -0.41183599042E+02  0.55837139153E+01  0.47142094643E+02  0.41800000000E+01 0.  1.
</event>
<event>
11    1  0.8551154E-009  0.1798329E+03  0.7561462E-02  0.1069778E+00
         22   -1    0    0    0    0  0.00000000000E+00  0.00000000000E+00  0.11102717635E+04  0.11102717635E+04  0.00000000000E+00 0. -1.
         22   -1    0    0    0    0 -0.00000000000E+00 -0.00000000000E+00 -0.13474503945E+04  0.13474503945E+04  0.00000000000E+00 0.  1.
        -24    2    1    2    0    0 -0.29967834775E+02 -0.52084908827E+02 -0.12675228058E+04  0.12715346499E+04  0.81088801212E+02 0.  0.
         25    2    1    2    0    0 -0.90425910193E+02  0.10048143853E+03  0.45737076842E+02  0.18976905633E+03  0.12508816818E+03 0.  0.
         24    2    1    2    0    0  0.12039374497E+03 -0.48396529707E+02  0.98460709799E+03  0.99641845177E+03  0.81004417780E+02 0.  0.
        -13    1    5    5    0    0  0.79190262986E+02  0.21747000565E+01  0.37160745154E+03  0.37995779386E+03  0.00000000000E+00 0.  1.
         14    1    5    5    0    0  0.41203481982E+02 -0.50571229763E+02  0.61299964645E+03  0.61646065791E+03  0.00000000000E+00 0. -1.
         11    1    3    3    0    0  0.16072439092E+02  0.11307717175E+02 -0.15220505338E+03  0.15346845292E+03  0.00000000000E+00 0. -1.
        -12    1    3    3    0    0 -0.46040273867E+02 -0.63392626002E+02 -0.11153177524E+04  0.11180661970E+04  0.00000000000E+00 0.  1.
          5    1    4    4  501    0 -0.22826582900E+02  0.30325502391E+02  0.78173726070E+02  0.87001682914E+02  0.41800000000E+01 0. -1.
         -5    1    4    4    0  501 -0.67599327292E+02  0.70155936143E+02 -0.32436649228E+02  0.10276737342E+03  0.41800000000E+01 0. -1.
</event>
<event>
11    1  0.8551154E-009  0.2024872E+03  0.7561462E-02  0.1052779E+00
         22   -1    0    0    0    0  0.00000000000E+00  0.00000000000E+00  0.15790374930E+03  0.15790374930E+03  0.00000000000E+00 0.  1.
         22   -1    0    0    0    0 -0.00000000000E+00 -0.00000000000E+00 -0.94449366517E+03  0.94449366517E+03  0.00000000000E+00 0. -1.
        -24    2    1    2    0    0 -0.67143667964E+02  0.63900600682E+02 -0.43139422076E+03  0.44857824621E+03  0.80807860704E+02 0.  0.
         25    2    1    2    0    0  0.21129059204E+03 -0.10029541584E+03 -0.39918933669E+03  0.47927340081E+03  0.12509189211E+03 0.  0.
         24    2    1    2    0    0 -0.14414692407E+03  0.36394815157E+02  0.43993641581E+02  0.17454576745E+03  0.80173974237E+02 0.  0.
        -13    1    5    5    0    0 -0.10731424255E+03  0.52188410388E+02  0.62510373620E+01  0.11949498860E+03  0.00000000000E+00 0.  1.
         14    1    5    5    0    0 -0.36832681522E+02 -0.15793595230E+02  0.37742604219E+02  0.55050778847E+02  0.00000000000E+00 0. -1.
         11    1    3    3    0    0 -0.67620504792E+02  0.10745897226E+02 -0.27506912225E+03  0.28346257070E+03  0.00000000000E+00 0. -1.
        -12    1    3    3    0    0  0.47683682859E+00  0.53154703456E+02 -0.15632509851E+03  0.16511567551E+03  0.00000000000E+00 0.  1.
          5    1    4    4  501    0  0.38648058074E+02 -0.59551044509E+02 -0.47980480168E+02  0.85788100411E+02  0.41800000000E+01 0.  1.
         -5    1    4    4    0  501  0.17264253396E+03 -0.40744371331E+02 -0.35120885653E+03  0.39348530040E+03  0.41800000000E+01 0.  1.
</event>
<event>
11    1  0.8551154E-009  0.1722783E+03  0.7561462E-02  0.1076066E+00
         22   -1    0    0    0    0  0.00000000000E+00  0.00000000000E+00  0.67943119958E+03  0.67943119958E+03  0.00000000000E+00 0. -1.
         22   -1    0    0    0    0 -0.00000000000E+00 -0.00000000000E+00 -0.56869624781E+03  0.56869624781E+03  0.00000000000E+00 0. -1.
         24    2    1    2    0    0  0.14735009338E+02 -0.29638675946E+02 -0.51407922350E+03  0.52109388714E+03  0.78522732831E+02 0.  0.
         25    2    1    2    0    0 -0.12692519232E+03 -0.40390384241E+01  0.15437655176E+03  0.23580864923E+03  0.12508909241E+03 0.  0.
        -24    2    1    2    0    0  0.11219018298E+03  0.33677714370E+02  0.47043762351E+03  0.49122491103E+03  0.79180363721E+02 0.  0.
        -11    1    3    3    0    0 -0.11047091674E+02 -0.32011761926E+02 -0.88969384149E+02  0.95196336336E+02  0.00000000000E+00 0.  1.
         12    1    3    3    0    0  0.25782101012E+02  0.23730859802E+01 -0.42510983935E+03  0.42589755081E+03  0.00000000000E+00 0. -1.
         11    1    5    5    0    0  0.63293373032E+02  0.94254512521E+01  0.11486101607E+03  0.13148362336E+03  0.00000000000E+00 0. -1.
        -12    1    5    5    0    0  0.48896809946E+02  0.24252263118E+02  0.35557660744E+03  0.35974128766E+03  0.00000000000E+00 0.  1.
          5    1    4    4  501    0 -0.82537717076E+02  0.55331041497E+02  0.11402734929E+03  0.15130666767E+03  0.41800000000E+01 0. -1.
         -5    1    4    4    0  501 -0.44387475240E+02 -0.59370079921E+02  0.40349202465E+02  0.84501981560E+02  0.41800000000E+01 0. -1.
</event>
<event>
11    1  0.8551154E-009  0.1433590E+03  0.7561462E-02  0.1103864E+00
         22   -1    0    0    0    0  0.00000000000E+00  0.00000000000E+00  0.87030089397E+02  0.87030089397E+02  0.00000000000E+00 0. -1.
         22   -1    0    0    0    0 -0.00000000000E+00 -0.00000000000E+00 -0.58618926749E+03  0.58618926749E+03  0.00000000000E+00 0.  1.
        -24    2    1    2    0    0 -0.51159111094E+02  0.50793561925E+02 -0.42490538994E+03  0.43848098403E+03  0.80769687194E+02 0.  0.
         25    2    1    2    0    0  0.26158302027E+02 -0.50389830484E+02 -0.40347701068E+02  0.14317996783E+03  0.12509666033E+03 0.  0.
         24    2    1    2    0    0  0.25000809067E+02 -0.40373144157E+00 -0.33906087081E+02  0.91558405027E+02  0.81290315148E+02 0.  0.
        -11    1    5    5    0    0  0.43779719026E+02 -0.12908704806E+02 -0.46964638123E+02  0.65490271734E+02  0.00000000000E+00 0.  1.
         12    1    5    5    0    0 -0.18778909958E+02  0.12504973365E+02  0.13058551041E+02  0.26068133293E+02  0.00000000000E+00 0. -1.
         13    1    3    3    0    0 -0.44527927657E+02  0.59388230169E+01 -0.90713834786E+02  0.10122749519E+03  0.00000000000E+00 0. -1.
        -14    1    3    3    0    0 -0.66311834372E+01  0.44854738908E+02 -0.33419155516E+03  0.33725348884E+03  0.00000000000E+00 0.  1.
          5    1    4    4  501    0  0.60014097992E+02 -0.74063319075E+02 -0.22813687033E+02  0.98107104260E+02  0.41800000000E+01 0. -1.
         -5    1    4    4    0  501 -0.33855795965E+02  0.23673488591E+02 -0.17534014035E+02  0.45072863573E+02  0.41800000000E+01 0. -1.
</event>
<event>
11    1  0.8551154E-009  0.1534087E+03  0.7561462E-02  0.1093446E+00
         22   -1    0    0    0    0  0.00000000000E+00  0.00000000000E+00  0.73683415601E+03  0.73683415601E+03  0.00000000000E+00 0.  1.
         22   -1    0    0    0    0 -0.00000000000E+00 -0.00000000000E+00 -0.14912916813E+03  0.14912916813E+03  0.00000000000E+00 0. -1.
         24    2    1    2    0    0  0.71436011197E+02  0.49604695507E+02 -0.94949309235E+02  0.15249935455E+03  0.81712620218E+02 0.  0.
         25    2    1    2    0    0 -0.79979584652E+02 -0.79324313901E+02  0.32875684241E+03  0.36934751215E+03  0.12508973805E+03 0.  0.
        -24    2    1    2    0    0  0.85435734552E+01  0.29719618394E+02  0.35389745471E+03  0.36411645744E+03  0.79882024034E+02 0.  0.
        -11    1    3    3    0    0  0.44603842074E+02 -0.14340798540E+02 -0.21709668391E+02  0.51637882723E+02  0.00000000000E+00 0.  1.
         12    1    3    3    0    0  0.26832169123E+02  0.63945494046E+02 -0.73239640845E+02  0.10086147183E+03  0.00000000000E+00 0. -1.
         11    1    5    5    0    0  0.23772343312E+02 -0.17456223093E+02  0.70573296628E+02  0.76488131290E+02  0.00000000000E+00 0. -1.
        -12    1    5    5    0    0 -0.15228769857E+02  0.47175841488E+02  0.28332415808E+03  0.28762832615E+03  0.00000000000E+00 0.  1.
          5    1    4    4  501    0 -0.49797608155E+02  0.15694282596E+02  0.19831636331E+03  0.20511695357E+03  0.41800000000E+01 0.  1.
         -5    1    4    4    0  501 -0.30181976497E+02 -0.95018596497E+02  0.13044047909E+03  0.16423055858E+03  0.41800000000E+01 0.  1.
</event>
<event>
11    1  0.1393465E-008  0.1779219E+03  0.7561462E-02  0.1071336E+00
         22   -1    0    0    0    0  0.00000000000E+00  0.00000000000E+00  0.46697899196E+03  0.46697899196E+03  0.00000000000E+00 0.  1.
         22   -1    0    0    0    0 -0.00000000000E+00 -0.00000000000E+00 -0.26903042227E+04  0.26903042227E+04  0.00000000000E+00 0. -1.
        -24    2    1    2    0    0 -0.12860745707E+02  0.32467375080E+01 -0.20125821772E+04  0.20142460923E+04  0.80773512029E+02 0.  0.
         25    2    1    2    0    0  0.75821998204E+02  0.10641652402E+03 -0.65076438059E+03  0.67543707498E+03  0.12509001247E+03 0.  0.
         24    2    1    2    0    0 -0.62961252497E+02 -0.10966326153E+03  0.44002132697E+03  0.46760004748E+03  0.95083573606E+02 0.  0.
        -13    1    5    5    0    0 -0.77375880541E+02 -0.11771549985E+03  0.37722832354E+03  0.40267253926E+03  0.00000000000E+00 0.  1.
         14    1    5    5    0    0  0.14414628044E+02  0.80522383232E+01  0.62793003427E+02  0.64927508215E+02  0.00000000000E+00 0. -1.
         11    1    3    3    0    0 -0.43793773335E+02 -0.82815452017E+01 -0.14589278973E+04  0.14596085394E+04  0.00000000000E+00 0. -1.
        -12    1    3    3    0    0  0.30933027628E+02  0.11528282710E+02 -0.55365427984E+03  0.55463755290E+03  0.00000000000E+00 0.  1.
          5    1    4    4  501    0 -0.24453780716E+02 -0.90492124503E+01 -0.68620306974E+02  0.73526148862E+02  0.41800000000E+01 0.  1.
         -5    1    4    4    0  501  0.10027577892E+03  0.11546573647E+03 -0.58214407361E+03  0.60191092612E+03  0.41800000000E+01 0.  1.
</event>
<event>
11    1  0.8551154E-009  0.1514927E+03  0.7561462E-02  0.1095363E+00
         22   -1    0    0    0    0  0.00000000000E+00  0.00000000000E+00  0.90646280141E+03  0.90646280141E+03  0.00000000000E+00 0.  1.
         22   -1    0    0    0    0 -0.00000000000E+00 -0.00000000000E+00 -0.35391896740E+03  0.35391896740E+03  0.00000000000E+00 0. -1.
         24    2    1    2    0    0 -0.72178097198E+02  0.56995459753E+02 -0.19020379567E+03  0.22526101507E+03  0.78146534647E+02 0.  0.
         25    2    1    2    0    0 -0.21233647081E+01 -0.97513998000E+02 -0.97986877028E+02  0.18644881717E+03  0.12509294493E+03 0.  0.
        -24    2    1    2    0    0  0.74301461906E+02  0.40518538247E+02  0.84073450670E+03  0.84867193656E+03  0.79038509318E+02 0.  0.
        -11    1    3    3    0    0  0.75969694306E+01  0.18173487329E+02 -0.56533614592E+01  0.20492683622E+02  0.00000000000E+00 0.  1.
         12    1    3    3    0    0 -0.79775066628E+02  0.38821972424E+02 -0.18455043421E+03  0.20476833145E+03  0.00000000000E+00 0. -1.
         13    1    5    5    0    0  0.89061069907E+01 -0.20966761760E+02  0.10251888288E+03  0.10501926103E+03  0.00000000000E+00 0. -1.
        -14    1    5    5    0    0  0.65395354915E+02  0.61485300007E+02  0.73821562382E+03  0.74365267552E+03  0.00000000000E+00 0.  1.
          5    1    4    4  501    0 -0.58712384576E+02 -0.58987257850E+02 -0.26650190915E+02  0.87489117992E+02  0.41800000000E+01 0. -1.
         -5    1    4    4    0  501  0.56589019868E+02 -0.38526740150E+02 -0.71336686113E+02  0.98959699180E+02  0.41800000000E+01 0. -1.
</event>
<event>
11    1  0.8551154E-009  0.2262165E+03  0.7561462E-02  0.1037392E+00
         22   -1    0    0    0    0  0.00000000000E+00  0.00000000000E+00  0.17062684743E+04  0.17062684743E+04  0.00000000000E+00 0.  1.
         22   -1    0    0    0    0 -0.00000000000E+00 -0.00000000000E+00 -0.82495640130E+03  0.82495640130E+03  0.00000000000E+00 0.  1.
        -24    2    1    2    0    0 -0.81378664972E+02  0.17116818121E+03 -0.75628728136E+03  0.78350588360E+03  0.77394988928E+02 0.  0.
         25    2    1    2    0    0  0.85490756178E+01 -0.18396139875E+03  0.18069644025E+03  0.28672925181E+03  0.12509027701E+03 0.  0.
         24    2    1    2    0    0  0.72829589354E+02  0.12793217549E+02  0.14569029142E+04  0.14609897402E+04  0.80356109132E+02 0.  0.
        -11    1    5    5    0    0  0.42963348725E+02  0.23897307402E+02  0.12976228829E+04  0.12985538406E+04  0.00000000000E+00 0.  1.
         12    1    5    5    0    0  0.29866240629E+02 -0.11104089853E+02  0.15928003127E+03  0.16243589967E+03  0.00000000000E+00 0. -1.
         13    1    3    3    0    0  0.55991707177E+01  0.45424549249E+02 -0.26674762115E+03  0.27064558702E+03  0.00000000000E+00 0. -1.
        -14    1    3    3    0    0 -0.86977835690E+02  0.12574363196E+03 -0.48953966021E+03  0.51286029657E+03  0.00000000000E+00 0.  1.
          5    1    4    4  501    0  0.32571325202E+02 -0.36330420621E+02  0.11168607827E+03  0.12195098674E+03  0.41800000000E+01 0. -1.
         -5    1    4    4    0  501 -0.24022249585E+02 -0.14763097813E+03  0.69010361973E+02  0.16477826507E+03  0.41800000000E+01 0. -1.
</event>
<event>
11    1  0.8551154E-009  0.1561771E+03  0.7561462E-02  0.1090729E+00
         22   -1    0    0    0    0  0.00000000000E+00  0.00000000000E+00  0.79146239090E+03  0.79146239090E+03  0.00000000000E+00 0.  1.
         22   -1    0    0    0    0 -0.00000000000E+00 -0.00000000000E+00 -0.28267994046E+03  0.28267994046E+03  0.00000000000E+00 0.  1.
        -24    2    1    2    0    0 -0.76319356389E+02 -0.60132972114E+02 -0.22286444955E+03  0.25638794839E+03  0.81397780736E+02 0.  0.
         25    2    1    2    0    0  0.81808340382E+02 -0.63724785954E+01  0.10585189927E+03  0.18326058413E+03  0.12508638646E+03 0.  0.
         24    2    1    2    0    0 -0.54889839933E+01  0.66505450709E+02  0.62579500072E+03  0.63449379884E+03  0.80683913660E+02 0.  0.
        -13    1    5    5    0    0 -0.10512328674E+02  0.64177611775E+02  0.62558201558E+03  0.62895320424E+03  0.00000000000E+00 0.  1.
         14    1    5    5    0    0  0.50233446803E+01  0.23278389340E+01  0.21298514115E+00  0.55405946026E+01  0.00000000000E+00 0. -1.
         11    1    3    3    0    0  0.15743592190E+02 -0.12944902015E+02 -0.19426084904E+02  0.28156774636E+02  0.00000000000E+00 0. -1.
        -12    1    3    3    0    0 -0.92062948579E+02 -0.47188070099E+02 -0.20343836465E+03  0.22823117375E+03  0.00000000000E+00 0.  1.
          5    1    4    4  501    0  0.72342087497E+02  0.38078232369E+01 -0.37902595672E+01  0.72661651570E+02  0.41800000000E+01 0. -1.
         -5    1    4    4    0  501  0.94662528851E+01 -0.10180301832E+02  0.10964215884E+03  0.11059893256E+03  0.41800000000E+01 0. -1.
</event>
<event>
11    1  0.8551154E-009  0.4640125E+03  0.7561462E-02  0.9477739E-01
         22   -1    0    0    0    0  0.00000000000E+00  0.00000000000E+00  0.20925691062E+04  0.20925691062E+04  0.00000000000E+00 0. -1.
         22   -1    0    0    0    0 -0.00000000000E+00 -0.00000000000E+00 -0.78129228079E+03  0.78129228079E+03  0.00000000000E+00 0.  1.
         24    2    1    2    0    0 -0.31905100578E+03 -0.28976865536E+03 -0.56505262550E+03  0.71516948588E+03  0.80146778037E+02 0.  0.
         25    2    1    2    0    0  0.42983820386E+03  0.40034722253E+03  0.53064905572E+03  0.80141976163E+03  0.12508570627E+03 0.  0.
        -24    2    1    2    0    0 -0.11078719808E+03 -0.11057856717E+03  0.13456803952E+04  0.13572721394E+04  0.82646910517E+02 0.  0.
        -11    1    3    3    0    0 -0.22792429556E+03 -0.25149349947E+03 -0.42998568202E+03  0.54780119709E+03  0.00000000000E+00 0.  1.
         12    1    3    3    0    0 -0.91126710217E+02 -0.38275155890E+02 -0.13506694348E+03  0.16736828879E+03  0.00000000000E+00 0. -1.
         11    1    5    5    0    0 -0.84713426020E+02 -0.59195833701E+02  0.11036239919E+04  0.11084522664E+04  0.00000000000E+00 0. -1.
        -12    1    5    5    0    0 -0.26073772064E+02 -0.51382733466E+02  0.24205640324E+03  0.24881987307E+03  0.00000000000E+00 0.  1.
          5    1    4    4  501    0  0.25783863422E+03  0.26177616187E+03  0.25082600495E+03  0.44490299771E+03  0.41800000000E+01 0. -1.
         -5    1    4    4    0  501  0.17199956965E+03  0.13857106066E+03  0.27982305077E+03  0.35651676392E+03  0.41800000000E+01 0. -1.
</event>
<event>
11    1  0.8551154E-009  0.1323706E+03  0.7561462E-02  0.1116390E+00
         22   -1    0    0    0    0  0.00000000000E+00  0.00000000000E+00  0.15463004508E+04  0.15463004508E+04  0.00000000000E+00 0.  1.
         22   -1    0    0    0    0 -0.00000000000E+00 -0.00000000000E+00 -0.48263023524E+02  0.48263023524E+02  0.00000000000E+00 0. -1.
         24    2    1    2    0    0  0.17084030181E+02  0.36688216680E+02  0.49568843938E+02  0.10238176194E+03  0.79919118848E+02 0.  0.
         25    2    1    2    0    0 -0.38135612758E+01 -0.53958113013E+02  0.20419537545E+03  0.24549963937E+03  0.12509316674E+03 0.  0.
        -24    2    1    2    0    0 -0.13270468905E+02  0.17269896333E+02  0.12442732079E+04  0.12466820730E+04  0.74337209077E+02 0.  0.
        -13    1    3    3    0    0  0.16898275964E+02 -0.53151630025E+01  0.57032289269E+02  0.59720052810E+02  0.00000000000E+00 0.  1.
         14    1    3    3    0    0  0.18575421633E+00  0.42003379682E+02 -0.74634453316E+01  0.42661709126E+02  0.00000000000E+00 0. -1.
         13    1    5    5    0    0  0.15747249430E+02  0.14910414530E+02  0.11460461937E+03  0.11663839465E+03  0.00000000000E+00 0. -1.
        -14    1    5    5    0    0 -0.29017718335E+02  0.23594818032E+01  0.11296685885E+04  0.11300436784E+04  0.00000000000E+00 0.  1.
          5    1    4    4  501    0  0.81030425636E+01 -0.93568186022E+02  0.15266106516E+03  0.17928619007E+03  0.41800000000E+01 0.  1.
         -5    1    4    4    0  501 -0.11916603839E+02  0.39610073010E+02  0.51534310285E+02  0.66213449294E+02  0.41800000000E+01 0.  1.
</event>
<event>
11    1  0.8551154E-009  0.1450289E+03  0.7561462E-02  0.1102069E+00
         22   -1    0    0    0    0  0.00000000000E+00  0.00000000000E+00  0.32796832872E+04  0.32796832872E+04  0.00000000000E+00 0. -1.
         22   -1    0    0    0    0 -0.00000000000E+00 -0.00000000000E+00 -0.43593100102E+03  0.43593100102E+03  0.00000000000E+00 0.  1.
        -24    2    1    2    0    0 -0.14485756502E+02 -0.28025783084E+02 -0.39773261987E+03  0.40693519208E+03  0.80060801814E+02 0.  0.
         25    2    1    2    0    0  0.69345692509E+01  0.10026341702E+03  0.16455885830E+03  0.22984564873E+03  0.12509421789E+03 0.  0.
         24    2    1    2    0    0  0.75511872512E+01 -0.72237633940E+02  0.30769260478E+04  0.30788334474E+04  0.80412669632E+02 0.  0.
        -11    1    5    5    0    0  0.36258326481E+02 -0.70446221620E+01  0.96632651662E+03  0.96703217613E+03  0.00000000000E+00 0.  1.
         12    1    5    5    0    0 -0.28707139229E+02 -0.65193011778E+02  0.21105995311E+04  0.21118012713E+04  0.00000000000E+00 0. -1.
         13    1    3    3    0    0 -0.45748507718E+01  0.25103203351E+02 -0.64773466091E+02  0.69618259010E+02  0.00000000000E+00 0. -1.
        -14    1    3    3    0    0 -0.99109057302E+01 -0.53128986436E+02 -0.33295915378E+03  0.33731693307E+03  0.00000000000E+00 0.  1.
          5    1    4    4  501    0  0.67953518144E+01 -0.19852654335E+00  0.11932318966E+03  0.11958976632E+03  0.41800000000E+01 0. -1.
         -5    1    4    4    0  501  0.13921743646E+00  0.10046194357E+03  0.45235668643E+02  0.11025588240E+03  0.41800000000E+01 0. -1.
</event>
<event>
11    1  0.8551154E-009  0.1534182E+03  0.7561462E-02  0.1093436E+00
         22   -1    0    0    0    0  0.00000000000E+00  0.00000000000E+00  0.74618660451E+02  0.74618660451E+02  0.00000000000E+00 0. -1.
         22   -1    0    0    0    0 -0.00000000000E+00 -0.00000000000E+00 -0.15725863916E+04  0.15725863916E+04  0.00000000000E+00 0.  1.
         24    2    1    2    0    0  0.52798555910E+02 -0.80050193891E+02 -0.13421464668E+04  0.13479519287E+04  0.80134528312E+02 0.  0.
         25    2    1    2    0    0 -0.88988377331E+01  0.29918790687E+02 -0.14768937383E+03  0.19604603178E+03  0.12509025575E+03 0.  0.
        -24    2    1    2    0    0 -0.43899718177E+02  0.50131403204E+02 -0.81318905365E+01  0.10320709162E+03  0.78391538273E+02 0.  0.
        -11    1    3    3    0    0 -0.12662914616E+02 -0.90402374520E+00 -0.40406755205E+03  0.40426693321E+03  0.00000000000E+00 0.  1.
         12    1    3    3    0    0  0.65461470526E+02 -0.79146170146E+02 -0.93807891474E+03  0.94368499546E+03  0.00000000000E+00 0. -1.
         11    1    5    5    0    0 -0.11594754058E+02  0.43856729786E+02  0.28805418324E+02  0.53736423346E+02  0.00000000000E+00 0. -1.
        -12    1    5    5    0    0 -0.32304964119E+02  0.62746734183E+01 -0.36937308860E+02  0.49470668270E+02  0.00000000000E+00 0.  1.
          5    1    4    4  501    0  0.47204296791E+00  0.58410484592E+02 -0.15703587266E+02  0.60630706641E+02  0.41800000000E+01 0. -1.
         -5    1    4    4    0  501 -0.93708807011E+01 -0.28491693905E+02 -0.13198578657E+03  0.13541532514E+03  0.41800000000E+01 0. -1.
</event>
<event>
11    1  0.8551154E-009  0.1779157E+03  0.7561462E-02  0.1071341E+00
         22   -1    0    0    0    0  0.00000000000E+00  0.00000000000E+00  0.12849738498E+04  0.12849738498E+04  0.00000000000E+00 0.  1.
         22   -1    0    0    0    0 -0.00000000000E+00 -0.00000000000E+00 -0.70770807365E+03  0.70770807365E+03  0.00000000000E+00 0.  1.
        -24    2    1    2    0    0 -0.95313776057E+02  0.85289093888E+02 -0.66460665710E+03  0.68167354846E+03  0.81350307709E+02 0.  0.
         25    2    1    2    0    0  0.51575654341E+02 -0.85097254971E+02  0.16323988851E+03  0.22845142386E+03  0.12506478698E+03 0.  0.
         24    2    1    2    0    0  0.43738121716E+02 -0.19183891675E+00  0.10786325447E+04  0.10825569511E+04  0.81045208035E+02 0.  0.
        -13    1    5    5    0    0  0.12348054689E+02  0.28289573743E+02  0.81114369340E+03  0.81173078405E+03  0.00000000000E+00 0.  1.
         14    1    5    5    0    0  0.31390067026E+02 -0.28481412659E+02  0.26748885131E+03  0.27082616704E+03  0.00000000000E+00 0. -1.
         13    1    3    3    0    0  0.13771455628E+02  0.52620319230E+01 -0.41283976966E+02  0.43837298322E+02  0.00000000000E+00 0. -1.
        -14    1    3    3    0    0 -0.10908523169E+03  0.80027061964E+02 -0.62332268014E+03  0.63783625014E+03  0.00000000000E+00 0.  1.
          5    1    4    4  501    0 -0.14160962223E+02  0.23254349573E+02  0.55893911553E+02  0.62312914984E+02  0.41800000000E+01 0.  1.
         -5    1    4    4    0  501  0.65736616564E+02 -0.10835160454E+03  0.10734597695E+03  0.16613850888E+03  0.41800000000E+01 0.  1.
</event>
<event>
11    1  0.8551154E-009  0.1617448E+03  0.7561462E-02  0.1085448E+00
         22   -1    0    0    0    0  0.00000000000E+00  0.00000000000E+00  0.17111782947E+03  0.17111782947E+03  0.00000000000E+00 0. -1.
         22   -1    0    0    0    0 -0.00000000000E+00 -0.00000000000E+00 -0.25394024544E+04  0.25394024544E+04  0.00000000000E+00 0. -1.
         24    2    1    2    0    0  0.58235750373E+01 -0.23601135013E+02 -0.16562029021E+04  0.16585390780E+04  0.84574775831E+02 0.  0.
         25    2    1    2    0    0 -0.79567629647E+02 -0.48138044696E+02 -0.84921845623E+03  0.86340612996E+03  0.12509947970E+03 0.  0.
        -24    2    1    2    0    0  0.73744054610E+02  0.71739179709E+02  0.13713673339E+03  0.18857507592E+03  0.78545401630E+02 0.  0.
        -11    1    3    3    0    0 -0.53065133091E+00 -0.26010888925E+02 -0.14465543319E+03  0.14697633240E+03  0.00000000000E+00 0.  1.
         12    1    3    3    0    0  0.63542263682E+01  0.24097539120E+01 -0.15115474689E+04  0.15115627456E+04  0.00000000000E+00 0. -1.
         13    1    5    5    0    0  0.77685729553E+02  0.76678514314E+02  0.91297037652E+02  0.14230184896E+03  0.00000000000E+00 0. -1.
        -14    1    5    5    0    0 -0.39416749431E+01 -0.49393346048E+01  0.45839695740E+02  0.46273226959E+02  0.00000000000E+00 0.  1.
          5    1    4    4  501    0 -0.40870535261E+02 -0.89257621357E+02 -0.58436338006E+03  0.59256675234E+03  0.41800000000E+01 0.  1.
         -5    1    4    4    0  501 -0.38697094387E+02  0.41119576661E+02 -0.26485507617E+03  0.27083937762E+03  0.41800000000E+01 0.  1.
</event>
<event>
11    1  0.8551154E-009  0.1307647E+03  0.7561462E-02  0.1118333E+00
         22   -1    0    0    0    0  0.00000000000E+00  0.00000000000E+00  0.21835027269E+03  0.21835027269E+03  0.00000000000E+00 0. -1.
         22   -1    0    0    0    0 -0.00000000000E+00 -0.00000000000E+00 -0.15564175167E+04  0.15564175167E+04  0.00000000000E+00 0.  1.
         24    2    1    2    0    0 -0.13016935805E+02  0.27816496934E+02 -0.12107919868E+04  0.12139187057E+04  0.81475090685E+02 0.  0.
         25    2    1    2    0    0  0.50620304528E+02 -0.30038510722E+02 -0.31974184271E+03  0.34834915097E+03  0.12509019803E+03 0.  0.
        -24    2    1    2    0    0 -0.37603368723E+02  0.22220137878E+01  0.19246658556E+03  0.21249993276E+03  0.81816160874E+02 0.  0.
        -13    1    3    3    0    0 -0.38989424231E+02  0.10878497508E+02 -0.10039277478E+04  0.10047434696E+04  0.00000000000E+00 0.  1.
         14    1    3    3    0    0  0.25972488427E+02  0.16937999426E+02 -0.20686423907E+03  0.20917523607E+03  0.00000000000E+00 0. -1.
         13    1    5    5    0    0  0.77472541180E+01  0.78699930651E+01  0.14906637127E+03  0.14947488010E+03  0.00000000000E+00 0. -1.
        -14    1    5    5    0    0 -0.45350622841E+02 -0.56479792772E+01  0.43400214289E+02  0.63025052657E+02  0.00000000000E+00 0.  1.
          5    1    4    4  501    0 -0.28492190685E+01  0.15436873633E+00  0.10905323033E+02  0.12022493479E+02  0.41800000000E+01 0. -1.
         -5    1    4    4    0  501  0.53469523596E+02 -0.30192879458E+02 -0.33064716574E+03  0.33632665749E+03  0.41800000000E+01 0. -1.
</event>
<event>
11    1  0.8551154E-009  0.1309802E+03  0.7561462E-02  0.1118071E+00
         22   -1    0    0    0    0  0.00000000000E+00  0.00000000000E+00  0.41982271193E+03  0.41982271193E+03  0.00000000000E+00 0.  1.
         22   -1    0    0    0    0 -0.00000000000E+00 -0.00000000000E+00 -0.48017759922E+03  0.48017759922E+03  0.00000000000E+00 0. -1.
         24    2    1    2    0    0 -0.31807432262E+02 -0.21406820291E+02 -0.44046835669E+03  0.44938079005E+03  0.80378831301E+02 0.  0.
         25    2    1    2    0    0  0.41378332767E+02  0.42372426399E+02  0.14171390964E+03  0.19808434833E+03  0.12508792079E+03 0.  0.
        -24    2    1    2    0    0 -0.95709005053E+01 -0.20965606108E+02  0.23839955976E+03  0.25253517277E+03  0.80053136205E+02 0.  0.
        -11    1    3    3    0    0  0.25128603483E+02  0.52478550621E+01 -0.15075902273E+03  0.15292896924E+03  0.00000000000E+00 0.  1.
         12    1    3    3    0    0 -0.56936035745E+02 -0.26654675353E+02 -0.28970933395E+03  0.29645182081E+03  0.00000000000E+00 0. -1.
         13    1    5    5    0    0  0.44850222581E+01  0.82785483346E+01 -0.22725083595E+01  0.96857669510E+01  0.00000000000E+00 0. -1.
        -14    1    5    5    0    0 -0.14055922763E+02 -0.29244154442E+02  0.24067206812E+03  0.24284940582E+03  0.00000000000E+00 0.  1.
          5    1    4    4  501    0  0.15330306491E+01 -0.43384226045E+02  0.48804686564E+02  0.65451593435E+02  0.41800000000E+01 0.  1.
         -5    1    4    4    0  501  0.39845302118E+02  0.85756652444E+02  0.92909223078E+02  0.13263275490E+03  0.41800000000E+01 0.  1.
</event>
<event>
11    1  0.8551154E-009  0.2188795E+03  0.7561462E-02  0.1041922E+00
         22   -1    0    0    0    0  0.00000000000E+00  0.00000000000E+00  0.10160625878E+04  0.10160625878E+04  0.00000000000E+00 0. -1.
         22   -1    0    0    0    0 -0.00000000000E+00 -0.00000000000E+00 -0.38726113626E+03  0.38726113626E+03  0.00000000000E+00 0.  1.
         24    2    1    2    0    0 -0.18925474399E+02 -0.21619735563E+02 -0.32722706238E+03  0.33789353351E+03  0.79176404872E+02 0.  0.
         25    2    1    2    0    0  0.19132678850E+03 -0.13943798264E+02  0.27642380955E+03  0.35896723782E+03  0.12508791242E+03 0.  0.
        -24    2    1    2    0    0 -0.17240131410E+03  0.35563533827E+02  0.67960470433E+03  0.70646295270E+03  0.78996021048E+02 0.  0.
        -11    1    3    3    0    0 -0.21433410234E+02 -0.11044285329E+02 -0.32607347648E+03  0.32696372792E+03  0.00000000000E+00 0.  1.
         12    1    3    3    0    0  0.25079358351E+01 -0.10575450234E+02 -0.11535858989E+01  0.10929805589E+02  0.00000000000E+00 0. -1.
         13    1    5    5    0    0 -0.95743920483E+02  0.14078838862E+02  0.51003672708E+03  0.51913637417E+03  0.00000000000E+00 0. -1.
        -14    1    5    5    0    0 -0.76657393621E+02  0.21484694965E+02  0.16956797725E+03  0.18732657853E+03  0.00000000000E+00 0.  1.
          5    1    4    4  501    0  0.82145787859E+02  0.51073972614E+02  0.83153862773E+02  0.12762648015E+03  0.41800000000E+01 0.  1.
         -5    1    4    4    0  501  0.10918100064E+03 -0.65017770878E+02  0.19326994678E+03  0.23134075767E+03  0.41800000000E+01 0.  1.
</event>
<event>
11    1  0.8551154E-009  0.1928789E+03  0.7561462E-02  0.1059677E+00
         22   -1    0    0    0    0  0.00000000000E+00  0.00000000000E+00  0.52397726549E+03  0.52397726549E+03  0.00000000000E+00 0. -1.
         22   -1    0    0    0    0 -0.00000000000E+00 -0.00000000000E+00 -0.58522784997E+03  0.58522784997E+03  0.00000000000E+00 0.  1.
         24    2    1    2    0    0  0.14032100030E+03  0.25846121116E+02 -0.47356918658E+03  0.50017497973E+03  0.74493159255E+02 0.  0.
         25    2    1    2    0    0 -0.18249264968E+03 -0.69701046276E+02  0.55141658112E+02  0.23843082995E+03  0.12508739014E+03 0.  0.
        -24    2    1    2    0    0  0.42171649380E+02  0.43854925161E+02  0.35717694398E+03  0.37059930578E+03  0.77889496483E+02 0.  0.
        -13    1    3    3    0    0  0.13766930554E+03  0.36835084897E+02 -0.37857308903E+03  0.40450864626E+03  0.00000000000E+00 0.  1.
         14    1    3    3    0    0  0.26516947608E+01 -0.10988963781E+02 -0.94996097551E+02  0.95666333472E+02  0.00000000000E+00 0. -1.
         11    1    5    5    0    0  0.10530434196E+02 -0.22145220767E+02  0.67415942721E+02  0.71737090686E+02  0.00000000000E+00 0. -1.
        -12    1    5    5    0    0  0.31641215185E+02  0.66000145928E+02  0.28976100126E+03  0.29886221510E+03  0.00000000000E+00 0.  1.
          5    1    4    4  501    0 -0.15135256362E+03 -0.45172100316E+02 -0.13998073915E+02  0.15862388104E+03  0.41800000000E+01 0.  1.
         -5    1    4    4    0  501 -0.31140086052E+02 -0.24528945961E+02  0.69139732027E+02  0.79806948908E+02  0.41800000000E+01 0.  1.
</event>
<event>
11    1  0.8551154E-009  0.1297318E+03  0.7561462E-02  0.1119599E+00
         22   -1    0    0    0    0  0.00000000000E+00  0.00000000000E+00  0.62002937152E+03  0.62002937152E+03  0.00000000000E+00 0.  1.
         22   -1    0    0    0    0 -0.00000000000E+00 -0.00000000000E+00 -0.35935549763E+03  0.35935549763E+03  0.00000000000E+00 0.  1.
        -24    2    1    2    0    0  0.42151000483E+02 -0.14240732305E+02 -0.20223468316E+03  0.22333706376E+03  0.83672406918E+02 0.  0.
         25    2    1    2    0    0 -0.96817827644E+01 -0.44434129236E+01 -0.11544194810E+03  0.17055439166E+03  0.12509386995E+03 0.  0.
         24    2    1    2    0    0 -0.32469217719E+02  0.18684145229E+02  0.57835050515E+03  0.58549341372E+03  0.83125707984E+02 0.  0.
        -13    1    5    5    0    0 -0.30435110945E+02 -0.18045146773E+02  0.46454314326E+03  0.46588867259E+03  0.00000000000E+00 0.  1.
         14    1    5    5    0    0 -0.20341067740E+01  0.36729292002E+02  0.11380736189E+03  0.11960474113E+03  0.00000000000E+00 0. -1.
         11    1    3    3    0    0  0.97582096208E+01 -0.67140269910E+00  0.64508522512E+01  0.11716950600E+02  0.00000000000E+00 0. -1.
        -12    1    3    3    0    0  0.32392790862E+02 -0.13569329606E+02 -0.20868553541E+03  0.21162011316E+03  0.00000000000E+00 0.  1.
          5    1    4    4  501    0 -0.25472983720E+02 -0.20748946367E+02  0.16225063842E+02  0.36879761003E+02  0.41800000000E+01 0.  1.
         -5    1    4    4    0  501  0.15791200956E+02  0.16305533444E+02 -0.13166701194E+03  0.13367463066E+03  0.41800000000E+01 0.  1.
</event>
<event>
11    1  0.8551154E-009  0.1549576E+03  0.7561462E-02  0.1091918E+00
         22   -1    0    0    0    0  0.00000000000E+00  0.00000000000E+00  0.73092153282E+03  0.73092153282E+03  0.00000000000E+00 0.  1.
         22   -1    0    0    0    0 -0.00000000000E+00 -0.00000000000E+00 -0.15088908550E+03  0.15088908550E+03  0.00000000000E+00 0.  1.
         24    2    1    2    0    0  0.53150220663E+02  0.90451472088E+02 -0.78464892525E+02  0.15436525394E+03  0.81642375664E+02 0.  0.
         25    2    1    2    0    0 -0.56267565968E+02  0.28547771485E+00  0.14442102728E+03  0.19917110514E+03  0.12508227502E+03 0.  0.
        -24    2    1    2    0    0  0.31173453051E+01 -0.90736949803E+02  0.51407631257E+03  0.52827425924E+03  0.80971142570E+02 0.  0.
        -13    1    3    3    0    0  0.41233302236E+02  0.10546561821E+03 -0.71738331492E+02  0.13405062492E+03  0.00000000000E+00 0.  1.
         14    1    3    3    0    0  0.11916918428E+02 -0.15014146120E+02 -0.67265610327E+01  0.20314629011E+02  0.00000000000E+00 0. -1.
         13    1    5    5    0    0 -0.14179938596E+02 -0.90890146964E+02  0.30723311083E+03  0.32070901744E+03  0.00000000000E+00 0. -1.
        -14    1    5    5    0    0  0.17297283901E+02  0.15319716087E+00  0.20684320174E+03  0.20756524181E+03  0.00000000000E+00 0.  1.
          5    1    4    4  501    0 -0.55425085461E+02 -0.56490634128E+02  0.95537697630E+02  0.12412919041E+03  0.41800000000E+01 0.  1.
         -5    1    4    4    0  501 -0.84248050709E+00  0.56776111842E+02  0.48883329648E+02  0.75041914733E+02  0.41800000000E+01 0.  1.
</event>
<event>
11    1  0.8551154E-009  0.1384335E+03  0.7561462E-02  0.1109320E+00
         22   -1    0    0    0    0  0.00000000000E+00  0.00000000000E+00  0.65471611980E+03  0.65471611980E+03  0.00000000000E+00 0. -1.
         22   -1    0    0    0    0 -0.00000000000E+00 -0.00000000000E+00 -0.46727623253E+03  0.46727623253E+03  0.00000000000E+00 0. -1.
         24    2    1    2    0    0 -0.33774900899E+02 -0.45712355913E+02 -0.38367960385E+03  0.39783395921E+03  0.88495521203E+02 0.  0.
         25    2    1    2    0    0  0.14634566622E+02  0.10009444578E+03  0.17724838120E+02  0.16184613061E+03  0.12508769521E+03 0.  0.
        -24    2    1    2    0    0  0.19140334277E+02 -0.54382089863E+02  0.55339465301E+03  0.56231226251E+03  0.81398246263E+02 0.  0.
        -13    1    3    3    0    0 -0.50651833878E+02 -0.46471194612E+02 -0.16835590595E+03  0.18184853938E+03  0.00000000000E+00 0.  1.
         14    1    3    3    0    0  0.16876932980E+02  0.75883869840E+00 -0.21532369790E+03  0.21598541984E+03  0.00000000000E+00 0. -1.
         13    1    5    5    0    0 -0.19824199698E+02 -0.37572427375E+02  0.42430884855E+03  0.42643016445E+03  0.00000000000E+00 0. -1.
        -14    1    5    5    0    0  0.38964533975E+02 -0.16809662488E+02  0.12908580446E+03  0.13588209806E+03  0.00000000000E+00 0.  1.
          5    1    4    4  501    0 -0.29676513819E+02  0.54732007745E+02  0.59155335153E+02  0.85983220580E+02  0.41800000000E+01 0.  1.
         -5    1    4    4    0  501  0.44311080440E+02  0.45362438031E+02 -0.41430497033E+02  0.75862910030E+02  0.41800000000E+01 0.  1.
</event>
<event>
11    1  0.8551154E-009  0.1316655E+03  0.7561462E-02  0.1117239E+00
         22   -1    0    0    0    0  0.00000000000E+00  0.00000000000E+00  0.24455351434E+04  0.24455351434E+04  0.00000000000E+00 0.  1.
         22   -1    0    0    0    0 -0.00000000000E+00 -0.00000000000E+00 -0.76654667036E+03  0.76654667036E+03  0.00000000000E+00 0.  1.
         24    2    1    2    0    0  0.11691951579E+02 -0.39309166912E+02 -0.73884501594E+03  0.74479800780E+03  0.84558870068E+02 0.  0.
         25    2    1    2    0    0 -0.33171808304E+02  0.27330891658E+01  0.15434280090E+03  0.20143374827E+03  0.12508403619E+03 0.  0.
        -24    2    1    2    0    0  0.21479856725E+02  0.36576077747E+02  0.22634906881E+04  0.22658500577E+04  0.94271921353E+02 0.  0.
        -11    1    3    3    0    0  0.26952474930E+02 -0.22763523020E+02 -0.69124189665E+03  0.69214158492E+03  0.00000000000E+00 0.  1.
         12    1    3    3    0    0 -0.15260523351E+02 -0.16545643892E+02 -0.47603119291E+02  0.52656422884E+02  0.00000000000E+00 0. -1.
         11    1    5    5    0    0 -0.31353487776E+02  0.14380432869E+02  0.40190487811E+03  0.40338241049E+03  0.00000000000E+00 0. -1.
        -12    1    5    5    0    0  0.52833344501E+02  0.22195644878E+02  0.18615858100E+04  0.18624676472E+04  0.00000000000E+00 0.  1.
          5    1    4    4  501    0 -0.30780194473E+02 -0.58584495823E+02  0.64125089639E+02  0.92244582734E+02  0.41800000000E+01 0.  1.
         -5    1    4    4    0  501 -0.23916138311E+01  0.61317584989E+02  0.90217711257E+02  0.10918916553E+03  0.41800000000E+01 0.  1.
</event>
<event>
11    1  0.8551154E-009  0.1634941E+03  0.7561462E-02  0.1083836E+00
         22   -1    0    0    0    0  0.00000000000E+00  0.00000000000E+00  0.14687210129E+03  0.14687210129E+03  0.00000000000E+00 0.  1.
         22   -1    0    0    0    0 -0.00000000000E+00 -0.00000000000E+00 -0.12960261846E+04  0.12960261846E+04  0.00000000000E+00 0.  1.
         24    2    1    2    0    0 -0.22267924651E+02  0.10381711564E+03 -0.11621566944E+04  0.11698883734E+04  0.82199574399E+02 0.  0.
         25    2    1    2    0    0 -0.49485579857E+01 -0.95149348780E+02 -0.54317676132E+02  0.16636044749E+03  0.12508997462E+03 0.  0.
        -24    2    1    2    0    0  0.27216482637E+02 -0.86677668572E+01  0.67320287194E+02  0.10664946498E+03  0.77628733101E+02 0.  0.
        -11    1    3    3    0    0 -0.46718441126E+02  0.57293523020E+02 -0.86207014626E+03  0.86523412878E+03  0.00000000000E+00 0.  1.
         12    1    3    3    0    0  0.24450516475E+02  0.46523592618E+02 -0.30008654813E+03  0.30465424466E+03  0.00000000000E+00 0. -1.
         13    1    5    5    0    0  0.14108788068E+02  0.25318353658E+02 -0.12428750912E+01  0.29010716488E+02  0.00000000000E+00 0. -1.
        -14    1    5    5    0    0  0.13107694569E+02 -0.33986120515E+02  0.68563162285E+02  0.77638748490E+02  0.00000000000E+00 0.  1.
          5    1    4    4  501    0 -0.49507319454E+02 -0.10019595235E+03 -0.33525321838E+02  0.11675454232E+03  0.41800000000E+01 0. -1.
         -5    1    4    4    0  501  0.44558761468E+02  0.50466035741E+01 -0.20792354294E+02  0.49605905176E+02  0.41800000000E+01 0. -1.
</event>
<event>
11    1  0.8551154E-009  0.2407688E+03  0.7561462E-02  0.1028935E+00
         22   -1    0    0    0    0  0.00000000000E+00  0.00000000000E+00  0.21167433894E+04  0.21167433894E+04  0.00000000000E+00 0.  1.
         22   -1    0    0    0    0 -0.00000000000E+00 -0.00000000000E+00 -0.50386106226E+03  0.50386106226E+03  0.00000000000E+00 0.  1.
         24    2    1    2    0    0  0.19908363320E+02 -0.93796165455E+02 -0.44868058727E+03  0.46607359487E+03  0.81952808730E+02 0.  0.
         25    2    1    2    0    0  0.14942475387E+03 -0.42474441099E+02  0.21550805731E+03  0.29363845581E+03  0.12509190522E+03 0.  0.
        -24    2    1    2    0    0 -0.16933311719E+03  0.13627060655E+03  0.18460548571E+04  0.18608924009E+04  0.88082971087E+02 0.  0.
        -11    1    3    3    0    0 -0.52483235024E+01 -0.10002779690E+03 -0.35084093726E+03  0.36485951860E+03  0.00000000000E+00 0.  1.
         12    1    3    3    0    0  0.25156686822E+02  0.62316314428E+01 -0.97839650008E+02  0.10121407627E+03  0.00000000000E+00 0. -1.
         11    1    5    5    0    0 -0.40429089755E+02  0.36285281971E+02  0.21727802443E+03  0.22396623158E+03  0.00000000000E+00 0. -1.
        -12    1    5    5    0    0 -0.12890402743E+03  0.99985324583E+02  0.16287768326E+04  0.16369261694E+04  0.00000000000E+00 0.  1.
          5    1    4    4  501    0 -0.98742025753E+01  0.24328987877E+02  0.31476178068E+02  0.41202205200E+02  0.41800000000E+01 0. -1.
         -5    1    4    4    0  501  0.15929895644E+03 -0.66803428976E+02  0.18403187924E+03  0.25243625061E+03  0.41800000000E+01 0. -1.
</event>
<event>
11    1  0.9396269E-009  0.1889528E+03  0.7561462E-02  0.1062623E+00
         22   -1    0    0    0    0  0.00000000000E+00  0.00000000000E+00  0.17692126145E+04  0.17692126145E+04  0.00000000000E+00 0. -1.
         22   -1    0    0    0    0 -0.00000000000E+00 -0.00000000000E+00 -0.61674782686E+03  0.61674782686E+03  0.00000000000E+00 0.  1.
         24    2    1    2    0    0  0.46496248526E+02  0.11624563149E+03 -0.36669750903E+03  0.39493535256E+03  0.76367019089E+02 0.  0.
         25    2    1    2    0    0 -0.77706067006E+02 -0.20914934772E+03 -0.16353008105E+03  0.30359636514E+03  0.12508790116E+03 0.  0.
        -24    2    1    2    0    0  0.31209818480E+02  0.92903716224E+02  0.16826923777E+04  0.16874287237E+04  0.79730208652E+02 0.  0.
        -13    1    3    3    0    0  0.46774677440E+02  0.12632561276E+03 -0.35370974805E+03  0.37849255839E+03  0.00000000000E+00 0.  1.
         14    1    3    3    0    0 -0.27842891320E+00 -0.10079981264E+02 -0.12987760975E+02  0.16442794169E+02  0.00000000000E+00 0. -1.
         11    1    5    5    0    0  0.57339471324E+02  0.76046209875E+02  0.12746407386E+04  0.12781939812E+04  0.00000000000E+00 0. -1.
        -12    1    5    5    0    0 -0.26129652844E+02  0.16857506349E+02  0.40805163913E+03  0.40923474251E+03  0.00000000000E+00 0.  1.
          5    1    4    4  501    0 -0.67964362147E+02 -0.17972385247E+03 -0.18411808039E+03  0.26615175670E+03  0.41800000000E+01 0.  1.
         -5    1    4    4    0  501 -0.97417048590E+01 -0.29425495241E+02  0.20587999340E+02  0.37444608431E+02  0.41800000000E+01 0.  1.
</event>
<event>
11    1  0.8551154E-009  0.2799098E+03  0.7561462E-02  0.1009071E+00
         22   -1    0    0    0    0  0.00000000000E+00  0.00000000000E+00  0.10604854668E+04  0.10604854668E+04  0.00000000000E+00 0.  1.
         22   -1    0    0    0    0 -0.00000000000E+00 -0.00000000000E+00 -0.27950381013E+03  0.27950381013E+03  0.00000000000E+00 0. -1.
         24    2    1    2    0    0  0.64276910000E+02  0.25432509933E+01 -0.14649855693E+03  0.17986019391E+03  0.82157610023E+02 0.  0.
         25    2    1    2    0    0  0.12900910722E+03  0.17013118616E+03  0.64810754396E+02  0.25580373768E+03  0.12508856093E+03 0.  0.
        -24    2    1    2    0    0 -0.19328601722E+03 -0.17267443716E+03  0.86266945917E+03  0.90432534530E+03  0.80185963007E+02 0.  0.
        -13    1    3    3    0    0  0.18593605958E+02  0.28218904297E+02 -0.12590356107E+02  0.36063080971E+02  0.00000000000E+00 0.  1.
         14    1    3    3    0    0  0.45683304042E+02 -0.25675653304E+02 -0.13390820082E+03  0.14379711294E+03  0.00000000000E+00 0. -1.
         13    1    5    5    0    0  0.27568085068E+01 -0.11350029608E+02  0.96078201280E+02  0.96785556394E+02  0.00000000000E+00 0. -1.
        -14    1    5    5    0    0 -0.19604282573E+03 -0.16132440755E+03  0.76659125789E+03  0.80753978891E+03  0.00000000000E+00 0.  1.
          5    1    4    4  501    0 -0.10632256392E+02  0.79759359129E+02  0.13583049506E+02  0.81710292366E+02  0.41800000000E+01 0. -1.
         -5    1    4    4    0  501  0.13964136361E+03  0.90371827035E+02  0.51227704890E+02  0.17409344532E+03  0.41800000000E+01 0. -1.
</event>
<event>
11    1  0.8551154E-009  0.4582328E+03  0.7561462E-02  0.9492022E-01
         22   -1    0    0    0    0  0.00000000000E+00  0.00000000000E+00  0.28412625144E+03  0.28412625144E+03  0.00000000000E+00 0.  1.
         22   -1    0    0    0    0 -0.00000000000E+00 -0.00000000000E+00 -0.15337341751E+04  0.15337341751E+04  0.00000000000E+00 0.  1.
         24    2    1    2    0    0 -0.38056309668E+00 -0.62264562164E+02 -0.25507987172E+03  0.27531694989E+03  0.82804960077E+02 0.  0.
         25    2    1    2    0    0 -0.42086365363E+03 -0.78957176041E+02 -0.99555828242E+03  0.10909361521E+04  0.12507974962E+03 0.  0.
        -24    2    1    2    0    0  0.42124421673E+03  0.14122173820E+03  0.10302305197E+01  0.45160732447E+03  0.80980520329E+02 0.  0.
        -13    1    3    3    0    0 -0.15412171612E+02  0.16973507785E+02 -0.59033522106E+02  0.63329232844E+02  0.00000000000E+00 0.  1.
         14    1    3    3    0    0  0.15031608515E+02 -0.79238069950E+02 -0.19604634961E+03  0.21198771705E+03  0.00000000000E+00 0. -1.
         11    1    5    5    0    0  0.88627226668E+02  0.65132759586E+02 -0.80164295629E+01  0.11027839689E+03  0.00000000000E+00 0. -1.
        -12    1    5    5    0    0  0.33261699006E+03  0.76088978619E+02  0.90466600826E+01  0.34132892758E+03  0.00000000000E+00 0.  1.
          5    1    4    4  501    0 -0.15331321723E+03 -0.88759140840E+02 -0.43506932947E+03  0.46977220172E+03  0.41800000000E+01 0. -1.
         -5    1    4    4    0  501 -0.26755043640E+03  0.98019647996E+01 -0.56048895295E+03  0.62116395043E+03  0.41800000000E+01 0. -1.
</event>
<event>
11    1  0.8551154E-009  0.1589535E+03  0.7561462E-02  0.1088066E+00
         22   -1    0    0    0    0  0.00000000000E+00  0.00000000000E+00  0.24010405196E+03  0.24010405196E+03  0.00000000000E+00 0.  1.
         22   -1    0    0    0    0 -0.00000000000E+00 -0.00000000000E+00 -0.26831274590E+04  0.26831274590E+04  0.00000000000E+00 0. -1.
         24    2    1    2    0    0  0.64185516551E+02 -0.73997423245E+02 -0.24222450956E+04  0.24258948093E+04  0.89994016778E+02 0.  0.
         25    2    1    2    0    0 -0.55224141750E+02  0.84073658782E+02 -0.22556019543E+03  0.27684448617E+03  0.12508949528E+03 0.  0.
        -24    2    1    2    0    0 -0.89613748003E+01 -0.10076235536E+02  0.20478188405E+03  0.22049221550E+03  0.80618610117E+02 0.  0.
        -13    1    3    3    0    0  0.38585935406E+02  0.14236408978E+02 -0.76817356739E+03  0.76927380001E+03  0.00000000000E+00 0.  1.
         14    1    3    3    0    0  0.25599581144E+02 -0.88233832223E+02 -0.16540715283E+04  0.16566210093E+04  0.00000000000E+00 0. -1.
         13    1    5    5    0    0 -0.97298357323E+01 -0.11439723195E+02 -0.67147765450E+00  0.15032892350E+02  0.00000000000E+00 0. -1.
        -14    1    5    5    0    0  0.76846093205E+00  0.13634876590E+01  0.20545336171E+03  0.20545932315E+03  0.00000000000E+00 0.  1.
          5    1    4    4  501    0 -0.18885201510E+02  0.26499459094E+02  0.77977583005E+01  0.33721648876E+02  0.41800000000E+01 0.  1.
         -5    1    4    4    0  501 -0.36338940240E+02  0.57574199687E+02 -0.23335795373E+03  0.24312283730E+03  0.41800000000E+01 0.  1.
</event>
<event>
11    1  0.8551154E-009  0.1925690E+03  0.7561462E-02  0.1059906E+00
         22   -1    0    0    0    0  0.00000000000E+00  0.00000000000E+00  0.16673259918E+04  0.16673259918E+04  0.00000000000E+00 0. -1.
         22   -1    0    0    0    0 -0.00000000000E+00 -0.00000000000E+00 -0.52481649444E+03  0.52481649444E+03  0.00000000000E+00 0.  1.
         24    2    1    2    0    0  0.85902675463E+02 -0.11923247489E+03 -0.49334490975E+03  0.52046330753E+03  0.76793240523E+02 0.  0.
         25    2    1    2    0    0 -0.70595862142E+02  0.10704407712E+03  0.47207921055E+03  0.50491326334E+03  0.12504564072E+03 0.  0.
        -24    2    1    2    0    0 -0.15306813322E+02  0.12188397771E+02  0.11637751966E+04  0.11667659154E+04  0.81161182502E+02 0.  0.
        -13    1    3    3    0    0  0.20499399064E+02 -0.92808180149E+02 -0.29648159557E+03  0.31134373315E+03  0.00000000000E+00 0.  1.
         14    1    3    3    0    0  0.65403276399E+02 -0.26424294736E+02 -0.19686331419E+03  0.20911957438E+03  0.00000000000E+00 0. -1.
         13    1    5    5    0    0 -0.52205894073E+01  0.27558879502E+01  0.11332154394E+04  0.11332308156E+04  0.00000000000E+00 0. -1.
        -14    1    5    5    0    0 -0.10086223914E+02  0.94325098205E+01  0.30559757203E+02  0.33535099742E+02  0.00000000000E+00 0.  1.
          5    1    4    4  501    0 -0.62221260150E+02  0.18480299536E+02  0.33631125944E+03  0.34254305177E+03  0.41800000000E+01 0.  1.
         -5    1    4    4    0  501 -0.83746019913E+01  0.88563777579E+02  0.13576795111E+03  0.16237021157E+03  0.41800000000E+01 0.  1.
</event>
<event>
11    1  0.8551154E-009  0.1421492E+03  0.7561462E-02  0.1105182E+00
         22   -1    0    0    0    0  0.00000000000E+00  0.00000000000E+00  0.96636043011E+03  0.96636043011E+03  0.00000000000E+00 0.  1.
         22   -1    0    0    0    0 -0.00000000000E+00 -0.00000000000E+00 -0.27462337635E+03  0.27462337635E+03  0.00000000000E+00 0.  1.
        -24    2    1    2    0    0 -0.20143316848E+02 -0.15812116462E+02 -0.21653881833E+03  0.23246315508E+03  0.80587110535E+02 0.  0.
         25    2    1    2    0    0  0.28288603342E+02 -0.52071777291E+02  0.55355307250E+02  0.14907495845E+03  0.12508964037E+03 0.  0.
         24    2    1    2    0    0 -0.81452864936E+01  0.67883893753E+02  0.85292056484E+03  0.85944569293E+03  0.80615385892E+02 0.  0.
        -11    1    5    5    0    0  0.18722811253E+02  0.41413760657E+02  0.71553293388E+03  0.71697491079E+03  0.00000000000E+00 0.  1.
         12    1    5    5    0    0 -0.26868097747E+02  0.26470133096E+02  0.13738763095E+03  0.14247078213E+03  0.00000000000E+00 0. -1.
         13    1    3    3    0    0 -0.50618083566E+02 -0.40645683640E+01 -0.11277722915E+03  0.12368271712E+03  0.00000000000E+00 0. -1.
        -14    1    3    3    0    0  0.30474766718E+02 -0.11747548098E+02 -0.10376158918E+03  0.10878043796E+03  0.00000000000E+00 0.  1.
          5    1    4    4  501    0 -0.29644620978E+02 -0.32583313497E+02  0.72960259319E+02  0.85329641458E+02  0.41800000000E+01 0. -1.
         -5    1    4    4    0  501  0.57933224320E+02 -0.19488463794E+02 -0.17604952069E+02  0.63745316992E+02  0.41800000000E+01 0. -1.
</event>
<event>
11    1  0.8551154E-009  0.1323108E+03  0.7561462E-02  0.1116462E+00
         22   -1    0    0    0    0  0.00000000000E+00  0.00000000000E+00  0.65476970604E+03  0.65476970604E+03  0.00000000000E+00 0. -1.
         22   -1    0    0    0    0 -0.00000000000E+00 -0.00000000000E+00 -0.16146769262E+03  0.16146769262E+03  0.00000000000E+00 0.  1.
         24    2    1    2    0    0 -0.19537350426E+02 -0.25633929582E+02 -0.89500574676E+02  0.12467164124E+03  0.80584482715E+02 0.  0.
         25    2    1    2    0    0  0.49043627076E+02  0.53875017647E+02  0.53270773408E+02  0.15424649925E+03  0.12508562007E+03 0.  0.
        -24    2    1    2    0    0 -0.29506276650E+02 -0.28241088065E+02  0.52953181469E+03  0.53731925817E+03  0.81485354565E+02 0.  0.
        -11    1    3    3    0    0  0.16402186334E+02  0.15483337160E+02 -0.56569877058E+02  0.60900873857E+02  0.00000000000E+00 0.  1.
         12    1    3    3    0    0 -0.35939536760E+02 -0.41117266742E+02 -0.32930697618E+02  0.63770767382E+02  0.00000000000E+00 0. -1.
         11    1    5    5    0    0 -0.51740854907E+02 -0.37031070522E+02  0.30816549305E+03  0.31466551663E+03  0.00000000000E+00 0. -1.
        -12    1    5    5    0    0  0.22234578257E+02  0.87899824578E+01  0.22136632165E+03  0.22265374154E+03  0.00000000000E+00 0.  1.
          5    1    4    4  501    0  0.86840652621E+01 -0.10895165368E+02  0.73709313831E+02  0.75130905514E+02  0.41800000000E+01 0. -1.
         -5    1    4    4    0  501  0.40359561814E+02  0.64770183015E+02 -0.20438540422E+02  0.79115593736E+02  0.41800000000E+01 0. -1.
</event>
<event>
11    1  0.8551154E-009  0.1651825E+03  0.7561462E-02  0.1082302E+00
         22   -1    0    0    0    0  0.00000000000E+00  0.00000000000E+00  0.43906436609E+03  0.43906436609E+03  0.00000000000E+00 0.  1.
         22   -1    0    0    0    0 -0.00000000000E+00 -0.00000000000E+00 -0.11548264304E+03  0.11548264304E+03  0.00000000000E+00 0.  1.
         24    2    1    2    0    0  0.90734214398E+01 -0.26458746383E+02 -0.27295393291E+02  0.88753811292E+02  0.79685684330E+02 0.  0.
         25    2    1    2    0    0 -0.30076760957E+02 -0.90034939404E+02  0.15800716062E+03  0.22276811632E+03  0.12509384069E+03 0.  0.
        -24    2    1    2    0    0  0.21003339517E+02  0.11649368579E+03  0.19286995572E+03  0.24302508151E+03  0.88602772677E+02 0.  0.
        -13    1    3    3    0    0  0.23610933074E+02  0.10398265051E+02 -0.39603535539E+02  0.47265633434E+02  0.00000000000E+00 0.  1.
         14    1    3    3    0    0 -0.14537511634E+02 -0.36857011434E+02  0.12308142248E+02  0.41488177858E+02  0.00000000000E+00 0. -1.
         11    1    5    5    0    0  0.31988895672E+02  0.27597809889E+01  0.57690471907E+02  0.66023453304E+02  0.00000000000E+00 0. -1.
        -12    1    5    5    0    0 -0.10985556155E+02  0.11373390480E+03  0.13517948381E+03  0.17700162821E+03  0.00000000000E+00 0.  1.
          5    1    4    4  501    0  0.14228849664E+02 -0.37191740829E+01  0.11592625755E+03  0.11693015868E+03  0.41800000000E+01 0.  1.
         -5    1    4    4    0  501 -0.44305610620E+02 -0.86315765321E+02  0.42080903070E+02  0.10583795765E+03  0.41800000000E+01 0.  1.
</event>
<event>
11    1  0.8551154E-009  0.1757093E+03  0.7561462E-02  0.1073167E+00
         22   -1    0    0    0    0  0.00000000000E+00  0.00000000000E+00  0.39885054622E+03  0.39885054622E+03  0.00000000000E+00 0.  1.
         22   -1    0    0    0    0 -0.00000000000E+00 -0.00000000000E+00 -0.93944091064E+03  0.93944091064E+03  0.00000000000E+00 0. -1.
         24    2    1    2    0    0 -0.12178724146E+02  0.39216867579E+02 -0.72958834074E+03  0.73502278328E+03  0.79202657687E+02 0.  0.
         25    2    1    2    0    0  0.95680016557E+01 -0.15975881535E+03 -0.13827779114E+03  0.24571609272E+03  0.12506488300E+03 0.  0.
        -24    2    1    2    0    0  0.26107224902E+01  0.12054194777E+03  0.32727576746E+03  0.35755258085E+03  0.78722570218E+02 0.  0.
        -13    1    3    3    0    0  0.33028624949E+02  0.26224439978E+02 -0.34850048337E+03  0.35104301478E+03  0.00000000000E+00 0.  1.
         14    1    3    3    0    0 -0.45207349095E+02  0.12992427600E+02 -0.38108785737E+03  0.38397976850E+03  0.00000000000E+00 0. -1.
         11    1    5    5    0    0 -0.23349125743E+02  0.61120097979E+02  0.24040089359E+03  0.24914541474E+03  0.00000000000E+00 0. -1.
        -12    1    5    5    0    0  0.25959848233E+02  0.59421849790E+02  0.86874873869E+02  0.10840716610E+03  0.00000000000E+00 0.  1.
          5    1    4    4  501    0  0.17951522444E+02  0.12127911457E+02  0.39554225259E+01  0.22415645467E+02  0.41800000000E+01 0. -1.
         -5    1    4    4    0  501 -0.83835207879E+01 -0.17188672680E+03 -0.14223321367E+03  0.22330044725E+03  0.41800000000E+01 0. -1.
</event>
<event>
11    1  0.8551154E-009  0.2188756E+03  0.7561462E-02  0.1041924E+00
         22   -1    0    0    0    0  0.00000000000E+00  0.00000000000E+00  0.17252052969E+03  0.17252052969E+03  0.00000000000E+00 0.  1.
         22   -1    0    0    0    0 -0.00000000000E+00 -0.00000000000E+00 -0.83381846905E+03  0.83381846905E+03  0.00000000000E+00 0. -1.
         24    2    1    2    0    0 -0.70968238442E+01 -0.52559590444E+01 -0.13248359434E+03  0.15620449057E+03  0.82279706435E+02 0.  0.
         25    2    1    2    0    0 -0.31978081458E+02 -0.17072662785E+03 -0.60279282583E+03  0.63966899721E+03  0.12508819276E+03 0.  0.
        -24    2    1    2    0    0  0.39074905302E+02  0.17598258690E+03  0.73978480803E+02  0.21046551096E+03  0.79537391002E+02 0.  0.
        -11    1    3    3    0    0  0.24991018342E+02 -0.87323285834E+01 -0.80742448850E+01  0.27676668707E+02  0.00000000000E+00 0.  1.
         12    1    3    3    0    0 -0.32087842186E+02  0.34763695390E+01 -0.12440934945E+03  0.12852782186E+03  0.00000000000E+00 0. -1.
         11    1    5    5    0    0  0.52810847053E+01 -0.49774873432E+01 -0.63227860099E+01  0.96251160431E+01  0.00000000000E+00 0. -1.
        -12    1    5    5    0    0  0.33793820597E+02  0.18096007424E+03  0.80301266813E+02  0.20084039492E+03  0.00000000000E+00 0.  1.
          5    1    4    4  501    0  0.37382919897E+02 -0.10622251726E+03 -0.24754176306E+03  0.27198364423E+03  0.41800000000E+01 0.  1.
         -5    1    4    4    0  501 -0.69361001355E+02 -0.64504110590E+02 -0.35525106277E+03  0.36768535297E+03  0.41800000000E+01 0.  1.
</event>
<event>
11    1  0.8551154E-009  0.1340157E+03  0.7561462E-02  0.1114431E+00
         22   -1    0    0    0    0  0.00000000000E+00  0.00000000000E+00  0.65478634513E+03  0.65478634513E+03  0.00000000000E+00 0. -1.
         22   -1    0    0    0    0 -0.00000000000E+00 -0.00000000000E+00 -0.58683138685E+03  0.58683138685E+03  0.00000000000E+00 0. -1.
        -24    2    1    2    0    0 -0.35002820594E+02 -0.33300096272E+02 -0.55993596123E+03  0.56773390009E+03  0.80370434621E+02 0.  0.
         25    2    1    2    0    0  0.29836655335E+02  0.20169519073E+02  0.19983005706E+03  0.23848845011E+03  0.12509058169E+03 0.  0.
         24    2    1    2    0    0  0.51661652587E+01  0.13130577199E+02  0.42806086246E+03  0.43539538178E+03  0.78319443240E+02 0.  0.
        -13    1    5    5    0    0  0.21800653502E+02  0.48035191929E+01  0.32678094062E+02  0.39575246320E+02  0.00000000000E+00 0.  1.
         14    1    5    5    0    0 -0.16634488244E+02  0.83270580060E+01  0.39538276839E+03  0.39582013546E+03  0.00000000000E+00 0. -1.
         11    1    3    3    0    0  0.67836967258E+01  0.21164204984E+02 -0.84780212920E+02  0.87644889278E+02  0.00000000000E+00 0. -1.
        -12    1    3    3    0    0 -0.41786517320E+02 -0.54464301256E+02 -0.47515574832E+03  0.48008901081E+03  0.00000000000E+00 0.  1.
          5    1    4    4  501    0  0.37587329626E+02 -0.28143660916E+02  0.17907048420E+03  0.18517176812E+03  0.41800000000E+01 0. -1.
         -5    1    4    4    0  501 -0.77506742904E+01  0.48313179989E+02  0.20759572868E+02  0.53316681988E+02  0.41800000000E+01 0. -1.
</event>
<event>
11    1  0.8551154E-009  0.1303118E+03  0.7561462E-02  0.1118886E+00
         22   -1    0    0    0    0  0.00000000000E+00  0.00000000000E+00  0.18741882727E+03  0.18741882727E+03  0.00000000000E+00 0.  1.
         22   -1    0    0    0    0 -0.00000000000E+00 -0.00000000000E+00 -0.30431475980E+03  0.30431475980E+03  0.00000000000E+00 0.  1.
        -24    2    1    2    0    0  0.29148188578E+01  0.33844581652E+02 -0.20102193421E+03  0.21822881610E+03  0.77846298993E+02 0.  0.
         25    2    1    2    0    0  0.34038642198E+02 -0.26070246980E+02 -0.23471325671E+02  0.13429817938E+03  0.12508721324E+03 0.  0.
         24    2    1    2    0    0 -0.36953461055E+02 -0.77743346717E+01  0.10759732735E+03  0.13920659159E+03  0.79845423937E+02 0.  0.
        -13    1    5    5    0    0  0.57862560273E+01  0.86423827967E+01  0.89296714440E+02  0.89900360116E+02  0.00000000000E+00 0.  1.
         14    1    5    5    0    0 -0.42739717083E+02 -0.16416717468E+02  0.18300612915E+02  0.49306231470E+02  0.00000000000E+00 0. -1.
         11    1    3    3    0    0  0.24706374267E+02  0.63033228476E+01 -0.16446190889E+02  0.30341621629E+02  0.00000000000E+00 0. -1.
        -12    1    3    3    0    0 -0.21791555409E+02  0.27541258804E+02 -0.18457574332E+03  0.18788719447E+03  0.00000000000E+00 0.  1.
          5    1    4    4  501    0 -0.45747603180E+02 -0.14433742817E+02 -0.23451589916E+02  0.53559551884E+02  0.41800000000E+01 0. -1.
         -5    1    4    4    0  501  0.79786245377E+02 -0.11636504163E+02 -0.19735754904E-01  0.80738627497E+02  0.41800000000E+01 0. -1.
</event>
<event>
11    1  0.8551154E-009  0.1301900E+03  0.7561462E-02  0.1119036E+00
         22   -1    0    0    0    0  0.00000000000E+00  0.00000000000E+00  0.95026480430E+02  0.95026480430E+02  0.00000000000E+00 0. -1.
         22   -1    0    0    0    0 -0.00000000000E+00 -0.00000000000E+00 -0.93571833527E+03  0.93571833527E+03  0.00000000000E+00 0. -1.
        -24    2    1    2    0    0  0.32986705767E+02 -0.83464032702E+01 -0.64929170734E+03  0.65502550722E+03  0.79504142550E+02 0.  0.
         25    2    1    2    0    0 -0.52909464142E+02 -0.16148212297E+02 -0.24059982742E+03  0.27676257425E+03  0.12509624054E+03 0.  0.
         24    2    1    2    0    0  0.19922758375E+02  0.24494615568E+02  0.49199679918E+02  0.98956734226E+02  0.79843122757E+02 0.  0.
        -11    1    5    5    0    0  0.23213988158E+02  0.41932534532E+02  0.13786204576E+01  0.47949215769E+02  0.00000000000E+00 0.  1.
         12    1    5    5    0    0 -0.32912297833E+01 -0.17437918964E+02  0.47821059460E+02  0.51007518458E+02  0.00000000000E+00 0. -1.
         11    1    3    3    0    0  0.47340514956E+02  0.16845757347E+01 -0.61196025077E+03  0.61379093401E+03  0.00000000000E+00 0. -1.
        -12    1    3    3    0    0 -0.14353809190E+02 -0.10030979005E+02 -0.37331456574E+02  0.41234573212E+02  0.00000000000E+00 0.  1.
          5    1    4    4  501    0 -0.89898391501E+02  0.55104846562E+01 -0.19005732615E+03  0.21036003864E+03  0.41800000000E+01 0.  1.
         -5    1    4    4    0  501  0.36988927359E+02 -0.21658696954E+02 -0.50542501269E+02  0.66402535610E+02  0.41800000000E+01 0.  1.
</event>
<event>
11    1  0.8551154E-009  0.2662756E+03  0.7561462E-02  0.1015569E+00
         22   -1    0    0    0    0  0.00000000000E+00  0.00000000000E+00  0.83080394347E+03  0.83080394347E+03  0.00000000000E+00 0.  1.
         22   -1    0    0    0    0 -0.00000000000E+00 -0.00000000000E+00 -0.28455291376E+03  0.28455291376E+03  0.00000000000E+00 0. -1.
        -24    2    1    2    0    0  0.46865330782E+02  0.12575573643E+03 -0.14135183264E+03  0.21134502467E+03  0.81703821125E+02 0.  0.
         25    2    1    2    0    0  0.13278986140E+03 -0.25725278933E+03  0.23561348940E+03  0.39366740046E+03  0.12509260925E+03 0.  0.
         24    2    1    2    0    0 -0.17965519218E+03  0.13149705290E+03  0.45198937296E+03  0.51034443210E+03  0.81176247221E+02 0.  0.
        -11    1    5    5    0    0 -0.94440824822E+02  0.10899900081E+03  0.32715138501E+03  0.35753025087E+03  0.00000000000E+00 0.  1.
         12    1    5    5    0    0 -0.85214367360E+02  0.22498052095E+02  0.12483798795E+03  0.15281418124E+03  0.00000000000E+00 0. -1.
         13    1    3    3    0    0  0.48861123276E+02  0.11589273180E+03 -0.15160161539E+03  0.19698117788E+03  0.00000000000E+00 0. -1.
        -14    1    3    3    0    0 -0.19957924941E+01  0.98630046295E+01  0.10249782749E+02  0.14363846783E+02  0.00000000000E+00 0.  1.
          5    1    4    4  501    0  0.11726499279E+03 -0.17190834502E+03  0.95913261640E+02  0.22917326149E+03  0.41800000000E+01 0. -1.
         -5    1    4    4    0  501  0.15524868608E+02 -0.85344444313E+02  0.13970022776E+03  0.16449413898E+03  0.41800000000E+01 0. -1.
</event>
<event>
11    1  0.8551154E-009  0.4936306E+03  0.7561462E-02  0.9407868E-01
         22   -1    0    0    0    0  0.00000000000E+00  0.00000000000E+00  0.37876786757E+03  0.37876786757E+03  0.00000000000E+00 0.  1.
         22   -1    0    0    0    0 -0.00000000000E+00 -0.00000000000E+00 -0.12748067217E+04  0.12748067217E+04  0.00000000000E+00 0.  1.
        -24    2    1    2    0    0 -0.36055859633E+03  0.22118000804E+03 -0.46197402066E+03  0.63149385542E+03  0.80258309954E+02 0.  0.
         25    2    1    2    0    0  0.39116945064E+03 -0.49179828408E+03 -0.31908791342E+03  0.71578413442E+03  0.12510291466E+03 0.  0.
         24    2    1    2    0    0 -0.30610854308E+02  0.27061827604E+03 -0.11497692007E+03  0.30629659944E+03  0.80166320551E+02 0.  0.
        -11    1    5    5    0    0  0.41466586246E+01  0.12811767672E+03 -0.15615789252E+02  0.12913243876E+03  0.00000000000E+00 0.  1.
         12    1    5    5    0    0 -0.34757512932E+02  0.14250059932E+03 -0.99361130817E+02  0.17716416068E+03  0.00000000000E+00 0. -1.
         13    1    3    3    0    0 -0.14906534494E+03  0.97520060994E+02 -0.13808731526E+03  0.22538577150E+03  0.00000000000E+00 0. -1.
        -14    1    3    3    0    0 -0.21149325139E+03  0.12365994705E+03 -0.32388670540E+03  0.40610808392E+03  0.00000000000E+00 0.  1.
          5    1    4    4  501    0  0.25683737222E+03 -0.32920105855E+03 -0.14417510516E+03  0.44174959657E+03  0.41800000000E+01 0. -1.
         -5    1    4    4    0  501  0.13433207842E+03 -0.16259722553E+03 -0.17491280826E+03  0.27403453786E+03  0.41800000000E+01 0. -1.
</event>
<event>
11    1  0.8551154E-009  0.2319271E+03  0.7561462E-02  0.1033993E+00
         22   -1    0    0    0    0  0.00000000000E+00  0.00000000000E+00  0.20232704430E+03  0.20232704430E+03  0.00000000000E+00 0. -1.
         22   -1    0    0    0    0 -0.00000000000E+00 -0.00000000000E+00 -0.19709786655E+04  0.19709786655E+04  0.00000000000E+00 0.  1.
         24    2    1    2    0    0  0.10221161557E+03 -0.16438141625E+03 -0.18014320538E+04  0.18136642648E+04  0.82171505889E+02 0.  0.
         25    2    1    2    0    0 -0.11669283808E+03  0.21036662075E+03  0.42476403936E+02  0.27444900234E+03  0.12508667558E+03 0.  0.
        -24    2    1    2    0    0  0.14481222516E+02 -0.45985204495E+02 -0.96959713451E+01  0.85192442731E+02  0.69565764569E+02 0.  0.
        -13    1    3    3    0    0  0.82276835203E+02 -0.14046802194E+03 -0.11472840898E+04  0.11587758738E+04  0.00000000000E+00 0.  1.
         14    1    3    3    0    0  0.19934780363E+02 -0.23913394311E+02 -0.65414796399E+03  0.65488839101E+03  0.00000000000E+00 0. -1.
         13    1    5    5    0    0  0.25765152499E+02 -0.48399928308E+02  0.15921922193E+02  0.57095566814E+02  0.00000000000E+00 0. -1.
        -14    1    5    5    0    0 -0.11283929983E+02  0.24147238131E+01 -0.25617893538E+02  0.28096875917E+02  0.00000000000E+00 0.  1.
          5    1    4    4  501    0 -0.25537040426E+02  0.95708539719E+02  0.75034442204E+02  0.12433786602E+03  0.41800000000E+01 0.  1.
         -5    1    4    4    0  501 -0.91155797656E+02  0.11465808103E+03 -0.32558038268E+02  0.15011113632E+03  0.41800000000E+01 0.  1.
</event>
<event>
11    1  0.8551154E-009  0.2034532E+03  0.7561462E-02  0.1052108E+00
         22   -1    0    0    0    0  0.00000000000E+00  0.00000000000E+00  0.53726301321E+03  0.53726301321E+03  0.00000000000E+00 0.  1.
         22   -1    0    0    0    0 -0.00000000000E+00 -0.00000000000E+00 -0.43036800699E+03  0.43036800699E+03  0.00000000000E+00 0.  1.
        -24    2    1    2    0    0  0.37221446221E+02  0.21449306387E+01 -0.34244932798E+03  0.35365001173E+03  0.80042187491E+02 0.  0.
         25    2    1    2    0    0  0.12698651928E+03 -0.47052852143E+02  0.83490377580E+02  0.20238121814E+03  0.12509183560E+03 0.  0.
         24    2    1    2    0    0 -0.16420796550E+03  0.44907921504E+02  0.36585395662E+03  0.41159979033E+03  0.81143653315E+02 0.  0.
        -11    1    5    5    0    0 -0.11777449289E+03  0.68757740565E+02  0.26258174119E+03  0.29588448569E+03  0.00000000000E+00 0.  1.
         12    1    5    5    0    0 -0.46433472615E+02 -0.23849819061E+02  0.10327221543E+03  0.11571530464E+03  0.00000000000E+00 0. -1.
         11    1    3    3    0    0  0.18664620618E+02 -0.23808915663E+00 -0.10986036726E+02  0.21659126303E+02  0.00000000000E+00 0. -1.
        -12    1    3    3    0    0  0.18556825604E+02  0.23830197953E+01 -0.33146329125E+03  0.33199088543E+03  0.00000000000E+00 0.  1.
          5    1    4    4  501    0  0.65601909133E+02 -0.11738880030E+01 -0.24271135194E+02  0.70082443583E+02  0.41800000000E+01 0. -1.
         -5    1    4    4    0  501  0.61384610150E+02 -0.45878964140E+02  0.10776151277E+03  0.13229877456E+03  0.41800000000E+01 0. -1.
</event>
<event>
11    1  0.8551154E-009  0.1285779E+03  0.7561462E-02  0.1121029E+00
         22   -1    0    0    0    0  0.00000000000E+00  0.00000000000E+00  0.18085830256E+04  0.18085830256E+04  0.00000000000E+00 0. -1.
         22   -1    0    0    0    0 -0.00000000000E+00 -0.00000000000E+00 -0.10907280382E+04  0.10907280382E+04  0.00000000000E+00 0. -1.
         24    2    1    2    0    0 -0.17793405957E+02 -0.66990591004E+01 -0.10805230281E+04  0.10835880730E+04  0.79193529511E+02 0.  0.
         25    2    1    2    0    0  0.40932202691E+02  0.18680994707E+02  0.62546686720E+03  0.63943840628E+03  0.12509296012E+03 0.  0.
        -24    2    1    2    0    0 -0.23138796735E+02 -0.11981935607E+02  0.11729111483E+04  0.11762845845E+04  0.85122801382E+02 0.  0.
        -13    1    3    3    0    0  0.29416595540E+02  0.86764352799E+01 -0.50330493404E+03  0.50423850829E+03  0.00000000000E+00 0.  1.
         14    1    3    3    0    0 -0.47210001497E+02 -0.15375494380E+02 -0.57721809404E+03  0.57934956473E+03  0.00000000000E+00 0. -1.
         11    1    5    5    0    0 -0.13676791920E+02  0.70724149860E+01  0.11052590322E+04  0.11053662750E+04  0.00000000000E+00 0. -1.
        -12    1    5    5    0    0 -0.94620048151E+01 -0.19054350593E+02  0.67652116065E+02  0.70918309481E+02  0.00000000000E+00 0.  1.
          5    1    4    4  501    0  0.49050447261E+02 -0.39442393747E+02  0.19448810349E+03  0.20446208352E+03  0.41800000000E+01 0.  1.
         -5    1    4    4    0  501 -0.81182445692E+01  0.58123388454E+02  0.43097876372E+03  0.43497632275E+03  0.41800000000E+01 0.  1.
</event>
<event>
11    1  0.8551154E-009  0.1395073E+03  0.7561462E-02  0.1108110E+00
         22   -1    0    0    0    0  0.00000000000E+00  0.00000000000E+00  0.10551064469E+03  0.10551064469E+03  0.00000000000E+00 0. -1.
         22   -1    0    0    0    0 -0.00000000000E+00 -0.00000000000E+00 -0.56388872593E+03  0.56388872593E+03  0.00000000000E+00 0. -1.
        -24    2    1    2    0    0 -0.41159831795E+01  0.22353863968E+02 -0.27428379424E+03  0.28765482110E+03  0.83648429546E+02 0.  0.
         25    2    1    2    0    0  0.34824606171E+02 -0.73278125642E+02 -0.23044146568E+03  0.27446916914E+03  0.12509044252E+03 0.  0.
         24    2    1    2    0    0 -0.30708622991E+02  0.50924261674E+02  0.46347178691E+02  0.10727538038E+03  0.76312818779E+02 0.  0.
        -11    1    5    5    0    0 -0.32478055812E+02 -0.46156342818E+01 -0.30231764124E+01  0.32943402750E+02  0.00000000000E+00 0.  1.
         12    1    5    5    0    0  0.17694328206E+01  0.55539895956E+02  0.49370355103E+02  0.74331977630E+02  0.00000000000E+00 0. -1.
         13    1    3    3    0    0  0.38387403888E+02  0.79565343039E+01 -0.16334179774E+03  0.16798048132E+03  0.00000000000E+00 0. -1.
        -14    1    3    3    0    0 -0.42503387068E+02  0.14397329664E+02 -0.11094199650E+03  0.11967433978E+03  0.00000000000E+00 0.  1.
          5    1    4    4  501    0 -0.42086494945E+02  0.64479052050E+00 -0.62538120510E+02  0.75499521379E+02  0.41800000000E+01 0. -1.
         -5    1    4    4    0  501  0.76911101116E+02 -0.73922916162E+02 -0.16790334517E+03  0.19896964776E+03  0.41800000000E+01 0. -1.
</event>
<event>
11    1  0.8551154E-009  0.1627842E+03  0.7561462E-02  0.1084487E+00
         22   -1    0    0    0    0  0.00000000000E+00  0.00000000000E+00  0.38560590096E+03  0.38560590096E+03  0.00000000000E+00 0. -1.
         22   -1    0    0    0    0 -0.00000000000E+00 -0.00000000000E+00 -0.38338562164E+03  0.38338562164E+03  0.00000000000E+00 0.  1.
        -24    2    1    2    0    0 -0.55334939572E+02  0.59982096407E+02 -0.18663786866E+03  0.21891591730E+03  0.80191504559E+02 0.  0.
         25    2    1    2    0    0 -0.27757022040E+01 -0.14461345668E+03 -0.11251003445E+03  0.22186789006E+03  0.12508435719E+03 0.  0.
         24    2    1    2    0    0  0.58110641776E+02  0.84631360272E+02  0.30136818244E+03  0.32820771524E+03  0.79738379271E+02 0.  0.
        -11    1    5    5    0    0  0.54759927709E+02  0.63791116648E+02  0.12537421155E+03  0.15095247320E+03  0.00000000000E+00 0.  1.
         12    1    5    5    0    0  0.33507140668E+01  0.20840243624E+02  0.17599397089E+03  0.17725524203E+03  0.00000000000E+00 0. -1.
         13    1    3    3    0    0  0.58084574416E+01 -0.41384771220E+01 -0.79808743270E+02  0.80126778752E+02  0.00000000000E+00 0. -1.
        -14    1    3    3    0    0 -0.61143397013E+02  0.64120573529E+02 -0.10682912539E+03  0.13878913855E+03  0.00000000000E+00 0.  1.
          5    1    4    4  501    0 -0.34589969402E+02 -0.52106632390E+02 -0.10674020806E+03  0.12378413282E+03  0.41800000000E+01 0. -1.
         -5    1    4    4    0  501  0.31814267198E+02 -0.92506824289E+02 -0.57698263907E+01  0.98083757238E+02  0.41800000000E+01 0. -1.
</event>
<event>
11    1  0.8551154E-009  0.1318968E+03  0.7561462E-02  0.1116960E+00
         22   -1    0    0    0    0  0.00000000000E+00  0.00000000000E+00  0.36145635350E+03  0.36145635350E+03  0.00000000000E+00 0.  1.
         22   -1    0    0    0    0 -0.00000000000E+00 -0.00000000000E+00 -0.12922473797E+04  0.12922473797E+04  0.00000000000E+00 0.  1.
        -24    2    1    2    0    0  0.16382865243E+02  0.11742214834E+02 -0.12338555183E+04  0.12364844674E+04  0.78026406206E+02 0.  0.
         25    2    1    2    0    0 -0.49013998499E+01  0.30550351755E+02  0.33740705662E+02  0.13319772211E+03  0.12508337317E+03 0.  0.
         24    2    1    2    0    0 -0.11481465393E+02 -0.42292566588E+02  0.26932378648E+03  0.28402154371E+03  0.78819097260E+02 0.  0.
        -13    1    5    5    0    0 -0.15685261919E+02 -0.26027421215E+02  0.26491612203E+03  0.26665334389E+03  0.00000000000E+00 0.  1.
         14    1    5    5    0    0  0.42037965266E+01 -0.16265145373E+02  0.44076644529E+01  0.17368199825E+02  0.00000000000E+00 0. -1.
         13    1    3    3    0    0 -0.27992996079E+01 -0.16366391457E+02 -0.63519476113E+02  0.65653778972E+02  0.00000000000E+00 0. -1.
        -14    1    3    3    0    0  0.19182164850E+02  0.28108606291E+02 -0.11703360422E+04  0.11708306884E+04  0.00000000000E+00 0.  1.
          5    1    4    4  501    0 -0.10593631126E+02  0.78929005907E+02  0.17164132855E+02  0.81572623168E+02  0.41800000000E+01 0. -1.
         -5    1    4    4    0  501  0.56922312762E+01 -0.48378654152E+02  0.16576572807E+02  0.51625098939E+02  0.41800000000E+01 0. -1.
</event>
<event>
11    1  0.8551154E-009  0.1286170E+03  0.7561462E-02  0.1120980E+00
         22   -1    0    0    0    0  0.00000000000E+00  0.00000000000E+00  0.26898438047E+03  0.26898438047E+03  0.00000000000E+00 0. -1.
         22   -1    0    0    0    0 -0.00000000000E+00 -0.00000000000E+00 -0.48402106369E+03  0.48402106369E+03  0.00000000000E+00 0.  1.
         24    2    1    2    0    0  0.19758000435E+02  0.20082505246E+02 -0.35228495465E+03  0.36245483051E+03  0.80468188064E+02 0.  0.
         25    2    1    2    0    0 -0.15823442184E+02  0.10960296367E+02 -0.85012697634E+02  0.15246436302E+03  0.12509082226E+03 0.  0.
        -24    2    1    2    0    0 -0.39345582512E+01 -0.31042801613E+02  0.22226096907E+03  0.23808625063E+03  0.79410251787E+02 0.  0.
        -13    1    3    3    0    0 -0.18664831199E+02  0.15859981330E+02 -0.27454327301E+03  0.27563367662E+03  0.00000000000E+00 0.  1.
         14    1    3    3    0    0  0.38422831634E+02  0.42225239163E+01 -0.77741681639E+02  0.86821153892E+02  0.00000000000E+00 0. -1.
         13    1    5    5    0    0 -0.28120424571E+02  0.14490984464E+02  0.11172116702E+03  0.11611359123E+03  0.00000000000E+00 0. -1.
        -14    1    5    5    0    0  0.24185866320E+02 -0.45533786078E+02  0.11053980205E+03  0.12197265940E+03  0.00000000000E+00 0.  1.
          5    1    4    4  501    0 -0.57254626767E+02 -0.27534519771E+02 -0.68234933733E+02  0.93325884120E+02  0.41800000000E+01 0.  1.
         -5    1    4    4    0  501  0.41431184583E+02  0.38494816138E+02 -0.16777763901E+02  0.59138478903E+02  0.41800000000E+01 0.  1.
</event>
<event>
11    1  0.8551154E-009  0.2291333E+03  0.7561462E-02  0.1035642E+00
         22   -1    0    0    0    0  0.00000000000E+00  0.00000000000E+00  0.15950644372E+04  0.15950644372E+04  0.00000000000E+00 0.  1.
         22   -1    0    0    0    0 -0.00000000000E+00 -0.00000000000E+00 -0.14071012265E+03  0.14071012265E+03  0.00000000000E+00 0.  1.
         24    2    1    2    0    0 -0.31110799381E+02  0.19061862882E+03 -0.29348546652E+02  0.21184204648E+03  0.81929066719E+02 0.  0.
         25    2    1    2    0    0  0.26000773816E+02 -0.18149523110E+03  0.66093914850E+03  0.69721157739E+03  0.12508743532E+03 0.  0.
        -24    2    1    2    0    0  0.51100255643E+01 -0.91233977232E+01  0.82276371272E+03  0.82672093600E+03  0.80112610152E+02 0.  0.
        -13    1    3    3    0    0 -0.43705028560E+02  0.82465077107E+02 -0.41770080342E+02  0.10225144535E+03  0.00000000000E+00 0.  1.
         14    1    3    3    0    0  0.12594229179E+02  0.10815355172E+03  0.12421533690E+02  0.10959060113E+03  0.00000000000E+00 0. -1.
         13    1    5    5    0    0 -0.16410424345E+02 -0.16995816468E+02  0.75592164630E+02  0.79198075470E+02  0.00000000000E+00 0. -1.
        -14    1    5    5    0    0  0.21520449910E+02  0.78724187450E+01  0.74717154809E+03  0.74752286053E+03  0.00000000000E+00 0.  1.
          5    1    4    4  501    0  0.71443776290E+01 -0.14536261458E+03  0.29487484777E+03  0.32886164279E+03  0.41800000000E+01 0. -1.
         -5    1    4    4    0  501  0.18856396187E+02 -0.36132616524E+02  0.36606430072E+03  0.36834993460E+03  0.41800000000E+01 0. -1.
</event>
<event>
11    1  0.8551154E-009  0.1696853E+03  0.7561462E-02  0.1078306E+00
         22   -1    0    0    0    0  0.00000000000E+00  0.00000000000E+00  0.47061653981E+03  0.47061653981E+03  0.00000000000E+00 0. -1.
         22   -1    0    0    0    0 -0.00000000000E+00 -0.00000000000E+00 -0.10835029019E+03  0.10835029019E+03  0.00000000000E+00 0. -1.
        -24    2    1    2    0    0  0.61564959039E+02 -0.14312867791E+02  0.14425879678E+02  0.10837184155E+03  0.86840357386E+02 0.  0.
         25    2    1    2    0    0  0.73406060437E+02 -0.36355431168E+02  0.14007128026E+03  0.20488445837E+03  0.12509001017E+03 0.  0.
         24    2    1    2    0    0 -0.13497101948E+03  0.50668298959E+02  0.20776908968E+03  0.26571053007E+03  0.81545315913E+02 0.  0.
        -13    1    5    5    0    0 -0.24278485380E+02  0.45723627175E+02  0.91292467513E+02  0.10494955721E+03  0.00000000000E+00 0.  1.
         14    1    5    5    0    0 -0.11069253410E+03  0.49446717841E+01  0.11647662216E+03  0.16076097286E+03  0.00000000000E+00 0. -1.
         11    1    3    3    0    0  0.51755553878E+02 -0.48275262429E+02  0.17441828387E+02  0.72892768484E+02  0.00000000000E+00 0. -1.
        -12    1    3    3    0    0  0.98094051608E+01  0.33962394637E+02 -0.30159487089E+01  0.35479073067E+02  0.00000000000E+00 0.  1.
          5    1    4    4  501    0  0.91520129469E+02  0.16828435481E+02  0.85055597205E+02  0.12613903977E+03  0.41800000000E+01 0. -1.
         -5    1    4    4    0  501 -0.18114069032E+02 -0.53183866648E+02  0.55015683057E+02  0.78745418602E+02  0.41800000000E+01 0. -1.
</event>
<event>
11    1  0.8551154E-009  0.2339082E+03  0.7561462E-02  0.1032839E+00
         22   -1    0    0    0    0  0.00000000000E+00  0.00000000000E+00  0.18067976005E+03  0.18067976005E+03  0.00000000000E+00 0.  1.
         22   -1    0    0    0    0 -0.00000000000E+00 -0.00000000000E+00 -0.83012305844E+03  0.83012305844E+03  0.00000000000E+00 0.  1.
        -24    2    1    2    0    0  0.69458622650E+02 -0.21426672779E+03 -0.60480315796E+03  0.65019793632E+03  0.78966864009E+02 0.  0.
         25    2    1    2    0    0  0.40653076645E+02  0.47138261044E+02 -0.56987392126E+00  0.13972406293E+03  0.12509116959E+03 0.  0.
         24    2    1    2    0    0 -0.11011169929E+03  0.16712846674E+03 -0.44070266507E+02  0.22088081924E+03  0.82399254853E+02 0.  0.
        -13    1    5    5    0    0 -0.10831939939E+03  0.95303584604E+02 -0.23781660653E+02  0.14622391359E+03  0.00000000000E+00 0.  1.
         14    1    5    5    0    0 -0.17922999038E+01  0.71824882141E+02 -0.20288605854E+02  0.74656905649E+02  0.00000000000E+00 0. -1.
         11    1    3    3    0    0  0.12081049390E+02 -0.14398319825E+03 -0.31574232778E+03  0.34723238715E+03  0.00000000000E+00 0. -1.
        -12    1    3    3    0    0  0.57377573260E+02 -0.70283529542E+02 -0.28906083018E+03  0.30296554917E+03  0.00000000000E+00 0.  1.
          5    1    4    4  501    0 -0.34980893765E+01  0.60903787335E+02 -0.44637466147E+02  0.75706563289E+02  0.41800000000E+01 0. -1.
         -5    1    4    4    0  501  0.44151166021E+02 -0.13765526291E+02  0.44067592225E+02  0.64017499636E+02  0.41800000000E+01 0. -1.
</event>
<event>
11    1  0.8551154E-009  0.2045726E+03  0.7561462E-02  0.1051336E+00
         22   -1    0    0    0    0  0.00000000000E+00  0.00000000000E+00  0.17823735537E+03  0.17823735537E+03  0.00000000000E+00 0.  1.
         22   -1    0    0    0    0 -0.00000000000E+00 -0.00000000000E+00 -0.69423365700E+03  0.69423365700E+03  0.00000000000E+00 0.  1.
         24    2    1    2    0    0 -0.17695232787E+03  0.28695507942E+01 -0.48437449253E+03  0.52257418782E+03  0.84526753735E+02 0.  0.
         25    2    1    2    0    0  0.10308562099E+03  0.96644846207E+02 -0.62862651234E+02  0.19891231571E+03  0.12509006702E+03 0.  0.
        -24    2    1    2    0    0  0.73866706872E+02 -0.99514397002E+02  0.31240842135E+02  0.15098450884E+03  0.80379886150E+02 0.  0.
        -11    1    3    3    0    0 -0.17703919628E+03  0.20269043154E+02 -0.42922172274E+03  0.46474186211E+03  0.00000000000E+00 0.  1.
         12    1    3    3    0    0  0.86868409403E-01 -0.17399492360E+02 -0.55152769796E+02  0.57832325707E+02  0.00000000000E+00 0. -1.
         13    1    5    5    0    0 -0.10976391239E+02 -0.45939097823E+02  0.69202594821E+01  0.47736483581E+02  0.00000000000E+00 0. -1.
        -14    1    5    5    0    0  0.84843098111E+02 -0.53575299178E+02  0.24320582653E+02  0.10324802526E+03  0.00000000000E+00 0.  1.
          5    1    4    4  501    0  0.54334019480E+02 -0.23155518252E+02 -0.16739476355E+02  0.61530855406E+02  0.41800000000E+01 0.  1.
         -5    1    4    4    0  501  0.48751601515E+02  0.11980036446E+03 -0.46123174879E+02  0.13738146031E+03  0.41800000000E+01 0.  1.
</event>
<event>
11    1  0.8551154E-009  0.1633135E+03  0.7561462E-02  0.1084002E+00
         22   -1    0    0    0    0  0.00000000000E+00  0.00000000000E+00  0.18273722153E+04  0.18273722153E+04  0.00000000000E+00 0.  1.
         22   -1    0    0    0    0 -0.00000000000E+00 -0.00000000000E+00 -0.39445017495E+03  0.39445017495E+03  0.00000000000E+00 0. -1.
        -24    2    1    2    0    0  0.82044173182E+02  0.23014401205E+02 -0.36632048082E+03  0.38483939487E+03  0.81546037033E+02 0.  0.
         25    2    1    2    0    0 -0.12620581511E+03  0.68048976796E+02  0.56884119670E+03  0.59982282302E+03  0.12509412835E+03 0.  0.
         24    2    1    2    0    0  0.44161641926E+02 -0.91063378001E+02  0.12304013245E+04  0.12371601723E+04  0.80218971253E+02 0.  0.
        -11    1    5    5    0    0  0.35724114224E+02 -0.41126931404E+02  0.98922533549E+03  0.99072418018E+03  0.00000000000E+00 0.  1.
         12    1    5    5    0    0  0.84375277018E+01 -0.49936446597E+02  0.24117598898E+03  0.24643599216E+03  0.00000000000E+00 0. -1.
         13    1    3    3    0    0  0.49520892380E+02  0.11250162672E+02 -0.33287859635E+03  0.33672992865E+03  0.00000000000E+00 0. -1.
        -14    1    3    3    0    0  0.32523280803E+02  0.11764238533E+02 -0.33441884473E+02  0.48109466215E+02  0.00000000000E+00 0.  1.
          5    1    4    4  501    0 -0.97783604779E+02  0.92853152980E+02  0.30822255749E+03  0.33645498767E+03  0.41800000000E+01 0. -1.
         -5    1    4    4    0  501 -0.28422210329E+02 -0.24804176183E+02  0.26061863921E+03  0.26336783536E+03  0.41800000000E+01 0. -1.
</event>
<event>
11    1  0.8551154E-009  0.1868961E+03  0.7561462E-02  0.1064197E+00
         22   -1    0    0    0    0  0.00000000000E+00  0.00000000000E+00  0.53637926288E+03  0.53637926288E+03  0.00000000000E+00 0.  1.
         22   -1    0    0    0    0 -0.00000000000E+00 -0.00000000000E+00 -0.68890226215E+03  0.68890226215E+03  0.00000000000E+00 0.  1.
         24    2    1    2    0    0  0.13545881868E+03  0.31268621659E+02 -0.49624594662E+03  0.52150555149E+03  0.79882303651E+02 0.  0.
         25    2    1    2    0    0 -0.14763406967E+03  0.41110388561E+02 -0.11729594715E+03  0.22998213138E+03  0.12509020330E+03 0.  0.
        -24    2    1    2    0    0  0.12175250994E+02 -0.72379010219E+02  0.46101889451E+03  0.47379384216E+03  0.80964349678E+02 0.  0.
        -11    1    3    3    0    0  0.84333741609E+02 -0.85633896550E+01 -0.37011430980E+03  0.37969739785E+03  0.00000000000E+00 0.  1.
         12    1    3    3    0    0  0.51125077071E+02  0.39832011314E+02 -0.12613163682E+03  0.14180815364E+03  0.00000000000E+00 0. -1.
         11    1    5    5    0    0  0.20610171778E+02  0.11656850107E+02  0.13205719649E+03  0.13416320092E+03  0.00000000000E+00 0. -1.
        -12    1    5    5    0    0 -0.84349207836E+01 -0.84035860327E+02  0.32896169802E+03  0.33963064124E+03  0.00000000000E+00 0.  1.
          5    1    4    4  501    0 -0.98899435906E+02 -0.18949822655E+02 -0.11440934176E+03  0.15247020720E+03  0.41800000000E+01 0. -1.
         -5    1    4    4    0  501 -0.48734633768E+02  0.60060211216E+02 -0.28866053908E+01  0.77511924182E+02  0.41800000000E+01 0. -1.
</event>
<event>
11    1  0.8551154E-009  0.1387950E+03  0.7561462E-02  0.1108911E+00
         22   -1    0    0    0    0  0.00000000000E+00  0.00000000000E+00  0.21835333161E+03  0.21835333161E+03  0.00000000000E+00 0. -1.
         22   -1    0    0    0    0 -0.00000000000E+00 -0.00000000000E+00 -0.76862391707E+03  0.76862391707E+03  0.00000000000E+00 0.  1.
        -24    2    1    2    0    0  0.10088221322E+02  0.58322599397E+02 -0.64793495005E+03  0.65545704577E+03  0.79378470288E+02 0.  0.
         25    2    1    2    0    0 -0.22110339040E+01 -0.73195080725E+02 -0.57650528392E+02  0.15599146537E+03  0.12508934939E+03 0.  0.
         24    2    1    2    0    0 -0.78771874181E+01  0.14872481329E+02  0.15531489298E+03  0.17552873754E+03  0.80027376174E+02 0.  0.
        -11    1    5    5    0    0  0.17462414935E+02  0.19355022209E+02  0.99481962148E+01  0.27901961007E+02  0.00000000000E+00 0.  1.
         12    1    5    5    0    0 -0.25339602354E+02 -0.44825408803E+01  0.14536669676E+03  0.14762677653E+03  0.00000000000E+00 0. -1.
         11    1    3    3    0    0 -0.17152319493E+02 -0.12733330001E+02 -0.99470847740E+02  0.10173882891E+03  0.00000000000E+00 0. -1.
        -12    1    3    3    0    0  0.27240540816E+02  0.71055929398E+02 -0.54846410231E+03  0.55371821687E+03  0.00000000000E+00 0.  1.
          5    1    4    4  501    0 -0.26867700909E+02 -0.87156775256E+02 -0.78626829422E+02  0.12048994784E+03  0.41800000000E+01 0.  1.
         -5    1    4    4    0  501  0.24656667005E+02  0.13961694531E+02  0.20976301030E+02  0.35501517529E+02  0.41800000000E+01 0.  1.
</event>
<event>
11    1  0.8551154E-009  0.8264482E+03  0.7561462E-02  0.8864252E-01
         22   -1    0    0    0    0  0.00000000000E+00  0.00000000000E+00  0.82565507020E+03  0.82565507020E+03  0.00000000000E+00 0.  1.
         22   -1    0    0    0    0 -0.00000000000E+00 -0.00000000000E+00 -0.20539359828E+04  0.20539359828E+04  0.00000000000E+00 0. -1.
        -24    2    1    2    0    0  0.51539941713E+03 -0.62697017833E+03 -0.14379147028E+04  0.16531088156E+04  0.80261448070E+02 0.  0.
         25    2    1    2    0    0 -0.58867286720E+03  0.59541810078E+03 -0.14088735442E+03  0.85822940722E+03  0.12509999783E+03 0.  0.
         24    2    1    2    0    0  0.73273450068E+02  0.31552077543E+02  0.35052114454E+03  0.36825283024E+03  0.79878295746E+02 0.  0.
        -11    1    5    5    0    0  0.90399634141E+02  0.25978509105E+02  0.27603121572E+03  0.29161654418E+03  0.00000000000E+00 0.  1.
         12    1    5    5    0    0 -0.17126184073E+02  0.55735684380E+01  0.74489928819E+02  0.76636286062E+02  0.00000000000E+00 0. -1.
         11    1    3    3    0    0  0.47840959281E+03 -0.55514948647E+03 -0.12581333021E+04  0.14560103354E+04  0.00000000000E+00 0. -1.
        -12    1    3    3    0    0  0.36989824322E+02 -0.71820691857E+02 -0.17978140066E+03  0.19709848023E+03  0.00000000000E+00 0.  1.
          5    1    4    4  501    0 -0.17871578793E+03  0.21577553252E+03  0.67764458934E+01  0.28028879019E+03  0.41800000000E+01 0.  1.
         -5    1    4    4    0  501 -0.40995707927E+03  0.37964256826E+03 -0.14766380031E+03  0.57794061702E+03  0.41800000000E+01 0.  1.
</event>
<event>
11    1  0.8551154E-009  0.2017270E+04  0.7561462E-02  0.8059938E-01
         22   -1    0    0    0    0  0.00000000000E+00  0.00000000000E+00  0.25049253360E+04  0.25049253360E+04  0.00000000000E+00 0. -1.
         22   -1    0    0    0    0 -0.00000000000E+00 -0.00000000000E+00 -0.40613784930E+03  0.40613784930E+03  0.00000000000E+00 0. -1.
         24    2    1    2    0    0  0.35592294763E+03  0.56771887027E+03  0.22091107095E+03  0.71092814715E+03  0.87357133902E+02 0.  0.
         25    2    1    2    0    0 -0.56742017271E+03 -0.67418627182E+03  0.15732046870E+04  0.18075157928E+04  0.12509025755E+03 0.  0.
        -24    2    1    2    0    0  0.21149722508E+03  0.10646740155E+03  0.30467172869E+03  0.39261924529E+03  0.72516382268E+02 0.  0.
        -13    1    3    3    0    0  0.25933561309E+03  0.34591153954E+03  0.11895724829E+03  0.44839779250E+03  0.00000000000E+00 0.  1.
         14    1    3    3    0    0  0.96587334541E+02  0.22180733073E+03  0.10195382266E+03  0.26253035465E+03  0.00000000000E+00 0. -1.
         13    1    5    5    0    0  0.21743635995E+03  0.10181806925E+03  0.29514790042E+03  0.38047046269E+03  0.00000000000E+00 0. -1.
        -14    1    5    5    0    0 -0.59391348668E+01  0.46493323019E+01  0.95238282697E+01  0.12148782603E+02  0.00000000000E+00 0.  1.
          5    1    4    4  501    0 -0.22112133894E+03 -0.32693122842E+03  0.60852576788E+03  0.72532734488E+03  0.41800000000E+01 0.  1.
         -5    1    4    4    0  501 -0.34629883377E+03 -0.34725504340E+03  0.96467891915E+03  0.10821884480E+04  0.41800000000E+01 0.  1.
</event>
<event>
11    1  0.8551154E-009  0.2376855E+03  0.7561462E-02  0.1030672E+00
         22   -1    0    0    0    0  0.00000000000E+00  0.00000000000E+00  0.12731980084E+04  0.12731980084E+04  0.00000000000E+00 0. -1.
         22   -1    0    0    0    0 -0.00000000000E+00 -0.00000000000E+00 -0.85185659048E+03  0.85185659048E+03  0.00000000000E+00 0.  1.
         24    2    1    2    0    0 -0.38056323267E+02  0.31706977424E+02 -0.52979821025E+03  0.53826701886E+03  0.81188816070E+02 0.  0.
         25    2    1    2    0    0 -0.10835887934E+03  0.10977906421E+03 -0.27618373173E+03  0.34017271855E+03  0.12508770964E+03 0.  0.
        -24    2    1    2    0    0  0.14641520260E+03 -0.14148604164E+03  0.12273233599E+04  0.12466148615E+04  0.79185046301E+02 0.  0.
        -11    1    3    3    0    0 -0.16827724199E+02 -0.26830527876E+02 -0.22053123198E+03  0.22279379212E+03  0.00000000000E+00 0.  1.
         12    1    3    3    0    0 -0.21228599068E+02  0.58537505300E+02 -0.30926697826E+03  0.31547322674E+03  0.00000000000E+00 0. -1.
         11    1    5    5    0    0  0.62420373176E+02 -0.20623170697E+02  0.52011486513E+03  0.52425288848E+03  0.00000000000E+00 0. -1.
        -12    1    5    5    0    0  0.83994829427E+02 -0.12086287094E+03  0.70720849477E+03  0.72236197298E+03  0.00000000000E+00 0.  1.
          5    1    4    4  501    0 -0.10565964533E+03  0.34672833252E+02 -0.21897388158E+03  0.24562817271E+03  0.41800000000E+01 0.  1.
         -5    1    4    4    0  501 -0.26992340082E+01  0.75106230960E+02 -0.57209850147E+02  0.94544545835E+02  0.41800000000E+01 0.  1.
</event>
<event>
11    1  0.8551154E-009  0.4256240E+03  0.7561462E-02  0.9577038E-01
         22   -1    0    0    0    0  0.00000000000E+00  0.00000000000E+00  0.60216942987E+03  0.60216942987E+03  0.00000000000E+00 0. -1.
         22   -1    0    0    0    0 -0.00000000000E+00 -0.00000000000E+00 -0.76487865450E+03  0.76487865450E+03  0.00000000000E+00 0.  1.
        -24    2    1    2    0    0  0.33151344238E+03 -0.26282790440E+03 -0.46545115649E+03  0.63216620428E+03  0.63321883543E+02 0.  0.
         25    2    1    2    0    0 -0.25032038367E+03  0.27760540178E+03 -0.17000445430E+02  0.39454000353E+03  0.12509094956E+03 0.  0.
         24    2    1    2    0    0 -0.81193058718E+02 -0.14777497379E+02  0.31974237729E+03  0.34034187656E+03  0.82381538552E+02 0.  0.
        -11    1    5    5    0    0 -0.83533882165E+02  0.16550263774E+02  0.22982053488E+03  0.24509038935E+03  0.00000000000E+00 0.  1.
         12    1    5    5    0    0  0.23408234466E+01 -0.31327761153E+02  0.89921842410E+02  0.95251487210E+02  0.00000000000E+00 0. -1.
         11    1    3    3    0    0  0.24871167434E+02 -0.48719341281E+01 -0.15765128839E+02  0.29847110396E+02  0.00000000000E+00 0. -1.
        -12    1    3    3    0    0  0.30664227495E+03 -0.25795597027E+03 -0.44968602765E+03  0.60231909388E+03  0.00000000000E+00 0.  1.
          5    1    4    4  501    0 -0.25209279935E+03  0.27912075638E+03  0.77167865233E+00  0.37613460890E+03  0.41800000000E+01 0. -1.
         -5    1    4    4    0  501  0.17724156801E+01 -0.15153546020E+01 -0.17772124082E+02  0.18405394625E+02  0.41800000000E+01 0. -1.
</event>
<event>
11    1  0.8551154E-009  0.1921163E+03  0.7561462E-02  0.1060243E+00
         22   -1    0    0    0    0  0.00000000000E+00  0.00000000000E+00  0.80485805896E+02  0.80485805896E+02  0.00000000000E+00 0. -1.
         22   -1    0    0    0    0 -0.00000000000E+00 -0.00000000000E+00 -0.11018317402E+04  0.11018317402E+04  0.00000000000E+00 0.  1.
        -24    2    1    2    0    0  0.11593780412E+02 -0.26181103172E+02 -0.66940793350E+03  0.67491756934E+03  0.81159583988E+02 0.  0.
         25    2    1    2    0    0  0.13204591985E+03  0.59608934576E+02 -0.22859002799E+03  0.29814501648E+03  0.12509076674E+03 0.  0.
         24    2    1    2    0    0 -0.14363970026E+03 -0.33427831404E+02 -0.12334797276E+03  0.20925496022E+03  0.82602255348E+02 0.  0.
        -11    1    5    5    0    0 -0.16653866661E+02 -0.33424156252E+02 -0.90927248381E+01  0.38434400489E+02  0.00000000000E+00 0.  1.
         12    1    5    5    0    0 -0.12698583360E+03 -0.36751516162E-02 -0.11425524793E+03  0.17082055973E+03  0.00000000000E+00 0. -1.
         11    1    3    3    0    0  0.27046744463E+02 -0.37592374579E+02 -0.20727626177E+03  0.21238682093E+03  0.00000000000E+00 0. -1.
        -12    1    3    3    0    0 -0.15452964050E+02  0.11411271407E+02 -0.46213167173E+03  0.46253074841E+03  0.00000000000E+00 0.  1.
          5    1    4    4  501    0  0.11600226100E+03  0.94911385843E+02 -0.19912262910E+03  0.24926289242E+03  0.41800000000E+01 0.  1.
         -5    1    4    4    0  501  0.16043658852E+02 -0.35302451268E+02 -0.29467398894E+02  0.48882124058E+02  0.41800000000E+01 0.  1.
</event>
<event>
11    1  0.8551154E-009  0.1562141E+03  0.7561462E-02  0.1090693E+00
         22   -1    0    0    0    0  0.00000000000E+00  0.00000000000E+00  0.10417951973E+03  0.10417951973E+03  0.00000000000E+00 0.  1.
         22   -1    0    0    0    0 -0.00000000000E+00 -0.00000000000E+00 -0.83829619599E+03  0.83829619599E+03  0.00000000000E+00 0. -1.
        -24    2    1    2    0    0 -0.97564586074E+02 -0.27970167080E+02 -0.56619349296E+03  0.58079776145E+03  0.80310581710E+02 0.  0.
         25    2    1    2    0    0  0.75517567980E+02 -0.35560443595E+02 -0.20183182640E+03  0.25169962613E+03  0.12509663235E+03 0.  0.
         24    2    1    2    0    0  0.22047018094E+02  0.63530610675E+02  0.33908643094E+02  0.10997832813E+03  0.80145037791E+02 0.  0.
        -13    1    5    5    0    0  0.16706287197E+02  0.82617156256E+02  0.23074031791E+02  0.87390534286E+02  0.00000000000E+00 0.  1.
         14    1    5    5    0    0  0.53407308965E+01 -0.19086545581E+02  0.10834611304E+02  0.22587793846E+02  0.00000000000E+00 0. -1.
         13    1    3    3    0    0 -0.76907374154E+02 -0.35416377454E+02 -0.54009068780E+03  0.54668731011E+03  0.00000000000E+00 0. -1.
        -14    1    3    3    0    0 -0.20657211920E+02  0.74462103744E+01 -0.26102805160E+02  0.34110451337E+02  0.00000000000E+00 0.  1.
          5    1    4    4  501    0  0.29277638445E+02 -0.56960117803E+02 -0.27143104349E+02  0.69683969798E+02  0.41800000000E+01 0.  1.
         -5    1    4    4    0  501  0.46239929535E+02  0.21399674208E+02 -0.17468872205E+03  0.18201565634E+03  0.41800000000E+01 0.  1.
</event>
<event>
11    1  0.8551154E-009  0.2201820E+03  0.7561462E-02  0.1041104E+00
         22   -1    0    0    0    0  0.00000000000E+00  0.00000000000E+00  0.90162131428E+03  0.90162131428E+03  0.00000000000E+00 0.  1.
         22   -1    0    0    0    0 -0.00000000000E+00 -0.00000000000E+00 -0.19919969988E+04  0.19919969988E+04  0.00000000000E+00 0. -1.
        -24    2    1    2    0    0  0.16106679603E+03  0.53835469385E+02 -0.12694122819E+04  0.12835564703E+04  0.85257847684E+02 0.  0.
         25    2    1    2    0    0 -0.31944526811E+03 -0.13622971870E+03 -0.65574371242E+03  0.75249602259E+03  0.12508649833E+03 0.  0.
         24    2    1    2    0    0  0.15837847209E+03  0.82394249314E+02  0.83478030976E+03  0.85756582019E+03  0.81782746680E+02 0.  0.
        -13    1    5    5    0    0  0.16807065993E+03  0.80186774339E+02  0.78294860451E+03  0.80478952703E+03  0.00000000000E+00 0.  1.
         14    1    5    5    0    0 -0.96921878421E+01  0.22074749753E+01  0.51831705246E+02  0.52776293159E+02  0.00000000000E+00 0. -1.
         13    1    3    3    0    0  0.16636855430E+03  0.36714428498E+02 -0.11908559370E+04  0.12029814246E+04  0.00000000000E+00 0. -1.
        -14    1    3    3    0    0 -0.53017582726E+01  0.17121040888E+02 -0.78556344887E+02  0.80575045789E+02  0.00000000000E+00 0.  1.
          5    1    4    4  501    0 -0.26834459791E+03 -0.12783930409E+03 -0.44296941437E+03  0.53347079149E+03  0.41800000000E+01 0.  1.
         -5    1    4    4    0  501 -0.51100670199E+02 -0.83904146076E+01 -0.21277429805E+03  0.21902523111E+03  0.41800000000E+01 0.  1.
</event>
<event>
11    1  0.8551154E-009  0.1406573E+03  0.7561462E-02  0.1106827E+00
         22   -1    0    0    0    0  0.00000000000E+00  0.00000000000E+00  0.41485198479E+03  0.41485198479E+03  0.00000000000E+00 0. -1.
         22   -1    0    0    0    0 -0.00000000000E+00 -0.00000000000E+00 -0.38834373852E+03  0.38834373852E+03  0.00000000000E+00 0. -1.
        -24    2    1    2    0    0 -0.38253905851E+02  0.47013949981E+02 -0.26565900850E+03  0.28320661868E+03  0.77185537920E+02 0.  0.
         25    2    1    2    0    0  0.60081381931E+02 -0.63663816901E+02 -0.55527834471E+02  0.16243716503E+03  0.12505853887E+03 0.  0.
         24    2    1    2    0    0 -0.21827476080E+02  0.16649866920E+02  0.34769508923E+03  0.35755193960E+03  0.78726473658E+02 0.  0.
        -13    1    5    5    0    0  0.10797589812E+02  0.91549202342E+01  0.80976945388E+01  0.16308683794E+02  0.00000000000E+00 0.  1.
         14    1    5    5    0    0 -0.32625065891E+02  0.74949466855E+01  0.33959739469E+03  0.34124325581E+03  0.00000000000E+00 0. -1.
         11    1    3    3    0    0 -0.51572247489E+02  0.50820160978E+02 -0.25668701041E+03  0.26670321856E+03  0.00000000000E+00 0. -1.
        -12    1    3    3    0    0  0.13318341638E+02 -0.38062109962E+01 -0.89719980832E+01  0.16503400126E+02  0.00000000000E+00 0.  1.
          5    1    4    4  501    0  0.39808782082E+02 -0.85374506887E+02  0.54824402249E+01  0.94451443122E+02  0.41800000000E+01 0.  1.
         -5    1    4    4    0  501  0.20272599849E+02  0.21710689986E+02 -0.61010274696E+02  0.67985721904E+02  0.41800000000E+01 0.  1.
</event>
<event>
11    1  0.8551154E-009  0.1533016E+03  0.7561462E-02  0.1093552E+00
         22   -1    0    0    0    0  0.00000000000E+00  0.00000000000E+00  0.18652731522E+03  0.18652731522E+03  0.00000000000E+00 0.  1.
         22   -1    0    0    0    0 -0.00000000000E+00 -0.00000000000E+00 -0.23817833671E+04  0.23817833671E+04  0.00000000000E+00 0. -1.
        -24    2    1    2    0    0 -0.50353017701E+02  0.47639392932E+02 -0.19289265454E+04  0.19318514279E+04  0.80544296148E+02 0.  0.
         25    2    1    2    0    0  0.55408256843E+02  0.42910423431E+02 -0.41822011906E+03  0.44211663367E+03  0.12509064878E+03 0.  0.
         24    2    1    2    0    0 -0.50552391429E+01 -0.90549816362E+02  0.15189061259E+03  0.19434262077E+03  0.80457885687E+02 0.  0.
        -13    1    5    5    0    0 -0.79082151159E+01 -0.97470688102E+02  0.15722114859E+03  0.18515281383E+03  0.00000000000E+00 0.  1.
         14    1    5    5    0    0  0.28529759730E+01  0.69208717397E+01 -0.53305360005E+01  0.91898069399E+01  0.00000000000E+00 0. -1.
         11    1    3    3    0    0  0.37442452595E+01  0.38183863673E+02 -0.12895824850E+04  0.12901530965E+04  0.00000000000E+00 0. -1.
        -12    1    3    3    0    0 -0.54097262960E+02  0.94555292582E+01 -0.63934406047E+03  0.64169833142E+03  0.00000000000E+00 0.  1.
          5    1    4    4  501    0 -0.39455173960E+02  0.13213734791E+01 -0.11233612377E+03  0.11914417268E+03  0.41800000000E+01 0.  1.
         -5    1    4    4    0  501  0.94863430803E+02  0.41589049952E+02 -0.30588399529E+03  0.32297246098E+03  0.41800000000E+01 0.  1.
</event>
<event>
11    1  0.8551154E-009  0.1207653E+04  0.7561462E-02  0.8503252E-01
         22   -1    0    0    0    0  0.00000000000E+00  0.00000000000E+00  0.20324942787E+03  0.20324942787E+03  0.00000000000E+00 0.  1.
         22   -1    0    0    0    0 -0.00000000000E+00 -0.00000000000E+00 -0.17938868800E+04  0.17938868800E+04  0.00000000000E+00 0.  1.
        -24    2    1    2    0    0 -0.27786578137E+03 -0.25011069293E+02 -0.25325738358E+03  0.38535546326E+03  0.80774901305E+02 0.  0.
         25    2    1    2    0    0  0.50311756188E+03  0.16378579222E+03 -0.11664122946E+04  0.12869061901E+04  0.12512727219E+03 0.  0.
         24    2    1    2    0    0 -0.22525178051E+03 -0.13877472293E+03 -0.17096777395E+03  0.32487465455E+03  0.79478129640E+02 0.  0.
        -13    1    5    5    0    0 -0.16672383444E+03 -0.13961626081E+03 -0.12892722524E+03  0.25280776622E+03  0.00000000000E+00 0.  1.
         14    1    5    5    0    0 -0.58527946069E+02  0.84153788328E+00 -0.42040548717E+02  0.72066888330E+02  0.00000000000E+00 0. -1.
         11    1    3    3    0    0 -0.85643019692E+02 -0.34219572414E+02 -0.47914225999E+02  0.10393016411E+03  0.00000000000E+00 0. -1.
        -12    1    3    3    0    0 -0.19222276168E+03  0.92085031206E+01 -0.20534315758E+03  0.28142529915E+03  0.00000000000E+00 0.  1.
          5    1    4    4  501    0  0.13759130423E+03  0.47395621159E+02 -0.46729692761E+03  0.48945030683E+03  0.41800000000E+01 0.  1.
         -5    1    4    4    0  501  0.36552625765E+03  0.11639017106E+03 -0.69911536697E+03  0.79745588322E+03  0.41800000000E+01 0.  1.
</event>
<event>
11    1  0.8551154E-009  0.1707441E+03  0.7561462E-02  0.1077386E+00
         22   -1    0    0    0    0  0.00000000000E+00  0.00000000000E+00  0.21192800803E+03  0.21192800803E+03  0.00000000000E+00 0.  1.
         22   -1    0    0    0    0 -0.00000000000E+00 -0.00000000000E+00 -0.14933414693E+04  0.14933414693E+04  0.00000000000E+00 0.  1.
        -24    2    1    2    0    0  0.11068620775E+03  0.21482641547E+02 -0.11717893735E+04  0.11800905140E+04  0.82524813493E+02 0.  0.
         25    2    1    2    0    0 -0.12612380165E+03 -0.98077443247E+02 -0.26448992820E+03  0.33336119625E+03  0.12509343240E+03 0.  0.
         24    2    1    2    0    0  0.15437593895E+02  0.76594801699E+02  0.15486584046E+03  0.19181776708E+03  0.81887387760E+02 0.  0.
        -11    1    5    5    0    0  0.29393745968E+02 -0.43660252283E+01  0.54882204304E+02  0.62410823000E+02  0.00000000000E+00 0.  1.
         12    1    5    5    0    0 -0.13956152073E+02  0.80960826927E+02  0.99983636159E+02  0.12940694408E+03  0.00000000000E+00 0. -1.
         11    1    3    3    0    0  0.32570878596E+02 -0.15914594339E+02 -0.66240610392E+03  0.66339730400E+03  0.00000000000E+00 0. -1.
        -12    1    3    3    0    0  0.78115329155E+02  0.37397235886E+02 -0.50938326962E+03  0.51669321001E+03  0.00000000000E+00 0.  1.
          5    1    4    4  501    0 -0.51486235368E+02 -0.11492198236E+03 -0.15574312438E+03  0.20032795026E+03  0.41800000000E+01 0. -1.
         -5    1    4    4    0  501 -0.74637566278E+02  0.16844539117E+02 -0.10874680382E+03  0.13303324599E+03  0.41800000000E+01 0. -1.
</event>
<event>
11    1  0.8551154E-009  0.1342514E+03  0.7561462E-02  0.1114153E+00
         22   -1    0    0    0    0  0.00000000000E+00  0.00000000000E+00  0.12402209397E+04  0.12402209397E+04  0.00000000000E+00 0.  1.
         22   -1    0    0    0    0 -0.00000000000E+00 -0.00000000000E+00 -0.12228047814E+03  0.12228047814E+03  0.00000000000E+00 0.  1.
        -24    2    1    2    0    0  0.33079276557E+02  0.33586728772E+02 -0.80510150925E+02  0.12336958254E+03  0.80720893245E+02 0.  0.
         25    2    1    2    0    0 -0.38628938932E+02 -0.59818950720E+02  0.26478090059E+03  0.30137541992E+03  0.12509083349E+03 0.  0.
         24    2    1    2    0    0  0.55496623748E+01  0.26232221948E+02  0.93366971192E+03  0.93775641542E+03  0.83240828206E+02 0.  0.
        -11    1    5    5    0    0  0.19844426314E+02  0.50252098586E+02  0.44149271816E+03  0.44478634742E+03  0.00000000000E+00 0.  1.
         12    1    5    5    0    0 -0.14294763939E+02 -0.24019876639E+02  0.49217699377E+03  0.49297006800E+03  0.00000000000E+00 0. -1.
         13    1    3    3    0    0  0.13692008589E+02  0.84196463277E+01  0.15445439629E+02  0.22291773120E+02  0.00000000000E+00 0. -1.
        -14    1    3    3    0    0  0.19387267967E+02  0.25167082444E+02 -0.95955590554E+02  0.10107780942E+03  0.00000000000E+00 0.  1.
          5    1    4    4  501    0 -0.43877614002E+00 -0.86441367623E+02  0.22096588146E+03  0.23730928286E+03  0.41800000000E+01 0. -1.
         -5    1    4    4    0  501 -0.38190162792E+02  0.26622416903E+02  0.43815019131E+02  0.64066137056E+02  0.41800000000E+01 0. -1.
</event>
<event>
11    1  0.8551154E-009  0.1326797E+03  0.7561462E-02  0.1116020E+00
         22   -1    0    0    0    0  0.00000000000E+00  0.00000000000E+00  0.28613588297E+03  0.28613588297E+03  0.00000000000E+00 0.  1.
         22   -1    0    0    0    0 -0.00000000000E+00 -0.00000000000E+00 -0.49407574928E+03  0.49407574928E+03  0.00000000000E+00 0. -1.
        -24    2    1    2    0    0 -0.33959072832E+02  0.25781987827E+02 -0.39727694196E+03  0.40618140417E+03  0.73050906615E+02 0.  0.
         25    2    1    2    0    0  0.48767485394E+02 -0.43825029277E+02 -0.25393659185E+02  0.14349665273E+03  0.12509016986E+03 0.  0.
         24    2    1    2    0    0 -0.14808412561E+02  0.18043041450E+02  0.21473073484E+03  0.23053357535E+03  0.80570468856E+02 0.  0.
        -13    1    5    5    0    0 -0.43370153422E+02 -0.74784913803E+01  0.13668060810E+03  0.14359138787E+03  0.00000000000E+00 0.  1.
         14    1    5    5    0    0  0.28561740861E+02  0.25521532830E+02  0.78050126738E+02  0.86942187475E+02  0.00000000000E+00 0. -1.
         13    1    3    3    0    0 -0.27529980763E+02  0.46643007600E+02 -0.34927011654E+03  0.35344459864E+03  0.00000000000E+00 0. -1.
        -14    1    3    3    0    0 -0.64290920696E+01 -0.20861019774E+02 -0.48006825415E+02  0.52736805528E+02  0.00000000000E+00 0.  1.
          5    1    4    4  501    0 -0.26988636930E+02 -0.34881824516E+02 -0.46513208613E+02  0.64234563751E+02  0.41800000000E+01 0. -1.
         -5    1    4    4    0  501  0.75756122323E+02 -0.89432047610E+01  0.21119549428E+02  0.79262088976E+02  0.41800000000E+01 0. -1.
</event>
<event>
11    1  0.8551154E-009  0.1599097E+03  0.7561462E-02  0.1087162E+00
         22   -1    0    0    0    0  0.00000000000E+00  0.00000000000E+00  0.41380474687E+03  0.41380474687E+03  0.00000000000E+00 0.  1.
         22   -1    0    0    0    0 -0.00000000000E+00 -0.00000000000E+00 -0.28129860323E+03  0.28129860323E+03  0.00000000000E+00 0.  1.
        -24    2    1    2    0    0  0.62342242711E+02 -0.70976711217E+02 -0.19331135423E+03  0.22988430222E+03  0.80952232675E+02 0.  0.
         25    2    1    2    0    0 -0.14020446867E+03  0.10205001714E+03  0.20217617998E+03  0.29426468295E+03  0.12507996181E+03 0.  0.
         24    2    1    2    0    0  0.77862225961E+02 -0.31073305919E+02  0.12364131788E+03  0.17095436492E+03  0.83127268846E+02 0.  0.
        -11    1    5    5    0    0  0.92969730222E+02 -0.38327593223E+02  0.98691470179E+02  0.14089847915E+03  0.00000000000E+00 0.  1.
         12    1    5    5    0    0 -0.15107504261E+02  0.72542873032E+01  0.24949847706E+02  0.30055885777E+02  0.00000000000E+00 0. -1.
         13    1    3    3    0    0 -0.16416613926E+02 -0.17806265998E+02 -0.70870534092E+02  0.74894598765E+02  0.00000000000E+00 0. -1.
        -14    1    3    3    0    0  0.78758856637E+02 -0.53170445219E+02 -0.12244082013E+03  0.15498970346E+03  0.00000000000E+00 0.  1.
          5    1    4    4  501    0 -0.65139801070E+02  0.11589281346E+03  0.98782087181E+02  0.16567954323E+03  0.41800000000E+01 0.  1.
         -5    1    4    4    0  501 -0.75064667602E+02 -0.13842796325E+02  0.10339409280E+03  0.12858513973E+03  0.41800000000E+01 0.  1.
</event>
<event>
11    1  0.8551154E-009  0.1491538E+03  0.7561462E-02  0.1097747E+00
         22   -1    0    0    0    0  0.00000000000E+00  0.00000000000E+00  0.62488498316E+03  0.62488498316E+03  0.00000000000E+00 0. -1.
         22   -1    0    0    0    0 -0.00000000000E+00 -0.00000000000E+00 -0.12122956461E+04  0.12122956461E+04  0.00000000000E+00 0. -1.
        -24    2    1    2    0    0  0.78597416606E+02  0.22686769122E+02 -0.11751056010E+04  0.11806858574E+04  0.80334780894E+02 0.  0.
         25    2    1    2    0    0 -0.56910999560E+02  0.32828837102E+02  0.14457069580E+03  0.20215069619E+03  0.12509046114E+03 0.  0.
         24    2    1    2    0    0 -0.21686417046E+02 -0.55515606225E+02  0.44312424225E+03  0.45434407566E+03  0.80728940264E+02 0.  0.
        -13    1    5    5    0    0  0.62929842230E+01  0.19356222632E+02  0.96641996144E+02  0.98762039386E+02  0.00000000000E+00 0.  1.
         14    1    5    5    0    0 -0.27979401269E+02 -0.74871828857E+02  0.34648224611E+03  0.35558203627E+03  0.00000000000E+00 0. -1.
         11    1    3    3    0    0  0.35189806123E+02 -0.22771443547E+02 -0.72527981617E+03  0.72648996748E+03  0.00000000000E+00 0. -1.
        -12    1    3    3    0    0  0.43407610483E+02  0.45458212669E+02 -0.44982578484E+03  0.45419588996E+03  0.00000000000E+00 0.  1.
          5    1    4    4  501    0  0.28565351279E+02  0.16510512818E+02  0.97735876523E+02  0.10323928655E+03  0.41800000000E+01 0. -1.
         -5    1    4    4    0  501 -0.85476350839E+02  0.16318324284E+02  0.46834819279E+02  0.98911409640E+02  0.41800000000E+01 0. -1.
</event>
<event>
11    1  0.8551154E-009  0.1345766E+03  0.7561462E-02  0.1113770E+00
         22   -1    0    0    0    0  0.00000000000E+00  0.00000000000E+00  0.37530875239E+02  0.37530875239E+02  0.00000000000E+00 0.  1.
         22   -1    0    0    0    0 -0.00000000000E+00 -0.00000000000E+00 -0.24551169666E+04  0.24551169666E+04  0.00000000000E+00 0. -1.
         24    2    1    2    0    0  0.44744668388E+02  0.19206509378E+02 -0.15907644979E+04  0.15934999725E+04  0.79620973223E+02 0.  0.
         25    2    1    2    0    0 -0.59066988702E+02  0.50548624594E+01 -0.79357221001E+03  0.80555495241E+03  0.12508983999E+03 0.  0.
        -24    2    1    2    0    0  0.14322320314E+02 -0.24261371837E+02 -0.33249383429E+02  0.93592916856E+02  0.82827347927E+02 0.  0.
        -13    1    3    3    0    0  0.11705901628E+02 -0.17710478943E+02 -0.11748072342E+03  0.11938345602E+03  0.00000000000E+00 0.  1.
         14    1    3    3    0    0  0.33038766760E+02  0.36916988321E+02 -0.14732837745E+04  0.14741165165E+04  0.00000000000E+00 0. -1.
         11    1    5    5    0    0  0.98787998082E+01  0.29815755977E+02 -0.21535684966E+02  0.38083536037E+02  0.00000000000E+00 0. -1.
        -12    1    5    5    0    0  0.44435205059E+01 -0.54077127815E+02 -0.11713698463E+02  0.55509380819E+02  0.00000000000E+00 0.  1.
          5    1    4    4  501    0 -0.33889015059E+02 -0.54315537240E+02 -0.54325978577E+03  0.54703501731E+03  0.41800000000E+01 0.  1.
         -5    1    4    4    0  501 -0.25177973643E+02  0.59370399700E+02 -0.25031242424E+03  0.25851993511E+03  0.41800000000E+01 0.  1.
</event>
<event>
11    1  0.8551154E-009  0.2540784E+03  0.7561462E-02  0.1021749E+00
         22   -1    0    0    0    0  0.00000000000E+00  0.00000000000E+00  0.34044626967E+04  0.34044626967E+04  0.00000000000E+00 0. -1.
         22   -1    0    0    0    0 -0.00000000000E+00 -0.00000000000E+00 -0.65696297217E+02  0.65696297217E+02  0.00000000000E+00 0. -1.
         24    2    1    2    0    0 -0.75268280749E+02  0.63186980440E+01  0.27843501181E+02  0.11313988909E+03  0.79499269887E+02 0.  0.
         25    2    1    2    0    0 -0.98166811419E+02  0.15374830498E+03  0.69471093478E+03  0.72907153086E+03  0.12508696997E+03 0.  0.
        -24    2    1    2    0    0  0.17343509217E+03 -0.16006700303E+03  0.26162119636E+04  0.26279475740E+04  0.76434526386E+02 0.  0.
        -13    1    3    3    0    0  0.76215975642E+01  0.19606748524E+02  0.19661487243E+02  0.28793878129E+02  0.00000000000E+00 0.  1.
         14    1    3    3    0    0 -0.82889878313E+02 -0.13288050480E+02  0.81820139384E+01  0.84346010957E+02  0.00000000000E+00 0. -1.
         11    1    5    5    0    0  0.16173740436E+03 -0.16361918737E+03  0.22949434833E+04  0.23064465781E+04  0.00000000000E+00 0. -1.
        -12    1    5    5    0    0  0.11697687807E+02  0.35521843408E+01  0.32126848029E+03  0.32150099586E+03  0.00000000000E+00 0.  1.
          5    1    4    4  501    0 -0.84891936448E+02  0.49328697865E+02  0.47943755885E+03  0.48940556448E+03  0.41800000000E+01 0. -1.
         -5    1    4    4    0  501 -0.13274874971E+02  0.10441960712E+03  0.21527337594E+03  0.23966596639E+03  0.41800000000E+01 0. -1.
</event>
<event>
11    1  0.8551154E-009  0.1575472E+03  0.7561462E-02  0.1089407E+00
         22   -1    0    0    0    0  0.00000000000E+00  0.00000000000E+00  0.97239199872E+03  0.97239199872E+03  0.00000000000E+00 0.  1.
         22   -1    0    0    0    0 -0.00000000000E+00 -0.00000000000E+00 -0.25860371063E+03  0.25860371063E+03  0.00000000000E+00 0.  1.
         24    2    1    2    0    0 -0.60395684539E+02 -0.72844897696E+02 -0.13328485773E+03  0.18124169740E+03  0.78292284084E+02 0.  0.
         25    2    1    2    0    0  0.37494569241E+02  0.95579403338E+02 -0.33104601412E+02  0.16518158579E+03  0.12509107317E+03 0.  0.
        -24    2    1    2    0    0  0.22901115298E+02 -0.22734505642E+02  0.88017774722E+03  0.88457242615E+03  0.81940170716E+02 0.  0.
        -13    1    3    3    0    0 -0.41710411464E+02 -0.90685065892E+01 -0.95947986982E+02  0.10501434398E+03  0.00000000000E+00 0.  1.
         14    1    3    3    0    0 -0.18685273074E+02 -0.63776391106E+02 -0.37336870745E+02  0.76227353420E+02  0.00000000000E+00 0. -1.
         11    1    5    5    0    0  0.36687029960E+02 -0.35382585018E+02  0.31596708021E+03  0.32005165406E+03  0.00000000000E+00 0. -1.
        -12    1    5    5    0    0 -0.13785914662E+02  0.12648079376E+02  0.56421066701E+03  0.56452077209E+03  0.00000000000E+00 0.  1.
          5    1    4    4  501    0  0.15195103492E+02  0.52568740501E+02 -0.80401591456E+02  0.97346042326E+02  0.41800000000E+01 0. -1.
         -5    1    4    4    0  501  0.22299465749E+02  0.43010662837E+02  0.47296990044E+02  0.67835543468E+02  0.41800000000E+01 0. -1.
</event>
<event>
11    1  0.8551154E-009  0.1997818E+03  0.7561462E-02  0.1054678E+00
         22   -1    0    0    0    0  0.00000000000E+00  0.00000000000E+00  0.43810980315E+04  0.43810980315E+04  0.00000000000E+00 0. -1.
         22   -1    0    0    0    0 -0.00000000000E+00 -0.00000000000E+00 -0.17523160290E+03  0.17523160290E+03  0.00000000000E+00 0.  1.
        -24    2    1    2    0    0 -0.54417348037E+02  0.14182419982E+03 -0.10508896008E+03  0.20139196051E+03  0.80247621797E+02 0.  0.
         25    2    1    2    0    0  0.35899179659E+02 -0.21866843063E+03  0.74649679083E+03  0.78867616700E+03  0.12509198222E+03 0.  0.
         24    2    1    2    0    0  0.18518168377E+02  0.76844230814E+02  0.35644585978E+04  0.35662615069E+04  0.81290106028E+02 0.  0.
        -13    1    5    5    0    0  0.44536422575E+02  0.71210610196E+02  0.23238949818E+04  0.23254122925E+04  0.00000000000E+00 0.  1.
         14    1    5    5    0    0 -0.26018254197E+02  0.56336206179E+01  0.12405636161E+04  0.12408492144E+04  0.00000000000E+00 0. -1.
         11    1    3    3    0    0  0.10035793592E+02  0.43381866577E+02 -0.61467989543E+02  0.75901365199E+02  0.00000000000E+00 0. -1.
        -12    1    3    3    0    0 -0.64453141629E+02  0.98442333239E+02 -0.43620970541E+02  0.12549059531E+03  0.00000000000E+00 0.  1.
          5    1    4    4  501    0 -0.16195304455E+02 -0.14533545681E+03  0.30734325889E+03  0.34038512611E+03  0.41800000000E+01 0.  1.
         -5    1    4    4    0  501  0.52094484115E+02 -0.73332973823E+02  0.43915353195E+03  0.44829104089E+03  0.41800000000E+01 0.  1.
</event>
<event>
11    1  0.8551154E-009  0.1394145E+03  0.7561462E-02  0.1108214E+00
         22   -1    0    0    0    0  0.00000000000E+00  0.00000000000E+00  0.15653351279E+03  0.15653351279E+03  0.00000000000E+00 0. -1.
         22   -1    0    0    0    0 -0.00000000000E+00 -0.00000000000E+00 -0.10435131294E+04  0.10435131294E+04  0.00000000000E+00 0. -1.
         24    2    1    2    0    0  0.37165428933E+02 -0.47457500022E+02 -0.82140148939E+03  0.82790525067E+03  0.84221219998E+02 0.  0.
         25    2    1    2    0    0 -0.63683704824E+02  0.40574721369E+02 -0.17870503125E+03  0.23083524178E+03  0.12508996113E+03 0.  0.
        -24    2    1    2    0    0  0.26518275891E+02  0.68827786529E+01  0.11312690405E+03  0.14130614973E+03  0.80119535281E+02 0.  0.
        -13    1    3    3    0    0 -0.20995940681E+02 -0.28859192269E+02 -0.17349262309E+03  0.17712530246E+03  0.00000000000E+00 0.  1.
         14    1    3    3    0    0  0.58161369614E+02 -0.18598307753E+02 -0.64790886629E+03  0.65077994821E+03  0.00000000000E+00 0. -1.
         13    1    5    5    0    0  0.34467084426E+02 -0.53087806091E+01  0.12017692655E+03  0.12513455452E+03  0.00000000000E+00 0. -1.
        -14    1    5    5    0    0 -0.79488085348E+01  0.12191559262E+02 -0.70500225004E+01  0.16171595209E+02  0.00000000000E+00 0.  1.
          5    1    4    4  501    0 -0.37138602800E+02  0.44872681345E+02 -0.19190172485E+03  0.20059057244E+03  0.41800000000E+01 0. -1.
         -5    1    4    4    0  501 -0.26545102024E+02 -0.42979599760E+01  0.13196693601E+02  0.30244669339E+02  0.41800000000E+01 0. -1.
</event>
<event>
11    1  0.8551154E-009  0.2199636E+03  0.7561462E-02  0.1041240E+00
         22   -1    0    0    0    0  0.00000000000E+00  0.00000000000E+00  0.11673198292E+04  0.11673198292E+04  0.00000000000E+00 0. -1.
         22   -1    0    0    0    0 -0.00000000000E+00 -0.00000000000E+00 -0.15239840680E+04  0.15239840680E+04  0.00000000000E+00 0.  1.
         24    2    1    2    0    0  0.23620972097E+02  0.59321523334E+01 -0.14767504885E+04  0.14791504980E+04  0.80629087913E+02 0.  0.
         25    2    1    2    0    0  0.16337278771E+03 -0.13671429650E+02  0.28044844594E+03  0.34808650968E+03  0.12504123974E+03 0.  0.
        -24    2    1    2    0    0 -0.18699375981E+03  0.77392773166E+01  0.83963780374E+03  0.86406688948E+03  0.81199663782E+02 0.  0.
        -13    1    3    3    0    0  0.33251201039E+02  0.37491720594E+02 -0.10040420677E+04  0.10052918707E+04  0.00000000000E+00 0.  1.
         14    1    3    3    0    0 -0.96302289419E+01 -0.31559568260E+02 -0.47270842077E+03  0.47385862736E+03  0.00000000000E+00 0. -1.
         11    1    5    5    0    0 -0.19171434175E+03  0.11919498865E+02  0.83320306633E+03  0.85505778344E+03  0.00000000000E+00 0. -1.
        -12    1    5    5    0    0  0.47205819379E+01 -0.41802215479E+01  0.64347374196E+01  0.90091060423E+01  0.00000000000E+00 0.  1.
          5    1    4    4  501    0  0.14550953586E+03 -0.36654569546E+02  0.28110092836E+03  0.31867191093E+03  0.41800000000E+01 0.  1.
         -5    1    4    4    0  501  0.17863251853E+02  0.22983139896E+02 -0.65248241327E+00  0.29414598749E+02  0.41800000000E+01 0.  1.
</event>
<event>
11    1  0.8551154E-009  0.1285594E+03  0.7561462E-02  0.1121052E+00
         22   -1    0    0    0    0  0.00000000000E+00  0.00000000000E+00  0.28066062511E+03  0.28066062511E+03  0.00000000000E+00 0.  1.
         22   -1    0    0    0    0 -0.00000000000E+00 -0.00000000000E+00 -0.11459779564E+04  0.11459779564E+04  0.00000000000E+00 0.  1.
         24    2    1    2    0    0 -0.45218252766E+01  0.18512432994E+02 -0.10804059749E+04  0.10836342455E+04  0.81381510890E+02 0.  0.
         25    2    1    2    0    0 -0.32795936636E+01  0.13103955231E+02  0.18764566618E+02  0.12720905845E+03  0.12509023229E+03 0.  0.
        -24    2    1    2    0    0  0.78014189402E+01 -0.31616388225E+02  0.19632407697E+03  0.21579527760E+03  0.83450587126E+02 0.  0.
        -13    1    3    3    0    0 -0.21205312782E+02  0.41821239248E+02 -0.87281521600E+03  0.87407384278E+03  0.00000000000E+00 0.  1.
         14    1    3    3    0    0  0.16683487506E+02 -0.23308806254E+02 -0.20759075890E+03  0.20956040271E+03  0.00000000000E+00 0. -1.
         11    1    5    5    0    0 -0.18977878949E+02 -0.62564450475E+01  0.45330940530E+01  0.20490288815E+02  0.00000000000E+00 0. -1.
        -12    1    5    5    0    0  0.26779297889E+02 -0.25359943178E+02  0.19179098292E+03  0.19530498878E+03  0.00000000000E+00 0.  1.
          5    1    4    4  501    0 -0.87827402030E+01 -0.46473878563E+00 -0.52979436811E+02  0.53866925218E+02  0.41800000000E+01 0.  1.
         -5    1    4    4    0  501  0.55031465394E+01  0.13568694017E+02  0.71744003428E+02  0.73342133232E+02  0.41800000000E+01 0.  1.
</event>
<event>
11    1  0.8551154E-009  0.2024827E+03  0.7561462E-02  0.1052782E+00
         22   -1    0    0    0    0  0.00000000000E+00  0.00000000000E+00  0.48883185883E+03  0.48883185883E+03  0.00000000000E+00 0. -1.
         22   -1    0    0    0    0 -0.00000000000E+00 -0.00000000000E+00 -0.12985243091E+04  0.12985243091E+04  0.00000000000E+00 0.  1.
         24    2    1    2    0    0  0.89316223009E+02  0.70720086737E+02 -0.12099635663E+04  0.12180409210E+04  0.81444061887E+02 0.  0.
         25    2    1    2    0    0  0.63973782723E+01 -0.19087025804E+03  0.19227704834E+03  0.29847910977E+03  0.12508770442E+03 0.  0.
        -24    2    1    2    0    0 -0.95713601282E+02  0.12015017131E+03  0.20799406767E+03  0.27083613715E+03  0.80582404190E+02 0.  0.
        -11    1    3    3    0    0  0.77034252356E+02  0.29744780777E+02 -0.10192149716E+04  0.10225547352E+04  0.00000000000E+00 0.  1.
         12    1    3    3    0    0  0.12281970653E+02  0.40975305960E+02 -0.19074859464E+03  0.19548618585E+03  0.00000000000E+00 0. -1.
         13    1    5    5    0    0 -0.74265528957E+02  0.41910050882E+02  0.14462541682E+03  0.16789381271E+03  0.00000000000E+00 0. -1.
        -14    1    5    5    0    0 -0.21448072325E+02  0.78240120425E+02  0.63368650852E+02  0.10294232444E+03  0.00000000000E+00 0.  1.
          5    1    4    4  501    0 -0.24647481520E+02 -0.11913506974E+02  0.80593741368E+02  0.85218856724E+02  0.41800000000E+01 0. -1.
         -5    1    4    4    0  501  0.31044859793E+02 -0.17895675107E+03  0.11168330697E+03  0.21326025304E+03  0.41800000000E+01 0. -1.
</event>
<event>
11    1  0.8551154E-009  0.1326205E+03  0.7561462E-02  0.1116090E+00
         22   -1    0    0    0    0  0.00000000000E+00  0.00000000000E+00  0.11203417349E+04  0.11203417349E+04  0.00000000000E+00 0. -1.
         22   -1    0    0    0    0 -0.00000000000E+00 -0.00000000000E+00 -0.50962885770E+03  0.50962885770E+03  0.00000000000E+00 0.  1.
         24    2    1    2    0    0 -0.42261493679E+02 -0.93647472304E+01 -0.45714912974E+03  0.46658732647E+03  0.82732545326E+02 0.  0.
         25    2    1    2    0    0  0.59558569407E+02  0.12710913101E+02  0.59923690672E+02  0.15148724471E+03  0.12509494835E+03 0.  0.
        -24    2    1    2    0    0 -0.17297075728E+02 -0.33461658701E+01  0.10079383163E+04  0.10118960215E+04  0.87655707872E+02 0.  0.
        -13    1    3    3    0    0 -0.27540500672E+02 -0.17489677589E+02 -0.44411756842E+03  0.44531425149E+03  0.00000000000E+00 0.  1.
         14    1    3    3    0    0 -0.14720993007E+02  0.81249303588E+01 -0.13031561318E+02  0.21273074974E+02  0.00000000000E+00 0. -1.
         13    1    5    5    0    0 -0.14897631712E+02  0.33764656265E+02  0.78581635426E+03  0.78668248618E+03  0.00000000000E+00 0. -1.
        -14    1    5    5    0    0 -0.23994440166E+01 -0.37110822135E+02  0.22212196205E+03  0.22521353529E+03  0.00000000000E+00 0.  1.
          5    1    4    4  501    0  0.36218756821E+02  0.63538319616E+02  0.61095536485E+02  0.95388958395E+02  0.41800000000E+01 0. -1.
         -5    1    4    4    0  501  0.23339812586E+02 -0.50827406516E+02 -0.11718458125E+01  0.56098286313E+02  0.41800000000E+01 0. -1.
</event>
<event>
11    1  0.8551154E-009  0.1339475E+03  0.7561462E-02  0.1114512E+00
         22   -1    0    0    0    0  0.00000000000E+00  0.00000000000E+00  0.71380488049E+03  0.71380488049E+03  0.00000000000E+00 0. -1.
         22   -1    0    0    0    0 -0.00000000000E+00 -0.00000000000E+00 -0.12998488298E+03  0.12998488298E+03  0.00000000000E+00 0.  1.
         24    2    1    2    0    0 -0.22289323660E+02  0.13404448058E+02 -0.94410897908E+02  0.12763841532E+03  0.81863631998E+02 0.  0.
         25    2    1    2    0    0 -0.18634036474E+02 -0.43641257631E+02  0.37754654355E+03  0.40054986887E+03  0.12508804189E+03 0.  0.
        -24    2    1    2    0    0  0.40923360134E+02  0.30236809573E+02  0.30068435188E+03  0.31560147929E+03  0.81266402691E+02 0.  0.
        -13    1    3    3    0    0 -0.43112611972E+02  0.85575348812E+01 -0.96616899072E+02  0.10614496644E+03  0.00000000000E+00 0.  1.
         14    1    3    3    0    0  0.20823288312E+02  0.48469131766E+01  0.22060011642E+01  0.21493448877E+02  0.00000000000E+00 0. -1.
         11    1    5    5    0    0  0.52241142076E+02  0.54995427110E+01  0.98836091305E+02  0.11192834690E+03  0.00000000000E+00 0. -1.
        -12    1    5    5    0    0 -0.11317781942E+02  0.24737266862E+02  0.20184826057E+03  0.20367313238E+03  0.00000000000E+00 0.  1.
          5    1    4    4  501    0 -0.22543373589E+02 -0.74709748533E+02  0.35005314048E+03  0.35867035531E+03  0.41800000000E+01 0.  1.
         -5    1    4    4    0  501  0.39093371152E+01  0.31068490901E+02  0.27493403062E+02  0.41879513554E+02  0.41800000000E+01 0.  1.
</event>
<event>
11    1  0.8551154E-009  0.1589970E+03  0.7561462E-02  0.1088024E+00
         22   -1    0    0    0    0  0.00000000000E+00  0.00000000000E+00  0.10012582844E+04  0.10012582844E+04  0.00000000000E+00 0. -1.
         22   -1    0    0    0    0 -0.00000000000E+00 -0.00000000000E+00 -0.32485142160E+03  0.32485142160E+03  0.00000000000E+00 0.  1.
        -24    2    1    2    0    0 -0.96165726556E+02  0.21943173468E+02 -0.29094133451E+03  0.31752107934E+03  0.80270952879E+02 0.  0.
         25    2    1    2    0    0  0.89302089126E+02  0.76831291416E+01  0.32097274417E+03  0.35595754281E+03  0.12509346980E+03 0.  0.
         24    2    1    2    0    0  0.68636374298E+01 -0.29626302610E+02  0.64637545313E+03  0.65263108383E+03  0.84860343243E+02 0.  0.
        -13    1    5    5    0    0 -0.16358095592E+02 -0.38938803472E+02  0.15595453673E+03  0.16157238389E+03  0.00000000000E+00 0.  1.
         14    1    5    5    0    0  0.23221733021E+02  0.93125008616E+01  0.49042091639E+03  0.49105869995E+03  0.00000000000E+00 0. -1.
         11    1    3    3    0    0 -0.53606198726E+02 -0.20272564424E+02 -0.81247866507E+02  0.99427447026E+02  0.00000000000E+00 0. -1.
        -12    1    3    3    0    0 -0.42559527829E+02  0.42215737892E+02 -0.20969346800E+03  0.21809363232E+03  0.00000000000E+00 0.  1.
          5    1    4    4  501    0  0.10404199277E+03  0.45088552743E+02  0.23662467274E+03  0.26242412617E+03  0.41800000000E+01 0. -1.
         -5    1    4    4    0  501 -0.14739903642E+02 -0.37405423601E+02  0.84348071431E+02  0.93533416640E+02  0.41800000000E+01 0. -1.
</event>
<event>
11    1  0.8551154E-009  0.2444551E+03  0.7561462E-02  0.1026895E+00
         22   -1    0    0    0    0  0.00000000000E+00  0.00000000000E+00  0.15251663705E+03  0.15251663705E+03  0.00000000000E+00 0. -1.
         22   -1    0    0    0    0 -0.00000000000E+00 -0.00000000000E+00 -0.14545975913E+04  0.14545975913E+04  0.00000000000E+00 0.  1.
         24    2    1    2    0    0 -0.42516980850E+02 -0.48203444320E+02 -0.66885192180E+03  0.67693923407E+03  0.82174008153E+02 0.  0.
         25    2    1    2    0    0  0.22427296493E+03 -0.53049445534E+02 -0.65309871547E+03  0.70377350928E+03  0.12508642515E+03 0.  0.
        -24    2    1    2    0    0 -0.18175598408E+03  0.10125288985E+03  0.19869682973E+02  0.22640148504E+03  0.87037018997E+02 0.  0.
        -13    1    3    3    0    0  0.68767274942E+01 -0.42379650123E+02 -0.47019044492E+03  0.47214656476E+03  0.00000000000E+00 0.  1.
         14    1    3    3    0    0 -0.49393708344E+02 -0.58237941979E+01 -0.19866147689E+03  0.20479266931E+03  0.00000000000E+00 0. -1.
         11    1    5    5    0    0 -0.16670266096E+03  0.54797520486E+02  0.25198943477E+02  0.17727812097E+03  0.00000000000E+00 0. -1.
        -12    1    5    5    0    0 -0.15053323116E+02  0.46455369369E+02 -0.53292605036E+01  0.49123364070E+02  0.00000000000E+00 0.  1.
          5    1    4    4  501    0  0.19044076716E+03 -0.46204689487E+02 -0.37151927143E+03  0.42005547320E+03  0.41800000000E+01 0. -1.
         -5    1    4    4    0  501  0.33832197765E+02 -0.68447560477E+01 -0.28157944404E+03  0.28371803608E+03  0.41800000000E+01 0. -1.
</event>
<event>
11    1  0.8551154E-009  0.1657814E+03  0.7561462E-02  0.1081762E+00
         22   -1    0    0    0    0  0.00000000000E+00  0.00000000000E+00  0.38079168900E+03  0.38079168900E+03  0.00000000000E+00 0.  1.
         22   -1    0    0    0    0 -0.00000000000E+00 -0.00000000000E+00 -0.72040899579E+03  0.72040899579E+03  0.00000000000E+00 0. -1.
         24    2    1    2    0    0  0.81664448790E+01 -0.17186819076E+02 -0.46923690730E+03  0.47653952592E+03  0.80898498241E+02 0.  0.
         25    2    1    2    0    0  0.63006525058E+02 -0.66387069155E+02 -0.20869946268E+03  0.25996121985E+03  0.12508918799E+03 0.  0.
        -24    2    1    2    0    0 -0.71172969937E+02  0.83573888231E+02  0.33831906320E+03  0.36469993902E+03  0.80598204430E+02 0.  0.
        -13    1    3    3    0    0 -0.12039746916E+02 -0.45775853693E+02 -0.30098042694E+03  0.30467950652E+03  0.00000000000E+00 0.  1.
         14    1    3    3    0    0  0.20206191795E+02  0.28589034617E+02 -0.16825648036E+03  0.17186001941E+03  0.00000000000E+00 0. -1.
         11    1    5    5    0    0 -0.74280980478E+01  0.15986586027E+01 -0.28210953784E+01  0.81049940821E+01  0.00000000000E+00 0. -1.
        -12    1    5    5    0    0 -0.63744871889E+02  0.81975229628E+02  0.34114015858E+03  0.35659494494E+03  0.00000000000E+00 0.  1.
          5    1    4    4  501    0 -0.35345751892E+02  0.11447514219E+01 -0.49146675378E+02  0.60691850634E+02  0.41800000000E+01 0. -1.
         -5    1    4    4    0  501  0.98352276950E+02 -0.67531820577E+02 -0.15955278730E+03  0.19926936922E+03  0.41800000000E+01 0. -1.
</event>
<event>
11    1  0.8551154E-009  0.1362065E+03  0.7561462E-02  0.1111870E+00
         22   -1    0    0    0    0  0.00000000000E+00  0.00000000000E+00  0.16342233869E+03  0.16342233869E+03  0.00000000000E+00 0.  1.
         22   -1    0    0    0    0 -0.00000000000E+00 -0.00000000000E+00 -0.82763096716E+03  0.82763096716E+03  0.00000000000E+00 0.  1.
        -24    2    1    2    0    0 -0.17370495105E+02 -0.14447668428E+02 -0.64906156783E+03  0.65448502172E+03  0.80989231421E+02 0.  0.
         25    2    1    2    0    0 -0.30885965451E+02  0.40287293177E+02 -0.12850985901E+03  0.18638500716E+03  0.12509028012E+03 0.  0.
         24    2    1    2    0    0  0.48256460556E+02 -0.25839624749E+02  0.11336279836E+03  0.15018327696E+03  0.81899453204E+02 0.  0.
        -11    1    5    5    0    0  0.43774666023E+02  0.87880150004E+01  0.10526175621E+03  0.11433935418E+03  0.00000000000E+00 0.  1.
         12    1    5    5    0    0  0.44817945337E+01 -0.34627639750E+02  0.81010421486E+01  0.35843922787E+02  0.00000000000E+00 0. -1.
         13    1    3    3    0    0 -0.62562818996E+01  0.27488167466E+02 -0.10571871407E+03  0.10941291934E+03  0.00000000000E+00 0. -1.
        -14    1    3    3    0    0 -0.11114213206E+02 -0.41935835894E+02 -0.54334285376E+03  0.54507210239E+03  0.00000000000E+00 0.  1.
          5    1    4    4  501    0  0.16410207526E+02  0.66812458845E+02 -0.10828258182E+03  0.12835805193E+03  0.41800000000E+01 0.  1.
         -5    1    4    4    0  501 -0.47296172977E+02 -0.26525165667E+02 -0.20227277182E+02  0.58026955238E+02  0.41800000000E+01 0.  1.
</event>
<event>
11    1  0.8551154E-009  0.4522927E+03  0.7561462E-02  0.9506936E-01
         22   -1    0    0    0    0  0.00000000000E+00  0.00000000000E+00  0.99110655567E+03  0.99110655567E+03  0.00000000000E+00 0.  1.
         22   -1    0    0    0    0 -0.00000000000E+00 -0.00000000000E+00 -0.16440608868E+04  0.16440608868E+04  0.00000000000E+00 0.  1.
        -24    2    1    2    0    0 -0.11683521387E+03  0.34711291239E+02 -0.87000243944E+03  0.88218250738E+03  0.80538132372E+02 0.  0.
         25    2    1    2    0    0  0.51208812451E+03  0.12944727935E+03 -0.61099587449E+03  0.81728505103E+03  0.12509216842E+03 0.  0.
         24    2    1    2    0    0 -0.39525291063E+03 -0.16415857059E+03  0.82804398283E+03  0.93569988402E+03  0.81881229807E+02 0.  0.
        -13    1    5    5    0    0 -0.37461772937E+03 -0.13589734722E+03  0.78381336325E+03  0.87930081346E+03  0.00000000000E+00 0.  1.
         14    1    5    5    0    0 -0.20635181263E+02 -0.28261223364E+02  0.44230619580E+02  0.56399070562E+02  0.00000000000E+00 0. -1.
         13    1    3    3    0    0 -0.95622829727E+02  0.15707650602E+01 -0.43420841806E+03  0.44461572530E+03  0.00000000000E+00 0. -1.
        -14    1    3    3    0    0 -0.21212384148E+02  0.33140526179E+02 -0.43579402138E+03  0.43756678209E+03  0.00000000000E+00 0.  1.
          5    1    4    4  501    0  0.26738879597E+03  0.81665517252E+01 -0.33846429330E+03  0.43143830499E+03  0.41800000000E+01 0.  1.
         -5    1    4    4    0  501  0.24469932854E+03  0.12128072762E+03 -0.27253158119E+03  0.38584674604E+03  0.41800000000E+01 0.  1.
</event>
<event>
11    1  0.8551154E-009  0.1319284E+03  0.7561462E-02  0.1116922E+00
         22   -1    0    0    0    0  0.00000000000E+00  0.00000000000E+00  0.70504725049E+02  0.70504725049E+02  0.00000000000E+00 0.  1.
         22   -1    0    0    0    0 -0.00000000000E+00 -0.00000000000E+00 -0.33783371559E+04  0.33783371559E+04  0.00000000000E+00 0. -1.
         24    2    1    2    0    0 -0.10337264982E+02 -0.41107530639E+02 -0.32066871612E+04  0.32079310215E+04  0.78626969254E+02 0.  0.
         25    2    1    2    0    0 -0.16210023062E+02  0.20139636580E+02 -0.80836533518E+02  0.15116373833E+03  0.12509021075E+03 0.  0.
        -24    2    1    2    0    0  0.26547288044E+02  0.20967894058E+02 -0.20308736101E+02  0.89747121157E+02  0.80608249642E+02 0.  0.
        -11    1    3    3    0    0  0.30951643129E+02 -0.35521208628E+02 -0.18771714352E+04  0.18777625935E+04  0.00000000000E+00 0.  1.
         12    1    3    3    0    0 -0.41288908111E+02 -0.55863220112E+01 -0.13295157260E+04  0.13301684280E+04  0.00000000000E+00 0. -1.
         13    1    5    5    0    0 -0.14170448027E+02  0.37605308794E+02 -0.21834185958E+02  0.45735025126E+02  0.00000000000E+00 0. -1.
        -14    1    5    5    0    0  0.40717736071E+02 -0.16637414736E+02  0.15254498574E+01  0.44012096032E+02  0.00000000000E+00 0.  1.
          5    1    4    4  501    0 -0.48514492053E+02  0.25030811822E+02 -0.99306712619E+02  0.11339970481E+03  0.41800000000E+01 0.  1.
         -5    1    4    4    0  501  0.32304468991E+02 -0.48911752419E+01  0.18470179101E+02  0.37764033525E+02  0.41800000000E+01 0.  1.
</event>
<event>
11    1  0.8551154E-009  0.1672065E+03  0.7561462E-02  0.1080489E+00
         22   -1    0    0    0    0  0.00000000000E+00  0.00000000000E+00  0.21222753907E+03  0.21222753907E+03  0.00000000000E+00 0. -1.
         22   -1    0    0    0    0 -0.00000000000E+00 -0.00000000000E+00 -0.13799843302E+04  0.13799843302E+04  0.00000000000E+00 0.  1.
        -24    2    1    2    0    0 -0.16849384707E+02  0.21532735202E+02 -0.11697512887E+04  0.11728595594E+04  0.80832594878E+02 0.  0.
         25    2    1    2    0    0  0.30260468084E+02 -0.12858320703E+03 -0.13595223329E+03  0.22711123173E+03  0.12508862772E+03 0.  0.
         24    2    1    2    0    0 -0.13411083377E+02  0.10705047183E+03  0.13794673080E+03  0.19224107810E+03  0.79294835233E+02 0.  0.
        -13    1    5    5    0    0 -0.22025033567E+02  0.39533332793E+02  0.85793113949E+01  0.46060732618E+02  0.00000000000E+00 0.  1.
         14    1    5    5    0    0  0.86139501908E+01  0.67517139037E+02  0.12936741941E+03  0.14618034548E+03  0.00000000000E+00 0. -1.
         11    1    3    3    0    0 -0.18481709378E+02 -0.76153431375E+00 -0.57886083262E+02  0.60769664731E+02  0.00000000000E+00 0. -1.
        -12    1    3    3    0    0  0.16323246711E+01  0.22294269516E+02 -0.11118652054E+04  0.11120898947E+04  0.00000000000E+00 0.  1.
          5    1    4    4  501    0  0.22994643243E+02 -0.22830575551E+01 -0.89096549123E+02  0.92139206830E+02  0.41800000000E+01 0.  1.
         -5    1    4    4    0  501  0.72658248412E+01 -0.12630014948E+03 -0.46855684163E+02  0.13497202490E+03  0.41800000000E+01 0.  1.
</event>
<event>
11    1  0.8551154E-009  0.1515565E+03  0.7561462E-02  0.1095299E+00
         22   -1    0    0    0    0  0.00000000000E+00  0.00000000000E+00  0.25025471708E+03  0.25025471708E+03  0.00000000000E+00 0. -1.
         22   -1    0    0    0    0 -0.00000000000E+00 -0.00000000000E+00 -0.85462168495E+03  0.85462168495E+03  0.00000000000E+00 0. -1.
        -24    2    1    2    0    0 -0.12346930012E+02  0.37459945803E+02 -0.72817320808E+03  0.73376121945E+03  0.81324116856E+02 0.  0.
         25    2    1    2    0    0  0.86394414472E+02 -0.71563633866E+02 -0.38705183203E+02  0.17243043570E+03  0.12509522535E+03 0.  0.
         24    2    1    2    0    0 -0.74047484460E+02  0.34103688064E+02  0.16251142341E+03  0.19868474689E+03  0.80122246677E+02 0.  0.
        -11    1    5    5    0    0 -0.45664528732E+01 -0.22407038804E+02  0.49185728736E+02  0.54241716336E+02  0.00000000000E+00 0.  1.
         12    1    5    5    0    0 -0.69481031587E+02  0.56510726867E+02  0.11332569468E+03  0.14444303055E+03  0.00000000000E+00 0. -1.
         11    1    3    3    0    0  0.30672809246E+02  0.28106760030E+02 -0.23743931943E+03  0.24105651122E+03  0.00000000000E+00 0. -1.
        -12    1    3    3    0    0 -0.43019739257E+02  0.93531857733E+01 -0.49073388864E+03  0.49270470823E+03  0.00000000000E+00 0.  1.
          5    1    4    4  501    0  0.14253497844E+02 -0.41147153565E+02 -0.74381786151E+02  0.86292369062E+02  0.41800000000E+01 0.  1.
         -5    1    4    4    0  501  0.72140916628E+02 -0.30416480301E+02  0.35676602948E+02  0.86138066636E+02  0.41800000000E+01 0.  1.
</event>
<event>
11    1  0.8551154E-009  0.1890879E+03  0.7561462E-02  0.1062520E+00
         22   -1    0    0    0    0  0.00000000000E+00  0.00000000000E+00  0.44322569723E+03  0.44322569723E+03  0.00000000000E+00 0.  1.
         22   -1    0    0    0    0 -0.00000000000E+00 -0.00000000000E+00 -0.43292676000E+03  0.43292676000E+03  0.00000000000E+00 0.  1.
        -24    2    1    2    0    0 -0.14008280012E+03  0.24101339021E+02 -0.34657389008E+03  0.38310906767E+03  0.80343207638E+02 0.  0.
         25    2    1    2    0    0  0.14130328119E+03  0.22701539617E+01  0.80806673575E+02  0.20529966459E+03  0.12508582219E+03 0.  0.
         24    2    1    2    0    0 -0.12204810728E+01 -0.26371492983E+02  0.27606615373E+03  0.28774372497E+03  0.76726689019E+02 0.  0.
        -13    1    5    5    0    0  0.25373379048E+02 -0.42581846803E+02  0.18358237253E+03  0.19015653958E+03  0.00000000000E+00 0.  1.
         14    1    5    5    0    0 -0.26593860121E+02  0.16210353820E+02  0.92483781203E+02  0.97587185392E+02  0.00000000000E+00 0. -1.
         11    1    3    3    0    0 -0.33307740662E+02 -0.23630972192E+02 -0.51680812755E+02  0.65869073485E+02  0.00000000000E+00 0. -1.
        -12    1    3    3    0    0 -0.10677505945E+03  0.47732311214E+02 -0.29489307733E+03  0.31723999419E+03  0.00000000000E+00 0.  1.
          5    1    4    4  501    0  0.12766063750E+03  0.18289064409E+02  0.78677020817E+01  0.12927142523E+03  0.41800000000E+01 0. -1.
         -5    1    4    4    0  501  0.13642643690E+02 -0.16018910447E+02  0.72938971494E+02  0.76028239367E+02  0.41800000000E+01 0. -1.
</event>
<event>
11    1  0.8551154E-009  0.1481696E+03  0.7561462E-02  0.1098764E+00
         22   -1    0    0    0    0  0.00000000000E+00  0.00000000000E+00  0.81328944782E+02  0.81328944782E+02  0.00000000000E+00 0.  1.
         22   -1    0    0    0    0 -0.00000000000E+00 -0.00000000000E+00 -0.10524292961E+04  0.10524292961E+04  0.00000000000E+00 0.  1.
        -24    2    1    2    0    0 -0.12885930715E+02  0.73242256199E+02 -0.42760095331E+03  0.44136262987E+03  0.80174313057E+02 0.  0.
         25    2    1    2    0    0  0.57649165977E+02 -0.73131500418E+02 -0.57920013871E+03  0.59982673899E+03  0.12509066090E+03 0.  0.
         24    2    1    2    0    0 -0.44763235262E+02 -0.11075578124E+00  0.35700740724E+02  0.92568871987E+02  0.72737154706E+02 0.  0.
        -11    1    5    5    0    0 -0.62161397767E+02  0.87818248938E+01  0.37199660114E+02  0.72972423102E+02  0.00000000000E+00 0.  1.
         12    1    5    5    0    0  0.17398162504E+02 -0.88925806750E+01 -0.14989193893E+01  0.19596448885E+02  0.00000000000E+00 0. -1.
         13    1    3    3    0    0  0.10491960667E+02  0.49480587585E+01 -0.24110990283E+03  0.24138879379E+03  0.00000000000E+00 0. -1.
        -14    1    3    3    0    0 -0.23377891382E+02  0.68294197441E+02 -0.18649105048E+03  0.19997383608E+03  0.00000000000E+00 0.  1.
          5    1    4    4  501    0 -0.12277426767E+02 -0.32885407933E+02 -0.41821988671E+03  0.41971124753E+03  0.41800000000E+01 0. -1.
         -5    1    4    4    0  501  0.69926592744E+02 -0.40246092485E+02 -0.16098025200E+03  0.18011549147E+03  0.41800000000E+01 0. -1.
</event>
<event>
11    1  0.8551154E-009  0.2113755E+03  0.7561462E-02  0.1046759E+00
         22   -1    0    0    0    0  0.00000000000E+00  0.00000000000E+00  0.60975694333E+03  0.60975694333E+03  0.00000000000E+00 0.  1.
         22   -1    0    0    0    0 -0.00000000000E+00 -0.00000000000E+00 -0.19408141085E+04  0.19408141085E+04  0.00000000000E+00 0.  1.
         24    2    1    2    0    0 -0.15781555393E+03  0.45019364332E+02 -0.14401435077E+04  0.14512868922E+04  0.72717454990E+02 0.  0.
         25    2    1    2    0    0  0.17150840048E+03 -0.14775187305E+03 -0.45165291609E+03  0.52046426778E+03  0.12508776920E+03 0.  0.
        -24    2    1    2    0    0 -0.13692846548E+02  0.10273250872E+03  0.56073925867E+03  0.57881989187E+03  0.99310063026E+02 0.  0.
        -11    1    3    3    0    0 -0.11816268152E+03  0.32742714544E+00 -0.86121235646E+03  0.86928088063E+03  0.00000000000E+00 0.  1.
         12    1    3    3    0    0 -0.39652872412E+02  0.44691937187E+02 -0.57893115127E+03  0.58200601152E+03  0.00000000000E+00 0. -1.
         13    1    5    5    0    0  0.21529457603E+02 -0.90264537433E+01  0.56272474239E+02  0.60922785301E+02  0.00000000000E+00 0. -1.
        -14    1    5    5    0    0 -0.35222304151E+02  0.11175896246E+03  0.50446678443E+03  0.51789710657E+03  0.00000000000E+00 0.  1.
          5    1    4    4  501    0  0.90274638486E+02 -0.14223222250E+03 -0.36190387830E+03  0.39921348299E+03  0.41800000000E+01 0. -1.
         -5    1    4    4    0  501  0.81233761990E+02 -0.55196505517E+01 -0.89749037786E+02  0.12125078479E+03  0.41800000000E+01 0. -1.
</event>
<event>
11    1  0.8551154E-009  0.1551662E+03  0.7561462E-02  0.1091714E+00
         22   -1    0    0    0    0  0.00000000000E+00  0.00000000000E+00  0.30426961003E+03  0.30426961003E+03  0.00000000000E+00 0.  1.
         22   -1    0    0    0    0 -0.00000000000E+00 -0.00000000000E+00 -0.90786425628E+03  0.90786425628E+03  0.00000000000E+00 0.  1.
         24    2    1    2    0    0 -0.12383228509E+02 -0.53575432520E+02 -0.81796921749E+03  0.82363845605E+03  0.79265340497E+02 0.  0.
         25    2    1    2    0    0 -0.63452859064E+02  0.97436356877E+02  0.38737520197E+02  0.17512542120E+03  0.12509280041E+03 0.  0.
        -24    2    1    2    0    0  0.75836087573E+02 -0.43860924356E+02  0.17563705104E+03  0.21336998907E+03  0.83686830931E+02 0.  0.
        -11    1    3    3    0    0 -0.32099570822E+02 -0.61331309992E+02 -0.47525385275E+03  0.48026881701E+03  0.00000000000E+00 0.  1.
         12    1    3    3    0    0  0.19716342313E+02  0.77558774714E+01 -0.34271536473E+03  0.34336963904E+03  0.00000000000E+00 0. -1.
         11    1    5    5    0    0  0.37385251964E+02  0.23061375099E+02  0.60881171398E+02  0.75073304954E+02  0.00000000000E+00 0. -1.
        -12    1    5    5    0    0  0.38450835608E+02 -0.66922299456E+02  0.11475587965E+03  0.13829668411E+03  0.00000000000E+00 0.  1.
          5    1    4    4  501    0 -0.59315405712E+02  0.20745154448E+02 -0.31987572043E+02  0.70635373242E+02  0.41800000000E+01 0.  1.
         -5    1    4    4    0  501 -0.41374533522E+01  0.76691202429E+02  0.70725092239E+02  0.10449004796E+03  0.41800000000E+01 0.  1.
</event>
<event>
11    1  0.8551154E-009  0.1623393E+03  0.7561462E-02  0.1084898E+00
         22   -1    0    0    0    0  0.00000000000E+00  0.00000000000E+00  0.92474729192E+03  0.92474729192E+03  0.00000000000E+00 0. -1.
         22   -1    0    0    0    0 -0.00000000000E+00 -0.00000000000E+00 -0.20389827174E+03  0.20389827174E+03  0.00000000000E+00 0.  1.
        -24    2    1    2    0    0 -0.47763020207E+02 -0.34093469678E+02 -0.13580305552E+03  0.16808689939E+03  0.79793891267E+02 0.  0.
         25    2    1    2    0    0 -0.47031711307E+02  0.82241666859E+02  0.87089032625E+02  0.17946594621E+03  0.12509137703E+03 0.  0.
         24    2    1    2    0    0  0.94794731513E+02 -0.48148197181E+02  0.76956304308E+03  0.78109271807E+03  0.81081853240E+02 0.  0.
        -11    1    5    5    0    0 -0.38198995989E+01 -0.18397656530E+02  0.28921706081E+03  0.28982679942E+03  0.00000000000E+00 0.  1.
         12    1    5    5    0    0  0.98614631112E+02 -0.29750540651E+02  0.48034598227E+03  0.49126591864E+03  0.00000000000E+00 0. -1.
         11    1    3    3    0    0 -0.34987997515E+00 -0.31025399438E+02 -0.84467216067E+01  0.32156569036E+02  0.00000000000E+00 0. -1.
        -12    1    3    3    0    0 -0.47413140231E+02 -0.30680702396E+01 -0.12735633392E+03  0.13593033036E+03  0.00000000000E+00 0.  1.
          5    1    4    4  501    0 -0.22340463729E+02  0.40010014254E+02 -0.28330867239E+02  0.54037098356E+02  0.41800000000E+01 0. -1.
         -5    1    4    4    0  501 -0.24691247578E+02  0.42231652605E+02  0.11541989986E+03  0.12542884785E+03  0.41800000000E+01 0. -1.
</event>
<event>
11    1  0.8551154E-009  0.2188886E+03  0.7561462E-02  0.1041916E+00
         22   -1    0    0    0    0  0.00000000000E+00  0.00000000000E+00  0.14601060406E+04  0.14601060406E+04  0.00000000000E+00 0.  1.
         22   -1    0    0    0    0 -0.00000000000E+00 -0.00000000000E+00 -0.80577088489E+03  0.80577088489E+03  0.00000000000E+00 0. -1.
         24    2    1    2    0    0 -0.15906690021E+03 -0.83879451197E+02 -0.77810960697E+03  0.80260076464E+03  0.79846013447E+02 0.  0.
         25    2    1    2    0    0  0.15910618987E+03  0.55536401885E+02  0.90757807033E+03  0.93152207442E+03  0.12504539100E+03 0.  0.
        -24    2    1    2    0    0 -0.39289656482E-01  0.28343049312E+02  0.52486669232E+03  0.53175408639E+03  0.80461380169E+02 0.  0.
        -11    1    3    3    0    0 -0.96362503133E+02 -0.29918004801E+02 -0.27906486166E+03  0.29674570937E+03  0.00000000000E+00 0.  1.
         12    1    3    3    0    0 -0.62704397077E+02 -0.53961446395E+02 -0.49904474532E+03  0.50585505527E+03  0.00000000000E+00 0. -1.
         13    1    5    5    0    0  0.13805615568E+02  0.33012827670E+01  0.13506221901E+02  0.19593660178E+02  0.00000000000E+00 0. -1.
        -14    1    5    5    0    0 -0.13844905224E+02  0.25041766545E+02  0.51136047042E+03  0.51216042621E+03  0.00000000000E+00 0.  1.
          5    1    4    4  501    0  0.45725910972E+02  0.61449906093E+02  0.18828231728E+03  0.20330925531E+03  0.41800000000E+01 0.  1.
         -5    1    4    4    0  501  0.11338027889E+03 -0.59135042080E+01  0.71929575305E+03  0.72821281912E+03  0.41800000000E+01 0.  1.
</event>
<event>
11    1  0.8551154E-009  0.1621750E+03  0.7561462E-02  0.1085049E+00
         22   -1    0    0    0    0  0.00000000000E+00  0.00000000000E+00  0.16037977110E+04  0.16037977110E+04  0.00000000000E+00 0. -1.
         22   -1    0    0    0    0 -0.00000000000E+00 -0.00000000000E+00 -0.86096385587E+02  0.86096385587E+02  0.00000000000E+00 0. -1.
         24    2    1    2    0    0 -0.90442504502E+02 -0.52684882762E+02 -0.20345593617E+02  0.13413179024E+03  0.81374753333E+02 0.  0.
         25    2    1    2    0    0  0.73825609313E+02  0.31319836564E+02  0.90938956280E+03  0.92145037739E+03  0.12510103238E+03 0.  0.
        -24    2    1    2    0    0  0.16616895190E+02  0.21365046198E+02  0.62865735619E+03  0.63431192892E+03  0.80056013387E+02 0.  0.
        -11    1    3    3    0    0 -0.17080784430E+01 -0.16546166942E+02  0.23478284401E+02  0.28773651330E+02  0.00000000000E+00 0.  1.
         12    1    3    3    0    0 -0.88734426059E+02 -0.36138715820E+02 -0.43823878018E+02  0.10535813891E+03  0.00000000000E+00 0. -1.
         13    1    5    5    0    0  0.84218952745E+01  0.47955208285E+02  0.51507572544E+03  0.51737185201E+03  0.00000000000E+00 0. -1.
        -14    1    5    5    0    0  0.81949999152E+01 -0.26590162087E+02  0.11358163075E+03  0.11694007691E+03  0.00000000000E+00 0.  1.
          5    1    4    4  501    0  0.10192505511E+03 -0.42521102688E+01  0.57794870676E+03  0.58689775715E+03  0.41800000000E+01 0. -1.
         -5    1    4    4    0  501 -0.28099445795E+02  0.35571946833E+02  0.33144085604E+03  0.33455262024E+03  0.41800000000E+01 0. -1.
</event>
<event>
11    1  0.8551154E-009  0.2306351E+03  0.7561462E-02  0.1034753E+00
         22   -1    0    0    0    0  0.00000000000E+00  0.00000000000E+00  0.19411852703E+04  0.19411852703E+04  0.00000000000E+00 0.  1.
         22   -1    0    0    0    0 -0.00000000000E+00 -0.00000000000E+00 -0.53964402833E+03  0.53964402833E+03  0.00000000000E+00 0. -1.
         24    2    1    2    0    0  0.35877985269E+02 -0.19285287711E+03 -0.43189160061E+03  0.48104620309E+03  0.79972700263E+02 0.  0.
         25    2    1    2    0    0  0.46239374996E+02  0.18722852155E+03  0.81172776487E+02  0.24379691387E+03  0.12512120719E+03 0.  0.
        -24    2    1    2    0    0 -0.82117360265E+02  0.56243555633E+01  0.17522600661E+04  0.17559861816E+04  0.79355130844E+02 0.  0.
        -11    1    3    3    0    0  0.18477163265E+02 -0.12117482883E+03 -0.34995290084E+03  0.37079883698E+03  0.00000000000E+00 0.  1.
         12    1    3    3    0    0  0.17400822003E+02 -0.71678048281E+02 -0.81938699777E+02  0.11024736610E+03  0.00000000000E+00 0. -1.
         13    1    5    5    0    0 -0.33342383573E+02  0.21427337938E+02  0.27549469562E+03  0.27833104870E+03  0.00000000000E+00 0. -1.
        -14    1    5    5    0    0 -0.48774976692E+02 -0.15802982375E+02  0.14767653704E+04  0.14776551329E+04  0.00000000000E+00 0.  1.
          5    1    4    4  501    0  0.72510034581E+02  0.15818027071E+03  0.99350831480E+02  0.20041647456E+03  0.41800000000E+01 0.  1.
         -5    1    4    4    0  501 -0.26270659585E+02  0.29048250833E+02 -0.18178054992E+02  0.43380439310E+02  0.41800000000E+01 0.  1.
</event>
<event>
11    1  0.8551154E-009  0.2022248E+03  0.7561462E-02  0.1052961E+00
         22   -1    0    0    0    0  0.00000000000E+00  0.00000000000E+00  0.61356050366E+03  0.61356050366E+03  0.00000000000E+00 0. -1.
         22   -1    0    0    0    0 -0.00000000000E+00 -0.00000000000E+00 -0.54481738520E+03  0.54481738520E+03  0.00000000000E+00 0.  1.
         24    2    1    2    0    0  0.23711947323E+02 -0.29251605308E+02 -0.47248008678E+03  0.48086390497E+03  0.81084831157E+02 0.  0.
         25    2    1    2    0    0 -0.15767169942E+03  0.93819781368E+02  0.20939444486E+03  0.30521470929E+03  0.12508984393E+03 0.  0.
        -24    2    1    2    0    0  0.13395975210E+03 -0.64568176060E+02  0.33182876038E+03  0.37229927460E+03  0.79888416629E+02 0.  0.
        -11    1    3    3    0    0  0.26623363441E+02 -0.55995462830E+02 -0.35176987646E+03  0.35719230300E+03  0.00000000000E+00 0.  1.
         12    1    3    3    0    0 -0.29114161180E+01  0.26743857522E+02 -0.12071021032E+03  0.12367160197E+03  0.00000000000E+00 0. -1.
         11    1    5    5    0    0  0.86240038438E+02 -0.79059322511E+01  0.23453698970E+03  0.25001489462E+03  0.00000000000E+00 0. -1.
        -12    1    5    5    0    0  0.47719713662E+02 -0.56662243809E+02  0.97291770679E+02  0.12228437998E+03  0.00000000000E+00 0.  1.
          5    1    4    4  501    0 -0.15102257224E+03  0.25737900683E+02  0.13766582765E+03  0.20600876039E+03  0.41800000000E+01 0. -1.
         -5    1    4    4    0  501 -0.66491271858E+01  0.68081880685E+02  0.71728617216E+02  0.99205948903E+02  0.41800000000E+01 0. -1.
</event>
<event>
11    1  0.8551154E-009  0.1478046E+03  0.7561462E-02  0.1099143E+00
         22   -1    0    0    0    0  0.00000000000E+00  0.00000000000E+00  0.16818487585E+04  0.16818487585E+04  0.00000000000E+00 0. -1.
         22   -1    0    0    0    0 -0.00000000000E+00 -0.00000000000E+00 -0.72976592828E+02  0.72976592828E+02  0.00000000000E+00 0. -1.
        -24    2    1    2    0    0  0.22676726197E+02  0.45034462750E+02 -0.18617958600E+02  0.97832375415E+02  0.81744776902E+02 0.  0.
         25    2    1    2    0    0 -0.58749423731E+02 -0.10079835883E+03  0.64589764466E+03  0.66816550198E+03  0.12509822834E+03 0.  0.
         24    2    1    2    0    0  0.36072697534E+02  0.55763896078E+02  0.98159247957E+03  0.98882747389E+03  0.99222606038E+02 0.  0.
        -13    1    5    5    0    0 -0.34383321299E+02  0.24662721771E+02  0.36436243947E+03  0.36681119111E+03  0.00000000000E+00 0.  1.
         14    1    5    5    0    0  0.70456018833E+02  0.31101174307E+02  0.61723004010E+03  0.62201628278E+03  0.00000000000E+00 0. -1.
         13    1    3    3    0    0 -0.17585835423E+02  0.41671114461E+02 -0.31849125850E+02  0.55318262856E+02  0.00000000000E+00 0. -1.
        -14    1    3    3    0    0  0.40262561620E+02  0.33633482886E+01  0.13231167250E+02  0.42514112560E+02  0.00000000000E+00 0.  1.
          5    1    4    4  501    0 -0.37802185599E+02 -0.12958426732E+03  0.49814614815E+03  0.51612803149E+03  0.41800000000E+01 0. -1.
         -5    1    4    4    0  501 -0.20947238131E+02  0.28785908496E+02  0.14775149651E+03  0.15203747049E+03  0.41800000000E+01 0. -1.
</event>
<event>
11    1  0.8551154E-009  0.1701038E+03  0.7561462E-02  0.1077941E+00
         22   -1    0    0    0    0  0.00000000000E+00  0.00000000000E+00  0.12453998738E+04  0.12453998738E+04  0.00000000000E+00 0. -1.
         22   -1    0    0    0    0 -0.00000000000E+00 -0.00000000000E+00 -0.22149404148E+03  0.22149404148E+03  0.00000000000E+00 0.  1.
        -24    2    1    2    0    0 -0.10800806540E+03  0.18615120687E+02 -0.99955577392E+02  0.16951614337E+03  0.82050840952E+02 0.  0.
         25    2    1    2    0    0  0.21670384330E+03 -0.31150018705E+02  0.11138874756E+03  0.27566815383E+03  0.12511833834E+03 0.  0.
         24    2    1    2    0    0 -0.10869577790E+03  0.12534898018E+02  0.10124726622E+04  0.10217096181E+04  0.82569705591E+02 0.  0.
        -11    1    5    5    0    0 -0.82784926875E+02 -0.73553043337E+01  0.40928746214E+03  0.41764060062E+03  0.00000000000E+00 0.  1.
         12    1    5    5    0    0 -0.25910851029E+02  0.19890202352E+02  0.60318520005E+03  0.60406901751E+03  0.00000000000E+00 0. -1.
         13    1    3    3    0    0  0.67044292549E+01  0.21044878054E+02 -0.18385254728E+02  0.28737673103E+02  0.00000000000E+00 0. -1.
        -14    1    3    3    0    0 -0.11471249465E+03 -0.24297573673E+01 -0.81570322664E+02  0.14077847026E+03  0.00000000000E+00 0.  1.
          5    1    4    4  501    0  0.19865792897E+01 -0.19180694252E+02  0.47270985275E+02  0.51223666192E+02  0.41800000000E+01 0. -1.
         -5    1    4    4    0  501  0.21471726401E+03 -0.11969324453E+02  0.64117762287E+02  0.22444448764E+03  0.41800000000E+01 0. -1.
</event>
<event>
11    1  0.8551154E-009  0.1430336E+03  0.7561462E-02  0.1104217E+00
         22   -1    0    0    0    0  0.00000000000E+00  0.00000000000E+00  0.10560651580E+04  0.10560651580E+04  0.00000000000E+00 0. -1.
         22   -1    0    0    0    0 -0.00000000000E+00 -0.00000000000E+00 -0.10765874593E+03  0.10765874593E+03  0.00000000000E+00 0.  1.
        -24    2    1    2    0    0 -0.60530219751E+02  0.28166854664E+02 -0.48101305092E+02  0.11385849954E+03  0.78693984282E+02 0.  0.
         25    2    1    2    0    0  0.67124476301E+02 -0.65906904703E+02  0.23007262091E+03  0.27826234710E+03  0.12508839880E+03 0.  0.
         24    2    1    2    0    0 -0.65942565495E+01  0.37740050039E+02  0.76643509630E+03  0.77160305733E+03  0.80502954310E+02 0.  0.
        -13    1    5    5    0    0 -0.33540323509E+02 -0.84294689087E+01  0.24369565062E+03  0.24613731813E+03  0.00000000000E+00 0.  1.
         14    1    5    5    0    0  0.26946066960E+02  0.46169518948E+02  0.52273944568E+03  0.52546573920E+03  0.00000000000E+00 0. -1.
         11    1    3    3    0    0 -0.60842211759E+00 -0.18392077706E+02  0.74099486488E+01  0.19837994828E+02  0.00000000000E+00 0. -1.
        -12    1    3    3    0    0 -0.59921797634E+02  0.46558932371E+02 -0.55511253741E+02  0.94020504716E+02  0.00000000000E+00 0.  1.
          5    1    4    4  501    0  0.44057104725E+02 -0.10055595209E+03  0.19434116079E+03  0.22324535192E+03  0.41800000000E+01 0.  1.
         -5    1    4    4    0  501  0.23067371575E+02  0.34649047386E+02  0.35731460122E+02  0.55016995179E+02  0.41800000000E+01 0.  1.
</event>
<event>
11    1  0.8551154E-009  0.1430282E+03  0.7561462E-02  0.1104223E+00
         22   -1    0    0    0    0  0.00000000000E+00  0.00000000000E+00  0.68796492729E+03  0.68796492729E+03  0.00000000000E+00 0.  1.
         22   -1    0    0    0    0 -0.00000000000E+00 -0.00000000000E+00 -0.29490587513E+04  0.29490587513E+04  0.00000000000E+00 0. -1.
         24    2    1    2    0    0 -0.18611885754E+02 -0.37652335688E+02 -0.29027992407E+04  0.29042094198E+04  0.80154982759E+02 0.  0.
         25    2    1    2    0    0 -0.40524513955E+02  0.72864262000E+02  0.99469914709E+02  0.18025563219E+03  0.12508553911E+03 0.  0.
        -24    2    1    2    0    0  0.59136399709E+02 -0.35211926313E+02  0.54223550202E+03  0.55255862662E+03  0.81022852776E+02 0.  0.
        -11    1    3    3    0    0 -0.63811891056E+01 -0.10066065819E+02 -0.56182044268E+02  0.57432284941E+02  0.00000000000E+00 0.  1.
         12    1    3    3    0    0 -0.12230696648E+02 -0.27586269869E+02 -0.28466171964E+04  0.28467771348E+04  0.00000000000E+00 0. -1.
         13    1    5    5    0    0  0.97073133317E+01  0.15593106667E+02  0.28170115965E+02  0.33629337506E+02  0.00000000000E+00 0. -1.
        -14    1    5    5    0    0  0.49429086377E+02 -0.50805032979E+02  0.51406538606E+03  0.51892928911E+03  0.00000000000E+00 0.  1.
          5    1    4    4  501    0  0.11287282958E+01  0.99826754231E+02  0.58597716522E+02  0.11583531271E+03  0.41800000000E+01 0.  1.
         -5    1    4    4    0  501 -0.41653242250E+02 -0.26962492231E+02  0.40872198187E+02  0.64420319480E+02  0.41800000000E+01 0.  1.
</event>
<event>
11    1  0.8551154E-009  0.1467522E+03  0.7561462E-02  0.1100244E+00
         22   -1    0    0    0    0  0.00000000000E+00  0.00000000000E+00  0.32971348992E+03  0.32971348992E+03  0.00000000000E+00 0.  1.
         22   -1    0    0    0    0 -0.00000000000E+00 -0.00000000000E+00 -0.35921123737E+03  0.35921123737E+03  0.00000000000E+00 0. -1.
         24    2    1    2    0    0 -0.35818876793E+02  0.20384183590E+01 -0.27416861488E+03  0.28816566399E+03  0.81141071203E+02 0.  0.
         25    2    1    2    0    0  0.10547843485E+03  0.26935454981E+01  0.43562789880E+02  0.16934704944E+03  0.12509097124E+03 0.  0.
        -24    2    1    2    0    0 -0.69659558053E+02 -0.47319638572E+01  0.20110807755E+03  0.23141201386E+03  0.90731558954E+02 0.  0.
        -11    1    3    3    0    0 -0.45788193913E+02  0.20836796847E+02 -0.92846096154E+02  0.10559890329E+03  0.00000000000E+00 0.  1.
         12    1    3    3    0    0  0.99693171197E+01 -0.18798378488E+02 -0.18132251873E+03  0.18256676071E+03  0.00000000000E+00 0. -1.
         13    1    5    5    0    0 -0.54322568531E+02 -0.80581961489E+01  0.36235639313E+02  0.65794357915E+02  0.00000000000E+00 0. -1.
        -14    1    5    5    0    0 -0.15336989522E+02  0.33262322917E+01  0.16487243824E+03  0.16561765594E+03  0.00000000000E+00 0.  1.
          5    1    4    4  501    0  0.50298508336E+02  0.87434393290E+01 -0.42696473561E+02  0.66684697845E+02  0.41800000000E+01 0.  1.
         -5    1    4    4    0  501  0.55179926510E+02 -0.60498938309E+01  0.86259263441E+02  0.10266235159E+03  0.41800000000E+01 0.  1.
</event>
<event>
11    1  0.8551154E-009  0.1779587E+03  0.7561462E-02  0.1071306E+00
         22   -1    0    0    0    0  0.00000000000E+00  0.00000000000E+00  0.10596061901E+04  0.10596061901E+04  0.00000000000E+00 0. -1.
         22   -1    0    0    0    0 -0.00000000000E+00 -0.00000000000E+00 -0.15050689469E+03  0.15050689469E+03  0.00000000000E+00 0.  1.
        -24    2    1    2    0    0  0.40687277599E+02 -0.10773997987E+03  0.19395735342E+02  0.14160862928E+03  0.80084027858E+02 0.  0.
         25    2    1    2    0    0  0.19907748075E+02  0.15064994038E+03  0.26464661503E+02  0.19859382230E+03  0.12508958781E+03 0.  0.
         24    2    1    2    0    0 -0.60595025675E+02 -0.42909960510E+02  0.86323889857E+03  0.86991063321E+03  0.77782336789E+02 0.  0.
        -11    1    5    5    0    0 -0.35628313775E+02 -0.27971991646E+01  0.12094626833E+03  0.12611582331E+03  0.00000000000E+00 0.  1.
         12    1    5    5    0    0 -0.24966711899E+02 -0.40112761345E+02  0.74229263024E+03  0.74379480990E+03  0.00000000000E+00 0. -1.
         13    1    3    3    0    0  0.73250449811E+01  0.36191987226E+01 -0.17773652275E+02  0.19561635887E+02  0.00000000000E+00 0. -1.
        -14    1    3    3    0    0  0.33362232618E+02 -0.11135917859E+03  0.37169387617E+02  0.12204699340E+03  0.00000000000E+00 0.  1.
          5    1    4    4  501    0 -0.46824118251E+02  0.10345679417E+03  0.26795320278E+02  0.11675302094E+03  0.41800000000E+01 0.  1.
         -5    1    4    4    0  501  0.66731866326E+02  0.47193146208E+02 -0.33065877530E+00  0.81840801362E+02  0.41800000000E+01 0.  1.
</event>
<event>
11    1  0.8551154E-009  0.1327745E+03  0.7561462E-02  0.1115906E+00
         22   -1    0    0    0    0  0.00000000000E+00  0.00000000000E+00  0.28225585119E+03  0.28225585119E+03  0.00000000000E+00 0.  1.
         22   -1    0    0    0    0 -0.00000000000E+00 -0.00000000000E+00 -0.63412511099E+03  0.63412511099E+03  0.00000000000E+00 0. -1.
        -24    2    1    2    0    0  0.42797717597E+02 -0.11113957740E+02 -0.57416213260E+03  0.58139189740E+03  0.79995119606E+02 0.  0.
         25    2    1    2    0    0 -0.45767893736E+02  0.33804380102E+02  0.54194342466E+02  0.14772105577E+03  0.12508815831E+03 0.  0.
         24    2    1    2    0    0  0.29701761397E+01 -0.22690422362E+02  0.16809853033E+03  0.18726800903E+03  0.79300151899E+02 0.  0.
        -11    1    5    5    0    0 -0.72105259569E+01 -0.30456640721E+02  0.17124552252E+03  0.17408224387E+03  0.00000000000E+00 0.  1.
         12    1    5    5    0    0  0.10180702097E+02  0.77662183590E+01 -0.31469921894E+01  0.13185765151E+02  0.00000000000E+00 0. -1.
         13    1    3    3    0    0  0.25523746015E+02  0.33184485119E+02 -0.32983645796E+03  0.33248272235E+03  0.00000000000E+00 0. -1.
        -14    1    3    3    0    0  0.17273971581E+02 -0.44298442858E+02 -0.24432567464E+03  0.24890917505E+03  0.00000000000E+00 0.  1.
          5    1    4    4  501    0 -0.78865112639E+02  0.55047417918E+02  0.48399392308E+02  0.10774923567E+03  0.41800000000E+01 0. -1.
         -5    1    4    4    0  501  0.33097218903E+02 -0.21243037816E+02  0.57949501583E+01  0.39971820100E+02  0.41800000000E+01 0. -1.
</event>
<event>
11    1  0.8551154E-009  0.1864162E+03  0.7561462E-02  0.1064568E+00
         22   -1    0    0    0    0  0.00000000000E+00  0.00000000000E+00  0.11459824176E+04  0.11459824176E+04  0.00000000000E+00 0. -1.
         22   -1    0    0    0    0 -0.00000000000E+00 -0.00000000000E+00 -0.55955056165E+03  0.55955056165E+03  0.00000000000E+00 0. -1.
        -24    2    1    2    0    0  0.41562948103E+02  0.78352983371E+02 -0.47451303478E+03  0.48930793403E+03  0.79956022077E+02 0.  0.
         25    2    1    2    0    0 -0.15116678890E+03 -0.15131522326E+03  0.14442167418E+03  0.28680989078E+03  0.12511833847E+03 0.  0.
         24    2    1    2    0    0  0.10960384080E+03  0.72962239884E+02  0.91652321655E+03  0.92941515444E+03  0.80381791801E+02 0.  0.
        -13    1    5    5    0    0  0.28770745743E+02  0.62330574991E+02  0.52688676196E+03  0.53134030180E+03  0.00000000000E+00 0.  1.
         14    1    5    5    0    0  0.80833095058E+02  0.10631664893E+02  0.38963645460E+03  0.39807485264E+03  0.00000000000E+00 0. -1.
         13    1    3    3    0    0  0.56414569119E+02  0.29510136695E+02 -0.32889163193E+03  0.33499724973E+03  0.00000000000E+00 0. -1.
        -14    1    3    3    0    0 -0.14851621017E+02  0.48842846676E+02 -0.14562140286E+03  0.15431068430E+03  0.00000000000E+00 0.  1.
          5    1    4    4  501    0 -0.14508282610E+03 -0.10882559993E+03  0.15906057796E+03  0.24126702528E+03  0.41800000000E+01 0.  1.
         -5    1    4    4    0  501 -0.60839628020E+01 -0.42489623329E+02 -0.14638903777E+02  0.45542865498E+02  0.41800000000E+01 0.  1.
</event>
<event>
11    1  0.8551154E-009  0.2501508E+03  0.7561462E-02  0.1023819E+00
         22   -1    0    0    0    0  0.00000000000E+00  0.00000000000E+00  0.36609319804E+03  0.36609319804E+03  0.00000000000E+00 0.  1.
         22   -1    0    0    0    0 -0.00000000000E+00 -0.00000000000E+00 -0.19042996782E+04  0.19042996782E+04  0.00000000000E+00 0. -1.
         24    2    1    2    0    0 -0.14734280379E+03  0.16191895387E+03 -0.18293565104E+04  0.18441911013E+04  0.81042745123E+02 0.  0.
         25    2    1    2    0    0  0.12728850103E+03 -0.77927001762E+02  0.19626444228E+03  0.27648314855E+03  0.12509284564E+03 0.  0.
        -24    2    1    2    0    0  0.20054302761E+02 -0.83991952105E+02  0.94885588030E+02  0.14971862631E+03  0.77172334240E+02 0.  0.
        -13    1    3    3    0    0 -0.31514984481E+02  0.88810592290E+02 -0.62367634937E+03  0.63075566134E+03  0.00000000000E+00 0.  1.
         14    1    3    3    0    0 -0.11582781931E+03  0.73108361577E+02 -0.12056801611E+04  0.12134354400E+04  0.00000000000E+00 0. -1.
         13    1    5    5    0    0  0.29401239997E+00  0.14581900218E+02  0.69664785016E+01  0.16163232349E+02  0.00000000000E+00 0. -1.
        -14    1    5    5    0    0  0.19760290361E+02 -0.98573852323E+02  0.87919109528E+02  0.13355539397E+03  0.00000000000E+00 0.  1.
          5    1    4    4  501    0 -0.59812647366E+01  0.82246796616E+01 -0.10904979764E+02  0.15485860229E+02  0.41800000000E+01 0. -1.
         -5    1    4    4    0  501  0.13326976577E+03 -0.86151681424E+02  0.20716942205E+03  0.26099728832E+03  0.41800000000E+01 0. -1.
</event>
<event>
11    1  0.8551154E-009  0.1448483E+03  0.7561462E-02  0.1102262E+00
         22   -1    0    0    0    0  0.00000000000E+00  0.00000000000E+00  0.16884535426E+04  0.16884535426E+04  0.00000000000E+00 0. -1.
         22   -1    0    0    0    0 -0.00000000000E+00 -0.00000000000E+00 -0.21894610100E+03  0.21894610100E+03  0.00000000000E+00 0.  1.
         24    2    1    2    0    0  0.50228859617E+02  0.48873085675E+02 -0.17235544353E+03  0.20262977636E+03  0.80255283383E+02 0.  0.
         25    2    1    2    0    0 -0.97520026083E+02 -0.77743134451E+02  0.23265311069E+03  0.29211121373E+03  0.12508933142E+03 0.  0.
        -24    2    1    2    0    0  0.47291166465E+02  0.28870048776E+02  0.14092097744E+04  0.14126586535E+04  0.81623212471E+02 0.  0.
        -13    1    3    3    0    0  0.58230367876E+02  0.12498656127E+02 -0.14396855470E+03  0.15580095279E+03  0.00000000000E+00 0.  1.
         14    1    3    3    0    0 -0.80015082582E+01  0.36374429548E+02 -0.28386888828E+02  0.46828823567E+02  0.00000000000E+00 0. -1.
         13    1    5    5    0    0  0.20913541323E+01 -0.21225721390E+02  0.67987257128E+03  0.68020704068E+03  0.00000000000E+00 0. -1.
        -14    1    5    5    0    0  0.45199812333E+02  0.50095770165E+02  0.72933720314E+03  0.73245161281E+03  0.00000000000E+00 0.  1.
          5    1    4    4  501    0 -0.11575494640E+02 -0.85238967051E+02  0.14761967736E+03  0.17090557370E+03  0.41800000000E+01 0. -1.
         -5    1    4    4    0  501 -0.85944531443E+02  0.74958326000E+01  0.85033433331E+02  0.12120564003E+03  0.41800000000E+01 0. -1.
</event>
<event>
11    1  0.8551154E-009  0.1562953E+03  0.7561462E-02  0.1090614E+00
         22   -1    0    0    0    0  0.00000000000E+00  0.00000000000E+00  0.69199693626E+03  0.69199693626E+03  0.00000000000E+00 0.  1.
         22   -1    0    0    0    0 -0.00000000000E+00 -0.00000000000E+00 -0.21400011497E+03  0.21400011497E+03  0.00000000000E+00 0.  1.
        -24    2    1    2    0    0 -0.19529725174E+02 -0.21461522586E+02 -0.17157292353E+03  0.19212398407E+03  0.81439241467E+02 0.  0.
         25    2    1    2    0    0  0.16228232155E+02 -0.79078000612E+02  0.23191800856E+03  0.27559198170E+03  0.12509313324E+03 0.  0.
         24    2    1    2    0    0  0.33014930190E+01  0.10053952320E+03  0.41765173625E+03  0.43828108545E+03  0.86823046971E+02 0.  0.
        -11    1    5    5    0    0  0.30397777673E+02  0.87294170795E+02  0.37379524119E+03  0.38505477464E+03  0.00000000000E+00 0.  1.
         12    1    5    5    0    0 -0.27096284654E+02  0.13245352403E+02  0.43856495067E+02  0.53226310805E+02  0.00000000000E+00 0. -1.
         13    1    3    3    0    0 -0.49203891959E+02 -0.20202692353E+01 -0.80280465239E+02  0.94180983064E+02  0.00000000000E+00 0. -1.
        -14    1    3    3    0    0  0.29674166785E+02 -0.19441253350E+02 -0.91292458286E+02  0.97943001006E+02  0.00000000000E+00 0.  1.
          5    1    4    4  501    0 -0.21400173972E+02 -0.54826772591E+02  0.25403465031E+02  0.64239791986E+02  0.41800000000E+01 0.  1.
         -5    1    4    4    0  501  0.37628406128E+02 -0.24251228021E+02  0.20651454353E+03  0.21135218972E+03  0.41800000000E+01 0.  1.
</event>
<event>
11    1  0.8551154E-009  0.1286678E+03  0.7561462E-02  0.1120917E+00
         22   -1    0    0    0    0  0.00000000000E+00  0.00000000000E+00  0.84509876877E+03  0.84509876877E+03  0.00000000000E+00 0. -1.
         22   -1    0    0    0    0 -0.00000000000E+00 -0.00000000000E+00 -0.43497784345E+03  0.43497784345E+03  0.00000000000E+00 0. -1.
         24    2    1    2    0    0 -0.29107531033E+02 -0.77343555393E+01 -0.41411896788E+03  0.42339445406E+03  0.82832816876E+02 0.  0.
         25    2    1    2    0    0  0.38222216437E+02 -0.23507965987E+02  0.34658527884E+03  0.37119062221E+03  0.12509020832E+03 0.  0.
        -24    2    1    2    0    0 -0.91146854035E+01  0.31242321526E+02  0.47765461436E+03  0.48549153595E+03  0.80553961521E+02 0.  0.
        -11    1    3    3    0    0 -0.35874342795E+02  0.69231120756E+01 -0.70576714663E+02  0.79473081005E+02  0.00000000000E+00 0.  1.
         12    1    3    3    0    0  0.67668117612E+01 -0.14657467615E+02 -0.34354225321E+03  0.34392137305E+03  0.00000000000E+00 0. -1.
         13    1    5    5    0    0 -0.18925390325E+02  0.25201527920E+02  0.47126368835E+03  0.47231636788E+03  0.00000000000E+00 0. -1.
        -14    1    5    5    0    0  0.98107049220E+01  0.60407936063E+01  0.63909260077E+01  0.13175168071E+02  0.00000000000E+00 0.  1.
          5    1    4    4  501    0  0.86724759903E+01  0.10142049225E+02  0.31710383349E+03  0.31741201397E+03  0.41800000000E+01 0.  1.
         -5    1    4    4    0  501  0.29549740447E+02 -0.33650015212E+02  0.29481445352E+02  0.53778608241E+02  0.41800000000E+01 0.  1.
</event>
<event>
11    1  0.8551154E-009  0.1368121E+03  0.7561462E-02  0.1111171E+00
         22   -1    0    0    0    0  0.00000000000E+00  0.00000000000E+00  0.14216219722E+04  0.14216219722E+04  0.00000000000E+00 0. -1.
         22   -1    0    0    0    0 -0.00000000000E+00 -0.00000000000E+00 -0.75694971130E+02  0.75694971130E+02  0.00000000000E+00 0.  1.
        -24    2    1    2    0    0 -0.59678967041E+02 -0.32886276083E+02  0.77305651666E+01  0.10567593387E+03  0.80402457055E+02 0.  0.
         25    2    1    2    0    0  0.10750138104E+03  0.16103238137E+02  0.26108041739E+03  0.30923549859E+03  0.12509095908E+03 0.  0.
         24    2    1    2    0    0 -0.47822413997E+02  0.16783037946E+02  0.10771160185E+04  0.10824055108E+04  0.94096328116E+02 0.  0.
        -13    1    5    5    0    0  0.10319060339E+02  0.32524166851E+02  0.17591371706E+03  0.17919246715E+03  0.00000000000E+00 0.  1.
         14    1    5    5    0    0 -0.58141474335E+02 -0.15741128905E+02  0.90120230144E+03  0.90321304369E+03  0.00000000000E+00 0. -1.
         11    1    3    3    0    0 -0.17650112815E+02 -0.53154013267E+02 -0.76900197979E+01  0.56533282350E+02  0.00000000000E+00 0. -1.
        -12    1    3    3    0    0 -0.42028854226E+02  0.20267737184E+02  0.15420584964E+02  0.49142651523E+02  0.00000000000E+00 0.  1.
          5    1    4    4  501    0  0.43926763301E+02  0.64357067439E+02  0.17589907002E+03  0.19243011172E+03  0.41800000000E+01 0. -1.
         -5    1    4    4    0  501  0.63574617736E+02 -0.48253829302E+02  0.85181347367E+02  0.11680538687E+03  0.41800000000E+01 0. -1.
</event>
<event>
11    1  0.8551154E-009  0.1525324E+03  0.7561462E-02  0.1094319E+00
         22   -1    0    0    0    0  0.00000000000E+00  0.00000000000E+00  0.42885574539E+03  0.42885574539E+03  0.00000000000E+00 0.  1.
         22   -1    0    0    0    0 -0.00000000000E+00 -0.00000000000E+00 -0.18904075657E+03  0.18904075657E+03  0.00000000000E+00 0. -1.
         24    2    1    2    0    0 -0.10068377612E+02 -0.77977916896E+02 -0.77626252740E+02  0.14192830043E+03  0.89083554015E+02 0.  0.
         25    2    1    2    0    0 -0.59876994831E+02  0.12448594488E+03  0.63202624252E+02  0.19678529269E+03  0.12509146543E+03 0.  0.
        -24    2    1    2    0    0  0.69945372443E+02 -0.46508027988E+02  0.25423861731E+03  0.27918290884E+03  0.79059915679E+02 0.  0.
        -13    1    3    3    0    0  0.14273569438E+00 -0.83847840870E+02 -0.24273270805E+02  0.87290735291E+02  0.00000000000E+00 0.  1.
         14    1    3    3    0    0 -0.10211113306E+02  0.58699239748E+01 -0.53352981935E+02  0.54637565134E+02  0.00000000000E+00 0. -1.
         13    1    5    5    0    0 -0.10543831653E+02  0.53292477098E+01  0.75504659944E+02  0.76423340285E+02  0.00000000000E+00 0. -1.
        -14    1    5    5    0    0  0.80489204096E+02 -0.51837275698E+02  0.17873395736E+03  0.20275956856E+03  0.00000000000E+00 0.  1.
          5    1    4    4  501    0 -0.51436515153E+02  0.34038548328E+01  0.54335516397E+02  0.75014145739E+02  0.41800000000E+01 0. -1.
         -5    1    4    4    0  501 -0.84404796781E+01  0.12108209005E+03  0.88671078543E+01  0.12177114695E+03  0.41800000000E+01 0. -1.
</event>
<event>
11    1  0.8551154E-009  0.1647445E+03  0.7561462E-02  0.1082698E+00
         22   -1    0    0    0    0  0.00000000000E+00  0.00000000000E+00  0.15413602425E+04  0.15413602425E+04  0.00000000000E+00 0. -1.
         22   -1    0    0    0    0 -0.00000000000E+00 -0.00000000000E+00 -0.85239159065E+03  0.85239159065E+03  0.00000000000E+00 0.  1.
        -24    2    1    2    0    0 -0.66678907559E+01 -0.18627099287E+02 -0.72428290869E+03  0.72912780334E+03  0.81548710526E+02 0.  0.
         25    2    1    2    0    0 -0.68188096769E+02 -0.58686374073E+02 -0.74557063917E+02  0.17117044596E+03  0.12508740443E+03 0.  0.
         24    2    1    2    0    0  0.74855987525E+02  0.77313473359E+02  0.14878086244E+04  0.14934535838E+04  0.72445235067E+02 0.  0.
        -11    1    5    5    0    0  0.13258547659E+01 -0.12541589214E+02  0.21110442272E+03  0.21148079498E+03  0.00000000000E+00 0.  1.
         12    1    5    5    0    0  0.73530132759E+02  0.89855062574E+02  0.12767042017E+04  0.12819727888E+04  0.00000000000E+00 0. -1.
         13    1    3    3    0    0 -0.18304440777E+02  0.28413835424E+02 -0.22916191740E+03  0.23164106497E+03  0.00000000000E+00 0. -1.
        -14    1    3    3    0    0  0.11636550021E+02 -0.47040934711E+02 -0.49512099129E+03  0.49748673837E+03  0.00000000000E+00 0.  1.
          5    1    4    4  501    0  0.16440718991E+02 -0.60164273330E+02 -0.72112437266E+01  0.62924649084E+02  0.41800000000E+01 0.  1.
         -5    1    4    4    0  501 -0.84628815760E+02  0.14778992576E+01 -0.67345820191E+02  0.10824579687E+03  0.41800000000E+01 0.  1.
</event>
<event>
11    1  0.8551154E-009  0.1625070E+03  0.7561462E-02  0.1084743E+00
         22   -1    0    0    0    0  0.00000000000E+00  0.00000000000E+00  0.35458164284E+03  0.35458164284E+03  0.00000000000E+00 0.  1.
         22   -1    0    0    0    0 -0.00000000000E+00 -0.00000000000E+00 -0.19123535845E+04  0.19123535845E+04  0.00000000000E+00 0. -1.
        -24    2    1    2    0    0  0.73257325371E+02  0.72227693023E+02 -0.17774183213E+04  0.17821876255E+04  0.79958541515E+02 0.  0.
         25    2    1    2    0    0 -0.96685615375E+02 -0.80901970824E+02 -0.64274384008E+02  0.18888063230E+03  0.12510579409E+03 0.  0.
         24    2    1    2    0    0  0.23428290003E+02  0.86742778007E+01  0.28392076359E+03  0.29586696955E+03  0.79385992504E+02 0.  0.
        -11    1    5    5    0    0 -0.39135103080E+01 -0.55255992670E+01  0.24981197673E+03  0.24990372452E+03  0.00000000000E+00 0.  1.
         12    1    5    5    0    0  0.27341800311E+02  0.14199877068E+02  0.34108786865E+02  0.45963245038E+02  0.00000000000E+00 0. -1.
         11    1    3    3    0    0  0.89170585176E+02  0.48044730677E+02 -0.13601812922E+04  0.13639475199E+04  0.00000000000E+00 0. -1.
        -12    1    3    3    0    0 -0.15913259805E+02  0.24182962346E+02 -0.41723702906E+03  0.41824010559E+03  0.00000000000E+00 0.  1.
          5    1    4    4  501    0 -0.12974104760E+02 -0.78311014081E+02  0.56602341101E+01  0.79689729394E+02  0.41800000000E+01 0.  1.
         -5    1    4    4    0  501 -0.83711510615E+02 -0.25909567425E+01 -0.69934618118E+02  0.10919090291E+03  0.41800000000E+01 0.  1.
</event>
<event>
11    1  0.8551154E-009  0.2152596E+03  0.7561462E-02  0.1044228E+00
         22   -1    0    0    0    0  0.00000000000E+00  0.00000000000E+00  0.18668736302E+04  0.18668736302E+04  0.00000000000E+00 0. -1.
         22   -1    0    0    0    0 -0.00000000000E+00 -0.00000000000E+00 -0.59059891155E+03  0.59059891155E+03  0.00000000000E+00 0. -1.
        -24    2    1    2    0    0 -0.27611433460E+02 -0.27826305429E+02 -0.54502617676E+03  0.55213714827E+03  0.79153032881E+02 0.  0.
         25    2    1    2    0    0  0.10828444596E+03  0.17712649614E+03  0.37316304332E+03  0.44496987852E+03  0.12509284158E+03 0.  0.
         24    2    1    2    0    0 -0.80673012499E+02 -0.14930019071E+03  0.14481378521E+04  0.14603655149E+04  0.82252761220E+02 0.  0.
        -11    1    5    5    0    0 -0.15444491580E+02 -0.19692607254E+02  0.65221913213E+02  0.69858636286E+02  0.00000000000E+00 0.  1.
         12    1    5    5    0    0 -0.65228520919E+02 -0.12960758345E+03  0.13829159389E+04  0.13905068787E+04  0.00000000000E+00 0. -1.
         11    1    3    3    0    0  0.14332806335E+02 -0.41245793248E+02 -0.23859734312E+03  0.24255996566E+03  0.00000000000E+00 0. -1.
        -12    1    3    3    0    0 -0.41944239795E+02  0.13419487819E+02 -0.30642883365E+03  0.30957718261E+03  0.00000000000E+00 0.  1.
          5    1    4    4  501    0 -0.17811884931E+02  0.78727757837E+02  0.10225826348E+03  0.13034396015E+03  0.41800000000E+01 0.  1.
         -5    1    4    4    0  501  0.12609633089E+03  0.98398738299E+02  0.27090477985E+03  0.31462591836E+03  0.41800000000E+01 0.  1.
</event>
<event>
11    1  0.8551154E-009  0.1342095E+03  0.7561462E-02  0.1114202E+00
         22   -1    0    0    0    0  0.00000000000E+00  0.00000000000E+00  0.51610071803E+03  0.51610071803E+03  0.00000000000E+00 0. -1.
         22   -1    0    0    0    0 -0.00000000000E+00 -0.00000000000E+00 -0.10256778802E+03  0.10256778802E+03  0.00000000000E+00 0. -1.
         24    2    1    2    0    0 -0.45055677984E+02  0.29002404013E+02 -0.31001001337E+02  0.10120860358E+03  0.80068506902E+02 0.  0.
         25    2    1    2    0    0  0.18128783234E+02 -0.26376514637E+02  0.10158873915E+03  0.16429367920E+03  0.12509103804E+03 0.  0.
        -24    2    1    2    0    0  0.26926894751E+02 -0.26258893754E+01  0.34294519220E+03  0.35316622328E+03  0.79893826127E+02 0.  0.
        -11    1    3    3    0    0  0.74204596343E+01  0.37347139065E+02  0.28871626815E+01  0.38186486168E+02  0.00000000000E+00 0.  1.
         12    1    3    3    0    0 -0.52476137619E+02 -0.83447350524E+01 -0.33888164019E+02  0.63022117411E+02  0.00000000000E+00 0. -1.
         13    1    5    5    0    0 -0.94746388999E+01  0.29691069999E+02  0.82068631261E+02  0.87787178204E+02  0.00000000000E+00 0. -1.
        -14    1    5    5    0    0  0.36401533651E+02 -0.32316959375E+02  0.26087656094E+03  0.26537904507E+03  0.00000000000E+00 0.  1.
          5    1    4    4  501    0  0.37190641451E+02  0.37918647378E+02  0.16295080759E+02  0.55713281069E+02  0.41800000000E+01 0.  1.
         -5    1    4    4    0  501 -0.19061858218E+02 -0.64295162015E+02  0.85293658388E+02  0.10858039813E+03  0.41800000000E+01 0.  1.
</event>
<event>
11    1  0.8551154E-009  0.1416881E+03  0.7561462E-02  0.1105688E+00
         22   -1    0    0    0    0  0.00000000000E+00  0.00000000000E+00  0.92423993684E+02  0.92423993684E+02  0.00000000000E+00 0.  1.
         22   -1    0    0    0    0 -0.00000000000E+00 -0.00000000000E+00 -0.88486006766E+03  0.88486006766E+03  0.00000000000E+00 0. -1.
         24    2    1    2    0    0  0.25075237488E+02  0.64593207768E+02 -0.60842905632E+03  0.61747906831E+03  0.79331161584E+02 0.  0.
         25    2    1    2    0    0 -0.47528097049E+02 -0.38499467708E+02 -0.22367012289E+03  0.26347507262E+03  0.12509860509E+03 0.  0.
        -24    2    1    2    0    0  0.22452859562E+02 -0.26093740060E+02  0.39663105242E+02  0.96329920406E+02  0.80754426970E+02 0.  0.
        -13    1    3    3    0    0  0.15071356170E+02 -0.14778659052E+02 -0.21269113304E+03  0.21373598811E+03  0.00000000000E+00 0.  1.
         14    1    3    3    0    0  0.10003881318E+02  0.79371866820E+02 -0.39573792328E+03  0.40374308020E+03  0.00000000000E+00 0. -1.
         13    1    5    5    0    0  0.68709139296E+00 -0.26418975453E+02 -0.19790430042E+02  0.33016594007E+02  0.00000000000E+00 0. -1.
        -14    1    5    5    0    0  0.21765768169E+02  0.32523539316E+00  0.59453535284E+02  0.63313326400E+02  0.00000000000E+00 0.  1.
          5    1    4    4  501    0 -0.66010016679E+02  0.20753614168E+01 -0.46870265399E+02  0.81092068697E+02  0.41800000000E+01 0. -1.
         -5    1    4    4    0  501  0.18481919630E+02 -0.40574829125E+02 -0.17679985749E+03  0.18238300393E+03  0.41800000000E+01 0. -1.
</event>
<event>
11    1  0.8551154E-009  0.3392581E+03  0.7561462E-02  0.9848217E-01
         22   -1    0    0    0    0  0.00000000000E+00  0.00000000000E+00  0.62666512431E+03  0.62666512431E+03  0.00000000000E+00 0. -1.
         22   -1    0    0    0    0 -0.00000000000E+00 -0.00000000000E+00 -0.19390001005E+04  0.19390001005E+04  0.00000000000E+00 0. -1.
        -24    2    1    2    0    0 -0.50556212945E+02  0.12654552122E+03 -0.16972793560E+04  0.17046254747E+04  0.80131747406E+02 0.  0.
         25    2    1    2    0    0  0.29049741619E+03 -0.28334496448E+03  0.75092699716E+02  0.43123022620E+03  0.12508987461E+03 0.  0.
         24    2    1    2    0    0 -0.23994120324E+03  0.15679944326E+03  0.30985168016E+03  0.42980952387E+03  0.81057490057E+02 0.  0.
        -11    1    5    5    0    0 -0.16698024086E+03  0.68669060956E+02  0.15976289448E+03  0.24108509539E+03  0.00000000000E+00 0.  1.
         12    1    5    5    0    0 -0.72960962385E+02  0.88130382308E+02  0.15008878568E+03  0.18872442848E+03  0.00000000000E+00 0. -1.
         13    1    3    3    0    0 -0.43153949708E+02  0.13101142860E+03 -0.16758642580E+04  0.16815312275E+04  0.00000000000E+00 0. -1.
        -14    1    3    3    0    0 -0.74022632369E+01 -0.44659073824E+01 -0.21415098030E+02  0.23094247193E+02  0.00000000000E+00 0.  1.
          5    1    4    4  501    0  0.74776919677E+02 -0.87395501245E+01  0.14511126164E+02  0.76785497559E+02  0.41800000000E+01 0.  1.
         -5    1    4    4    0  501  0.21572049651E+03 -0.27460541436E+03  0.60581573552E+02  0.35444472864E+03  0.41800000000E+01 0.  1.
</event>
<event>
11    1  0.8551154E-009  0.1486041E+03  0.7561462E-02  0.1098314E+00
         22   -1    0    0    0    0  0.00000000000E+00  0.00000000000E+00  0.50914764630E+03  0.50914764630E+03  0.00000000000E+00 0. -1.
         22   -1    0    0    0    0 -0.00000000000E+00 -0.00000000000E+00 -0.64237793681E+03  0.64237793681E+03  0.00000000000E+00 0. -1.
        -24    2    1    2    0    0 -0.29103686717E+02 -0.70238970888E+02 -0.46245063061E+03  0.47546975169E+03  0.80189534247E+02 0.  0.
         25    2    1    2    0    0  0.89612213390E+02  0.78160496380E+02 -0.12330894479E+03  0.21211716711E+03  0.12509670154E+03 0.  0.
         24    2    1    2    0    0 -0.60508526672E+02 -0.79215254920E+01  0.45252928489E+03  0.46393866431E+03  0.82050583136E+02 0.  0.
        -11    1    5    5    0    0 -0.21756469287E+02 -0.43185533004E+02  0.17784399130E+03  0.18430089381E+03  0.00000000000E+00 0.  1.
         12    1    5    5    0    0 -0.38752057385E+02  0.35264007512E+02  0.27468529359E+03  0.27963777050E+03  0.00000000000E+00 0. -1.
         13    1    3    3    0    0  0.65864473591E-01 -0.52059726584E+02 -0.40639435433E+03  0.40971525563E+03  0.00000000000E+00 0. -1.
        -14    1    3    3    0    0 -0.29169551191E+02 -0.18179244304E+02 -0.56056276286E+02  0.65754496053E+02  0.00000000000E+00 0.  1.
          5    1    4    4  501    0  0.81239465860E+02  0.76664603382E+01 -0.15805662734E+02  0.83222093231E+02  0.41800000000E+01 0.  1.
         -5    1    4    4    0  501  0.83727475300E+01  0.70494036042E+02 -0.10750328205E+03  0.12889507388E+03  0.41800000000E+01 0.  1.
</event>
<event>
11    1  0.8551154E-009  0.1427495E+03  0.7561462E-02  0.1104526E+00
         22   -1    0    0    0    0  0.00000000000E+00  0.00000000000E+00  0.24717063596E+04  0.24717063596E+04  0.00000000000E+00 0. -1.
         22   -1    0    0    0    0 -0.00000000000E+00 -0.00000000000E+00 -0.16080067119E+04  0.16080067119E+04  0.00000000000E+00 0.  1.
         24    2    1    2    0    0 -0.33757539773E+02 -0.42561017958E+02 -0.12197837741E+04  0.12236706754E+04  0.80910163106E+02 0.  0.
         25    2    1    2    0    0  0.94368192696E+02  0.10123257533E+02 -0.36918591251E+03  0.40119055670E+03  0.12509112138E+03 0.  0.
        -24    2    1    2    0    0 -0.60610652923E+02  0.32437760426E+02  0.24526693343E+04  0.24548518393E+04  0.77361682442E+02 0.  0.
        -11    1    3    3    0    0 -0.17534009860E+02 -0.57973723356E+02 -0.51778937317E+03  0.52131969948E+03  0.00000000000E+00 0.  1.
         12    1    3    3    0    0 -0.16223529913E+02  0.15412705397E+02 -0.70199440094E+03  0.70235097591E+03  0.00000000000E+00 0. -1.
         13    1    5    5    0    0 -0.39324796148E+02  0.16885180439E+02  0.45492847654E+03  0.45693705001E+03  0.00000000000E+00 0. -1.
        -14    1    5    5    0    0 -0.21285856775E+02  0.15552579986E+02  0.19977408578E+04  0.19979147893E+04  0.00000000000E+00 0.  1.
          5    1    4    4  501    0 -0.56831468409E+01  0.47047136362E+02 -0.15068205379E+03  0.15801355933E+03  0.41800000000E+01 0. -1.
         -5    1    4    4    0  501  0.10005133954E+03 -0.36923878829E+02 -0.21850385872E+03  0.24317699737E+03  0.41800000000E+01 0. -1.
</event>
<event>
11    1  0.8551154E-009  0.1462829E+03  0.7561462E-02  0.1100739E+00
         22   -1    0    0    0    0  0.00000000000E+00  0.00000000000E+00  0.82857940716E+03  0.82857940716E+03  0.00000000000E+00 0.  1.
         22   -1    0    0    0    0 -0.00000000000E+00 -0.00000000000E+00 -0.57829831721E+02  0.57829831721E+02  0.00000000000E+00 0.  1.
         24    2    1    2    0    0  0.13326566790E+02  0.73429330642E+02  0.42645976381E+02  0.11807590367E+03  0.80955393556E+02 0.  0.
         25    2    1    2    0    0 -0.52646079888E+02 -0.73903964967E+02  0.49690527536E+03  0.52038081946E+03  0.12509172163E+03 0.  0.
        -24    2    1    2    0    0  0.39319513099E+02  0.47463432495E+00  0.23119832370E+03  0.24795251575E+03  0.80507985905E+02 0.  0.
        -11    1    3    3    0    0  0.36043781483E+02  0.50641908419E+01  0.48414624139E+01  0.36718387366E+02  0.00000000000E+00 0.  1.
         12    1    3    3    0    0 -0.22717214693E+02  0.68365139801E+02  0.37804513967E+02  0.81357516307E+02  0.00000000000E+00 0. -1.
         13    1    5    5    0    0 -0.18154762665E+02 -0.33914659811E+01  0.13164875999E+03  0.13293793084E+03  0.00000000000E+00 0. -1.
        -14    1    5    5    0    0  0.57474275764E+02  0.38661003061E+01  0.99549563709E+02  0.11501458490E+03  0.00000000000E+00 0.  1.
          5    1    4    4  501    0 -0.36680451426E+01  0.34546446581E+02  0.13077701206E+03  0.13537729060E+03  0.41800000000E+01 0. -1.
         -5    1    4    4    0  501 -0.48978034746E+02 -0.10845041155E+03  0.36612826330E+03  0.38500352886E+03  0.41800000000E+01 0. -1.
</event>
<event>
11    1  0.8551154E-009  0.1729333E+03  0.7561462E-02  0.1075507E+00
         22   -1    0    0    0    0  0.00000000000E+00  0.00000000000E+00  0.57526338469E+03  0.57526338469E+03  0.00000000000E+00 0. -1.
         22   -1    0    0    0    0 -0.00000000000E+00 -0.00000000000E+00 -0.56945291069E+03  0.56945291069E+03  0.00000000000E+00 0. -1.
        -24    2    1    2    0    0 -0.93720998623E+02 -0.73544390292E+02 -0.49267790538E+03  0.51319240007E+03  0.80265298330E+02 0.  0.
         25    2    1    2    0    0  0.87266952746E+02  0.87588651264E+02  0.60515214524E+02  0.18599924653E+03  0.12508531348E+03 0.  0.
         24    2    1    2    0    0  0.64540458769E+01 -0.14044260972E+02  0.43797316486E+03  0.44552464878E+03  0.80204884860E+02 0.  0.
        -11    1    5    5    0    0  0.12472327073E+01  0.14721165943E+02  0.13397963520E+02  0.19944265909E+02  0.00000000000E+00 0.  1.
         12    1    5    5    0    0  0.52068131696E+01 -0.28765426915E+02  0.42457520134E+03  0.42558038287E+03  0.00000000000E+00 0. -1.
         11    1    3    3    0    0 -0.89080734470E+02 -0.47765007037E+02 -0.46165198508E+03  0.47258801136E+03  0.00000000000E+00 0. -1.
        -12    1    3    3    0    0 -0.46402641535E+01 -0.25779383255E+02 -0.31025920301E+02  0.40604388715E+02  0.00000000000E+00 0.  1.
          5    1    4    4  501    0  0.20841981068E+01  0.21583916002E+02 -0.35367004187E+02  0.41695403786E+02  0.41800000000E+01 0.  1.
         -5    1    4    4    0  501  0.85182754639E+02  0.66004735262E+02  0.95882218712E+02  0.14430384274E+03  0.41800000000E+01 0.  1.
</event>
<event>
11    1  0.8551154E-009  0.1875230E+03  0.7561462E-02  0.1063715E+00
         22   -1    0    0    0    0  0.00000000000E+00  0.00000000000E+00  0.18282983192E+04  0.18282983192E+04  0.00000000000E+00 0.  1.
         22   -1    0    0    0    0 -0.00000000000E+00 -0.00000000000E+00 -0.94034830872E+02  0.94034830872E+02  0.00000000000E+00 0. -1.
        -24    2    1    2    0    0 -0.29469286807E+02 -0.22117064393E+02 -0.47373235267E+02  0.10143954392E+03  0.81781136263E+02 0.  0.
         25    2    1    2    0    0 -0.50395070849E+01  0.15302577272E+03  0.68467120926E+03  0.71264431324E+03  0.12507984914E+03 0.  0.
         24    2    1    2    0    0  0.34508793892E+02 -0.13090870832E+03  0.10969655143E+04  0.11082492929E+04  0.80964244100E+02 0.  0.
        -11    1    5    5    0    0  0.27259671392E+02 -0.13785357557E+03  0.10744100015E+04  0.10835605886E+04  0.00000000000E+00 0.  1.
         12    1    5    5    0    0  0.72491224995E+01  0.69448672476E+01  0.22555512842E+02  0.24688704253E+02  0.00000000000E+00 0. -1.
         11    1    3    3    0    0 -0.47351413060E+02 -0.14477878863E+02 -0.60348745026E+02  0.78062387367E+02  0.00000000000E+00 0. -1.
        -12    1    3    3    0    0  0.17882126254E+02 -0.76391855304E+01  0.12975509760E+02  0.23377156552E+02  0.00000000000E+00 0.  1.
          5    1    4    4  501    0  0.11195606980E+02  0.13665642458E+03  0.33238458729E+03  0.35957934626E+03  0.41800000000E+01 0. -1.
         -5    1    4    4    0  501 -0.16235114065E+02  0.16369348140E+02  0.35228662197E+03  0.35306496698E+03  0.41800000000E+01 0. -1.
</event>
<event>
11    1  0.8551154E-009  0.1716200E+03  0.7561462E-02  0.1076630E+00
         22   -1    0    0    0    0  0.00000000000E+00  0.00000000000E+00  0.79691547395E+03  0.79691547395E+03  0.00000000000E+00 0. -1.
         22   -1    0    0    0    0 -0.00000000000E+00 -0.00000000000E+00 -0.57990847215E+03  0.57990847215E+03  0.00000000000E+00 0. -1.
         24    2    1    2    0    0 -0.22091972493E+02 -0.44097948168E+02 -0.45951016838E+03  0.46908758234E+03  0.80379604272E+02 0.  0.
         25    2    1    2    0    0 -0.94384078466E+02  0.17904636204E+02 -0.51239551318E+02  0.16583746483E+03  0.12509053864E+03 0.  0.
        -24    2    1    2    0    0  0.11647605096E+03  0.26193311964E+02  0.72775672149E+03  0.74189889893E+03  0.80816894953E+02 0.  0.
        -11    1    3    3    0    0  0.29943509150E+02 -0.84471737472E+01 -0.14099746289E+03  0.14438924138E+03  0.00000000000E+00 0.  1.
         12    1    3    3    0    0 -0.52035481643E+02 -0.35650774421E+02 -0.31851270549E+03  0.32469834096E+03  0.00000000000E+00 0. -1.
         11    1    5    5    0    0  0.61925435561E+02  0.18100058526E+02  0.58994959885E+03  0.59346684901E+03  0.00000000000E+00 0. -1.
        -12    1    5    5    0    0  0.54550615399E+02  0.80932534375E+01  0.13780712264E+03  0.14843204992E+03  0.00000000000E+00 0.  1.
          5    1    4    4  501    0 -0.24366980950E+02  0.31809060322E+02  0.35309288472E+02  0.53570368036E+02  0.41800000000E+01 0.  1.
         -5    1    4    4    0  501 -0.70017097516E+02 -0.13904424117E+02 -0.86548839789E+02  0.11226709680E+03  0.41800000000E+01 0.  1.
</event>
<event>
11    1  0.8551154E-009  0.1629484E+03  0.7561462E-02  0.1084336E+00
         22   -1    0    0    0    0  0.00000000000E+00  0.00000000000E+00  0.13377836095E+04  0.13377836095E+04  0.00000000000E+00 0.  1.
         22   -1    0    0    0    0 -0.00000000000E+00 -0.00000000000E+00 -0.13699908163E+03  0.13699908163E+03  0.00000000000E+00 0. -1.
         24    2    1    2    0    0 -0.47329429024E+02 -0.46533769147E+02 -0.85018076228E+02  0.13483956684E+03  0.80920757395E+02 0.  0.
         25    2    1    2    0    0  0.10783857371E+03  0.11804995742E+03  0.43175066382E+03  0.47709783597E+03  0.12509499971E+03 0.  0.
        -24    2    1    2    0    0 -0.60509144689E+02 -0.71516188276E+02  0.85405194027E+03  0.86284528830E+03  0.79506937391E+02 0.  0.
        -11    1    3    3    0    0  0.10978870575E+02 -0.17154164608E+02  0.74128793552E+01  0.21673757007E+02  0.00000000000E+00 0.  1.
         12    1    3    3    0    0 -0.58308299599E+02 -0.29379604540E+02 -0.92430955584E+02  0.11316580983E+03  0.00000000000E+00 0. -1.
         13    1    5    5    0    0 -0.16923265715E+02 -0.68362117874E+02  0.35727408885E+03  0.36414907750E+03  0.00000000000E+00 0. -1.
        -14    1    5    5    0    0 -0.43585878974E+02 -0.31540704015E+01  0.49677785142E+03  0.49869621080E+03  0.00000000000E+00 0.  1.
          5    1    4    4  501    0  0.40955138680E+02 -0.18552662329E+02  0.57584157521E+02  0.73177402667E+02  0.41800000000E+01 0. -1.
         -5    1    4    4    0  501  0.66883435033E+02  0.13660261975E+03  0.37416650630E+03  0.40392043330E+03  0.41800000000E+01 0. -1.
</event>
<event>
11    1  0.8551154E-009  0.1465476E+03  0.7561462E-02  0.1100460E+00
         22   -1    0    0    0    0  0.00000000000E+00  0.00000000000E+00  0.15576666008E+03  0.15576666008E+03  0.00000000000E+00 0.  1.
         22   -1    0    0    0    0 -0.00000000000E+00 -0.00000000000E+00 -0.59444872665E+03  0.59444872665E+03  0.00000000000E+00 0.  1.
         24    2    1    2    0    0  0.22339187052E+02 -0.41335173335E+01 -0.39943511036E+03  0.40824992180E+03  0.81261713100E+02 0.  0.
         25    2    1    2    0    0 -0.78675057782E+02 -0.44679967827E+02 -0.13117118758E+03  0.20258466172E+03  0.12509436626E+03 0.  0.
        -24    2    1    2    0    0  0.56335870730E+02  0.48813485161E+02  0.91924231371E+02  0.13938080322E+03  0.73623755192E+02 0.  0.
        -13    1    3    3    0    0  0.48383701368E+02 -0.21608717824E+02 -0.24619588260E+03  0.25183393706E+03  0.00000000000E+00 0.  1.
         14    1    3    3    0    0 -0.26044514316E+02  0.17475200491E+02 -0.15323922776E+03  0.15641598474E+03  0.00000000000E+00 0. -1.
         13    1    5    5    0    0  0.48880117773E+02  0.39258908509E+02  0.19076711835E+02  0.65532043652E+02  0.00000000000E+00 0. -1.
        -14    1    5    5    0    0  0.74557529572E+01  0.95545766519E+01  0.72847519536E+02  0.73848759567E+02  0.00000000000E+00 0.  1.
          5    1    4    4  501    0  0.72848319739E+01 -0.41029994775E+02 -0.10423252587E+03  0.11233174573E+03  0.41800000000E+01 0. -1.
         -5    1    4    4    0  501 -0.85959889756E+02 -0.36499730519E+01 -0.26938661709E+02  0.90252915990E+02  0.41800000000E+01 0. -1.
</event>
<event>
11    1  0.8551154E-009  0.1666284E+03  0.7561462E-02  0.1081004E+00
         22   -1    0    0    0    0  0.00000000000E+00  0.00000000000E+00  0.88110619262E+02  0.88110619262E+02  0.00000000000E+00 0.  1.
         22   -1    0    0    0    0 -0.00000000000E+00 -0.00000000000E+00 -0.96658351752E+03  0.96658351752E+03  0.00000000000E+00 0. -1.
        -24    2    1    2    0    0  0.38807580938E+01 -0.34563990233E+02 -0.55388706443E+03  0.56060255989E+03  0.79212500990E+02 0.  0.
         25    2    1    2    0    0 -0.11304768567E+03  0.21562879778E+02 -0.31284001730E+03  0.35603523756E+03  0.12508987547E+03 0.  0.
         24    2    1    2    0    0  0.10916692758E+03  0.13001110455E+02 -0.11745816533E+02  0.13805633933E+03  0.82674915619E+02 0.  0.
        -11    1    5    5    0    0  0.98676426962E+02  0.40632287829E+02 -0.13420177163E+01  0.10672310464E+03  0.00000000000E+00 0.  1.
         12    1    5    5    0    0  0.10490500615E+02 -0.27631177373E+02 -0.10403798816E+02  0.31333234688E+02  0.00000000000E+00 0. -1.
         11    1    3    3    0    0 -0.19336985901E+02 -0.16310380501E+02 -0.48489989684E+03  0.48555932438E+03  0.00000000000E+00 0. -1.
        -12    1    3    3    0    0  0.23217743995E+02 -0.18253609732E+02 -0.68987167583E+02  0.75043235508E+02  0.00000000000E+00 0.  1.
          5    1    4    4  501    0  0.17454024122E+02 -0.24933381578E+02 -0.69598388157E+02  0.76077095825E+02  0.41800000000E+01 0. -1.
         -5    1    4    4    0  501 -0.13050170979E+03  0.46496261356E+02 -0.24324162914E+03  0.27995814174E+03  0.41800000000E+01 0. -1.
</event>
<event>
11    1  0.8551154E-009  0.1529597E+03  0.7561462E-02  0.1093892E+00
         22   -1    0    0    0    0  0.00000000000E+00  0.00000000000E+00  0.29168178694E+04  0.29168178694E+04  0.00000000000E+00 0. -1.
         22   -1    0    0    0    0 -0.00000000000E+00 -0.00000000000E+00 -0.84082467462E+03  0.84082467462E+03  0.00000000000E+00 0.  1.
         24    2    1    2    0    0 -0.87109868292E+02  0.15528077616E+02 -0.80257084816E+03  0.81132286623E+03  0.79344669696E+02 0.  0.
         25    2    1    2    0    0  0.79027047856E+02  0.61932374655E+02  0.16318711675E+03  0.22882032331E+03  0.12509121456E+03 0.  0.
        -24    2    1    2    0    0  0.80828204362E+01 -0.77460452271E+02  0.27153769262E+04  0.27174993545E+04  0.73928591661E+02 0.  0.
        -11    1    3    3    0    0 -0.58675325777E+02  0.30608195596E+02 -0.27811856890E+03  0.28588388178E+03  0.00000000000E+00 0.  1.
         12    1    3    3    0    0 -0.28434542515E+02 -0.15080117980E+02 -0.52445227926E+03  0.52543898445E+03  0.00000000000E+00 0. -1.
         13    1    5    5    0    0  0.40141317210E+02 -0.51146711205E+02  0.18231590209E+04  0.18243179895E+04  0.00000000000E+00 0. -1.
        -14    1    5    5    0    0 -0.32058496774E+02 -0.26313741066E+02  0.89221790529E+03  0.89318136496E+03  0.00000000000E+00 0.  1.
          5    1    4    4  501    0  0.81133017778E+02 -0.15219772181E+02  0.92906916450E+02  0.12435182171E+03  0.41800000000E+01 0.  1.
         -5    1    4    4    0  501 -0.21059699219E+01  0.77152146836E+02  0.70280200301E+02  0.10446850159E+03  0.41800000000E+01 0.  1.
</event>
<event>
11    1  0.8551154E-009  0.1326146E+03  0.7561462E-02  0.1116098E+00
         22   -1    0    0    0    0  0.00000000000E+00  0.00000000000E+00  0.95605310755E+03  0.95605310755E+03  0.00000000000E+00 0.  1.
         22   -1    0    0    0    0 -0.00000000000E+00 -0.00000000000E+00 -0.20508395767E+04  0.20508395767E+04  0.00000000000E+00 0.  1.
         24    2    1    2    0    0 -0.16653702939E+02  0.79475582727E+00 -0.95609396105E+03  0.95953502940E+03  0.79459630258E+02 0.  0.
         25    2    1    2    0    0  0.35802415059E+02  0.38853171716E+02 -0.10865806215E+04  0.10950322625E+04  0.12508727748E+03 0.  0.
        -24    2    1    2    0    0 -0.19148712120E+02 -0.39647927543E+02  0.94788811345E+03  0.95232539230E+03  0.80580058832E+02 0.  0.
        -13    1    3    3    0    0 -0.11284004778E+02  0.10919429862E+02 -0.93790630231E+03  0.93803773624E+03  0.00000000000E+00 0.  1.
         14    1    3    3    0    0 -0.53696981609E+01 -0.10124674034E+02 -0.18187658740E+02  0.21497293157E+02  0.00000000000E+00 0. -1.
         11    1    5    5    0    0 -0.10935106187E+02 -0.16131312330E+02  0.44337681907E+02  0.48431661356E+02  0.00000000000E+00 0. -1.
        -12    1    5    5    0    0 -0.82136059329E+01 -0.23516615213E+02  0.90355043154E+03  0.90389373095E+03  0.00000000000E+00 0.  1.
          5    1    4    4  501    0 -0.16394331175E+02 -0.33565700314E+02 -0.52915595217E+03  0.53048932548E+03  0.41800000000E+01 0.  1.
         -5    1    4    4    0  501  0.52196746234E+02  0.72418872030E+02 -0.55742466933E+03  0.56454293701E+03  0.41800000000E+01 0.  1.
</event>
<event>
11    1  0.8551154E-009  0.3200811E+03  0.7561462E-02  0.9920333E-01
         22   -1    0    0    0    0  0.00000000000E+00  0.00000000000E+00  0.40122613918E+03  0.40122613918E+03  0.00000000000E+00 0.  1.
         22   -1    0    0    0    0 -0.00000000000E+00 -0.00000000000E+00 -0.43473238079E+03  0.43473238079E+03  0.00000000000E+00 0.  1.
        -24    2    1    2    0    0  0.11742841408E+03  0.76783842221E+02 -0.97112230736E+02  0.18830220201E+03  0.79635061782E+02 0.  0.
         25    2    1    2    0    0 -0.35064010533E+03  0.35060046810E+02  0.44782395120E+02  0.37660430468E+03  0.12509056337E+03 0.  0.
         24    2    1    2    0    0  0.23321169125E+03 -0.11184388903E+03  0.18823594003E+02  0.27105201327E+03  0.78855042704E+02 0.  0.
        -13    1    5    5    0    0  0.66295939616E+02 -0.71907885559E+02 -0.41560382425E+01  0.97893657961E+02  0.00000000000E+00 0.  1.
         14    1    5    5    0    0  0.16691575163E+03 -0.39936003472E+02  0.22979632246E+02  0.17315835531E+03  0.00000000000E+00 0. -1.
         11    1    3    3    0    0  0.10655693592E+02 -0.14479084554E+02 -0.80513429362E+00  0.17995442109E+02  0.00000000000E+00 0. -1.
        -12    1    3    3    0    0  0.10677272049E+03  0.91262926775E+02 -0.96307096443E+02  0.17030675991E+03  0.00000000000E+00 0.  1.
          5    1    4    4  501    0 -0.27596467011E+03 -0.23964974789E+02  0.48527819796E+02  0.28125298374E+03  0.41800000000E+01 0.  1.
         -5    1    4    4    0  501 -0.74675435213E+02  0.59025021599E+02 -0.37454246760E+01  0.95351320940E+02  0.41800000000E+01 0.  1.
</event>
<event>
11    1  0.8551154E-009  0.1261807E+03  0.7561462E-02  0.1124053E+00
         22   -1    0    0    0    0  0.00000000000E+00  0.00000000000E+00  0.38047204532E+03  0.38047204532E+03  0.00000000000E+00 0.  1.
         22   -1    0    0    0    0 -0.00000000000E+00 -0.00000000000E+00 -0.88325383231E+03  0.88325383231E+03  0.00000000000E+00 0. -1.
         24    2    1    2    0    0 -0.53415032714E+01  0.13710536250E+02 -0.73762189958E+03  0.74198616959E+03  0.78999358594E+02 0.  0.
         25    2    1    2    0    0 -0.45720762708E+01 -0.44035028275E+02 -0.10746142297E+03  0.17076876495E+03  0.12511605037E+03 0.  0.
        -24    2    1    2    0    0  0.99135795422E+01  0.30324492025E+02  0.34230153556E+03  0.35097094308E+03  0.70656972532E+02 0.  0.
        -11    1    3    3    0    0 -0.70782842594E+01 -0.55162225698E+01 -0.77447972994E+01  0.11853805495E+02  0.00000000000E+00 0.  1.
         12    1    3    3    0    0  0.17367809879E+01  0.19226758820E+02 -0.72987710228E+03  0.73013236409E+03  0.00000000000E+00 0. -1.
         13    1    5    5    0    0  0.12263843443E+02 -0.21977196597E+02  0.11280116830E+03  0.11557466243E+03  0.00000000000E+00 0. -1.
        -14    1    5    5    0    0 -0.23502639006E+01  0.52301688623E+02  0.22950036726E+03  0.23539628066E+03  0.00000000000E+00 0.  1.
          5    1    4    4  501    0  0.42007501035E+02 -0.53665756592E+02 -0.20043708032E+02  0.71160847419E+02  0.41800000000E+01 0. -1.
         -5    1    4    4    0  501 -0.46579577305E+02  0.96307283165E+01 -0.87417714940E+02  0.99607917533E+02  0.41800000000E+01 0. -1.
</event>
<event>
11    1  0.8551154E-009  0.1896838E+03  0.7561462E-02  0.1062068E+00
         22   -1    0    0    0    0  0.00000000000E+00  0.00000000000E+00  0.32161645507E+04  0.32161645507E+04  0.00000000000E+00 0. -1.
         22   -1    0    0    0    0 -0.00000000000E+00 -0.00000000000E+00 -0.22067867157E+03  0.22067867157E+03  0.00000000000E+00 0. -1.
         24    2    1    2    0    0  0.35086425541E+02  0.16826298087E+02 -0.19183568459E+03  0.21143064710E+03  0.79923757954E+02 0.  0.
         25    2    1    2    0    0 -0.78498708545E+02  0.11964978484E+03  0.52961778986E+03  0.56269012644E+03  0.12508819609E+03 0.  0.
        -24    2    1    2    0    0  0.43412283004E+02 -0.13647608293E+03  0.26577037739E+04  0.26627224488E+04  0.78683809554E+02 0.  0.
        -13    1    3    3    0    0 -0.22944712454E+02 -0.34926027547E+01 -0.27590450409E+02  0.36054001961E+02  0.00000000000E+00 0.  1.
         14    1    3    3    0    0  0.58031137995E+02  0.20318900842E+02 -0.16424523418E+03  0.17537664514E+03  0.00000000000E+00 0. -1.
         13    1    5    5    0    0  0.29041591958E+01 -0.10349363758E+03  0.21083720271E+04  0.21109125922E+04  0.00000000000E+00 0. -1.
        -14    1    5    5    0    0  0.40508123808E+02 -0.32982445345E+02  0.54933174676E+03  0.55180985656E+03  0.00000000000E+00 0.  1.
          5    1    4    4  501    0 -0.24408316920E+02 -0.26725184648E+01  0.26494827628E+03  0.26611645908E+03  0.41800000000E+01 0.  1.
         -5    1    4    4    0  501 -0.54090391625E+02  0.12232230330E+03  0.26466951358E+03  0.29657366736E+03  0.41800000000E+01 0.  1.
</event>
<event>
11    1  0.8551154E-009  0.1427569E+03  0.7561462E-02  0.1104518E+00
         22   -1    0    0    0    0  0.00000000000E+00  0.00000000000E+00  0.14115502351E+04  0.14115502351E+04  0.00000000000E+00 0.  1.
         22   -1    0    0    0    0 -0.00000000000E+00 -0.00000000000E+00 -0.53780899222E+03  0.53780899222E+03  0.00000000000E+00 0.  1.
         24    2    1    2    0    0  0.48030864045E+02 -0.36004294884E+02 -0.49886465028E+03  0.50907057084E+03  0.81753493157E+02 0.  0.
         25    2    1    2    0    0 -0.28325308210E+02  0.10036278907E+03  0.17859524055E+03  0.24169928986E+03  0.12508906529E+03 0.  0.
        -24    2    1    2    0    0 -0.19705555835E+02 -0.64358494190E+02  0.11940106526E+04  0.11985893666E+04  0.80154267230E+02 0.  0.
        -13    1    3    3    0    0  0.15831911341E+02 -0.23094547779E+02 -0.43891598208E+03  0.43980819328E+03  0.00000000000E+00 0.  1.
         14    1    3    3    0    0  0.32198952705E+02 -0.12909747105E+02 -0.59948668200E+02  0.69262377555E+02  0.00000000000E+00 0. -1.
         13    1    5    5    0    0  0.89257194758E+01  0.88881767883E+00  0.15362527457E+02  0.17789483266E+02  0.00000000000E+00 0. -1.
        -14    1    5    5    0    0 -0.28631275311E+02 -0.65247311869E+02  0.11786481252E+04  0.11807998834E+04  0.00000000000E+00 0.  1.
          5    1    4    4  501    0 -0.22769115368E+02  0.11040133223E+03  0.70725871384E+02  0.13314093306E+03  0.41800000000E+01 0. -1.
         -5    1    4    4    0  501 -0.55561928419E+01 -0.10038543152E+02  0.10786936917E+03  0.10855835680E+03  0.41800000000E+01 0. -1.
</event>
<event>
11    1  0.8551154E-009  0.1381798E+03  0.7561462E-02  0.1109608E+00
         22   -1    0    0    0    0  0.00000000000E+00  0.00000000000E+00  0.11440155041E+03  0.11440155041E+03  0.00000000000E+00 0.  1.
         22   -1    0    0    0    0 -0.00000000000E+00 -0.00000000000E+00 -0.22920402447E+04  0.22920402447E+04  0.00000000000E+00 0. -1.
         24    2    1    2    0    0 -0.12165580815E+02 -0.35258341240E+01 -0.18183805029E+04  0.18202300091E+04  0.81050601526E+02 0.  0.
         25    2    1    2    0    0 -0.46778936735E+02  0.10055649741E+02 -0.43852388691E+03  0.45851917355E+03  0.12508896078E+03 0.  0.
        -24    2    1    2    0    0  0.58944517550E+02 -0.65298156174E+01  0.79265695464E+02  0.12769261247E+03  0.80655180614E+02 0.  0.
        -13    1    3    3    0    0 -0.85062808854E+01 -0.42265655443E+02 -0.96916270230E+03  0.97012117076E+03  0.00000000000E+00 0.  1.
         14    1    3    3    0    0 -0.36592999295E+01  0.38739821319E+02 -0.84921780058E+03  0.85010883836E+03  0.00000000000E+00 0. -1.
         13    1    5    5    0    0 -0.41936217057E+01  0.90351785411E+01 -0.12021493323E+02  0.15612085574E+02  0.00000000000E+00 0. -1.
        -14    1    5    5    0    0  0.63138139255E+02 -0.15564994159E+02  0.91287188787E+02  0.11208052689E+03  0.00000000000E+00 0.  1.
          5    1    4    4  501    0 -0.60598372838E+02  0.17205389500E+02 -0.91754432142E+02  0.11137565459E+03  0.41800000000E+01 0. -1.
         -5    1    4    4    0  501  0.13819436103E+02 -0.71497397582E+01 -0.34676945477E+03  0.34714351896E+03  0.41800000000E+01 0. -1.
</event>
<event>
11    1  0.8551154E-009  0.1398659E+03  0.7561462E-02  0.1107708E+00
         22   -1    0    0    0    0  0.00000000000E+00  0.00000000000E+00  0.82133265686E+03  0.82133265686E+03  0.00000000000E+00 0.  1.
         22   -1    0    0    0    0 -0.00000000000E+00 -0.00000000000E+00 -0.23424515173E+03  0.23424515173E+03  0.00000000000E+00 0.  1.
         24    2    1    2    0    0  0.47997023984E+02  0.39985778987E+02 -0.18400338297E+03  0.20998781518E+03  0.79593094850E+02 0.  0.
         25    2    1    2    0    0 -0.84786983152E+02  0.54194806805E+01  0.13796581884E+03  0.20470148765E+03  0.12509967465E+03 0.  0.
        -24    2    1    2    0    0  0.36789959168E+02 -0.45405259668E+02  0.63312506926E+03  0.64088850575E+03  0.80471018244E+02 0.  0.
        -11    1    3    3    0    0 -0.11169530932E+02  0.36429682072E+02 -0.10136492508E+03  0.10829001890E+03  0.00000000000E+00 0.  1.
         12    1    3    3    0    0  0.59166554915E+02  0.35560969155E+01 -0.82638457886E+02  0.10169779628E+03  0.00000000000E+00 0. -1.
         11    1    5    5    0    0  0.18807400819E+02 -0.44489228907E+01  0.27489284744E+02  0.33603154854E+02  0.00000000000E+00 0. -1.
        -12    1    5    5    0    0  0.17982558349E+02 -0.40956336777E+02  0.60563578452E+03  0.60728535090E+03  0.00000000000E+00 0.  1.
          5    1    4    4  501    0 -0.60379284988E+02  0.48582311194E+02  0.25456302754E+02  0.81678606541E+02  0.41800000000E+01 0. -1.
         -5    1    4    4    0  501 -0.24407698164E+02 -0.43162830513E+02  0.11250951608E+03  0.12302288111E+03  0.41800000000E+01 0. -1.
</event>
<event>
11    1  0.8551154E-009  0.1309104E+03  0.7561462E-02  0.1118155E+00
         22   -1    0    0    0    0  0.00000000000E+00  0.00000000000E+00  0.70577271480E+03  0.70577271480E+03  0.00000000000E+00 0.  1.
         22   -1    0    0    0    0 -0.00000000000E+00 -0.00000000000E+00 -0.39449656981E+03  0.39449656981E+03  0.00000000000E+00 0. -1.
         24    2    1    2    0    0 -0.21759013569E+02 -0.31518756004E+02 -0.36328663745E+03  0.37563757423E+03  0.87518681271E+02 0.  0.
         25    2    1    2    0    0  0.45503147127E+02  0.27557542290E+02  0.19156402450E+03  0.23489328500E+03  0.12509246707E+03 0.  0.
        -24    2    1    2    0    0 -0.23744133557E+02  0.39612137141E+01  0.48299875793E+03  0.48973842539E+03  0.77307503144E+02 0.  0.
        -11    1    3    3    0    0  0.95496065063E+00  0.81820477647E+01  0.11715487767E+01  0.83204796740E+01  0.00000000000E+00 0.  1.
         12    1    3    3    0    0 -0.22713974220E+02 -0.39700803768E+02 -0.36445818623E+03  0.36731709455E+03  0.00000000000E+00 0. -1.
         11    1    5    5    0    0 -0.18374123005E+02  0.49047933483E+01  0.23606868909E+02  0.30314182385E+02  0.00000000000E+00 0. -1.
        -12    1    5    5    0    0 -0.53700105523E+01 -0.94357963422E+00  0.45939188903E+03  0.45942424300E+03  0.00000000000E+00 0.  1.
          5    1    4    4  501    0  0.82834910849E+01  0.80433763434E+01  0.19226333766E+03  0.19265506880E+03  0.41800000000E+01 0. -1.
         -5    1    4    4    0  501  0.37219656042E+02  0.19514165946E+02 -0.69931315397E+00  0.42238216195E+02  0.41800000000E+01 0. -1.
</event>
<event>
11    1  0.8551154E-009  0.1783377E+03  0.7561462E-02  0.1070995E+00
         22   -1    0    0    0    0  0.00000000000E+00  0.00000000000E+00  0.19344319147E+04  0.19344319147E+04  0.00000000000E+00 0.  1.
         22   -1    0    0    0    0 -0.00000000000E+00 -0.00000000000E+00 -0.11578239318E+03  0.11578239318E+03  0.00000000000E+00 0. -1.
         24    2    1    2    0    0  0.12853280275E+03 -0.87794067699E+01 -0.49471444159E+02  0.15914894101E+03  0.79266652950E+02 0.  0.
         25    2    1    2    0    0 -0.92292793488E+02  0.77598641056E+02  0.90360867379E+03  0.92016040361E+03  0.12508806577E+03 0.  0.
        -24    2    1    2    0    0 -0.36240009262E+02 -0.68819234287E+02  0.96451229185E+03  0.97090496322E+03  0.79517678515E+02 0.  0.
        -13    1    3    3    0    0  0.22417827635E+02 -0.22903835735E+01 -0.47774260723E+02  0.52822200261E+02  0.00000000000E+00 0.  1.
         14    1    3    3    0    0  0.10611497512E+03 -0.64890231964E+01 -0.16971834361E+01  0.10632674074E+03  0.00000000000E+00 0. -1.
         11    1    5    5    0    0 -0.26491824605E+02  0.12359847514E+02  0.28286366846E+03  0.28437024728E+03  0.00000000000E+00 0. -1.
        -12    1    5    5    0    0 -0.97481846578E+01 -0.81179081801E+02  0.68164862339E+03  0.68653471594E+03  0.00000000000E+00 0.  1.
          5    1    4    4  501    0  0.20275003162E+02 -0.29321163793E+01  0.36493644334E+02  0.42058667793E+02  0.41800000000E+01 0.  1.
         -5    1    4    4    0  501 -0.11256779665E+03  0.80530757436E+02  0.86711502945E+03  0.87810173582E+03  0.41800000000E+01 0.  1.
</event>
<event>
11    1  0.8551154E-009  0.1692212E+03  0.7561462E-02  0.1078711E+00
         22   -1    0    0    0    0  0.00000000000E+00  0.00000000000E+00  0.23261231180E+03  0.23261231180E+03  0.00000000000E+00 0.  1.
         22   -1    0    0    0    0 -0.00000000000E+00 -0.00000000000E+00 -0.76752309842E+03  0.76752309842E+03  0.00000000000E+00 0. -1.
        -24    2    1    2    0    0 -0.14058517562E+02 -0.60623872903E+02 -0.41857266979E+03  0.43058950769E+03  0.79569770343E+02 0.  0.
         25    2    1    2    0    0  0.21931311965E+02  0.17032439776E+03 -0.28553626099E+03  0.35590665120E+03  0.12508878891E+03 0.  0.
         24    2    1    2    0    0 -0.78727944023E+01 -0.10970052486E+03  0.16919814416E+03  0.21363925133E+03  0.70125114444E+02 0.  0.
        -11    1    5    5    0    0 -0.37017025204E+02 -0.64057369674E+02  0.77500504458E+02  0.10714445835E+03  0.00000000000E+00 0.  1.
         12    1    5    5    0    0  0.29144230802E+02 -0.45643155182E+02  0.91697639703E+02  0.10649479298E+03  0.00000000000E+00 0. -1.
         11    1    3    3    0    0 -0.31408006846E+02 -0.36678001295E+01 -0.24622519485E+03  0.24824738111E+03  0.00000000000E+00 0. -1.
        -12    1    3    3    0    0  0.17349489284E+02 -0.56956072773E+02 -0.17234747495E+03  0.18234212658E+03  0.00000000000E+00 0.  1.
          5    1    4    4  501    0  0.39310624925E+01  0.88845326313E+02 -0.24951689105E+03  0.26492469983E+03  0.41800000000E+01 0. -1.
         -5    1    4    4    0  501  0.18000249472E+02  0.81479071446E+02 -0.36019369944E+02  0.90981951375E+02  0.41800000000E+01 0. -1.
</event>
<event>
11    1  0.8551154E-009  0.1438067E+03  0.7561462E-02  0.1103381E+00
         22   -1    0    0    0    0  0.00000000000E+00  0.00000000000E+00  0.27823124941E+03  0.27823124941E+03  0.00000000000E+00 0. -1.
         22   -1    0    0    0    0 -0.00000000000E+00 -0.00000000000E+00 -0.38884356216E+03  0.38884356216E+03  0.00000000000E+00 0. -1.
        -24    2    1    2    0    0  0.89534940558E+01 -0.73427319920E+02 -0.29736418058E+03  0.31704317743E+03  0.81358368321E+02 0.  0.
         25    2    1    2    0    0  0.17016050089E+02  0.53048031759E+02 -0.82158833432E+01  0.13718035101E+03  0.12508920149E+03 0.  0.
         24    2    1    2    0    0 -0.25969544145E+02  0.20379288161E+02  0.19496775116E+03  0.21285128314E+03  0.78762377635E+02 0.  0.
        -11    1    5    5    0    0  0.20177378678E+02  0.30593189939E+02  0.10520951888E+03  0.11140966181E+03  0.00000000000E+00 0.  1.
         12    1    5    5    0    0 -0.46146922823E+02 -0.10213901778E+02  0.89758232278E+02  0.10144162133E+03  0.00000000000E+00 0. -1.
         11    1    3    3    0    0  0.51787372060E+00 -0.65052781259E+02 -0.29811714201E+03  0.30513269720E+03  0.00000000000E+00 0. -1.
        -12    1    3    3    0    0  0.84356203352E+01 -0.83745386611E+01  0.75296143221E+00  0.11910480223E+02  0.00000000000E+00 0.  1.
          5    1    4    4  501    0 -0.35960523056E+02  0.66668810281E+02 -0.24890757863E+02  0.79843044216E+02  0.41800000000E+01 0.  1.
         -5    1    4    4    0  501  0.52976573146E+02 -0.13620778522E+02  0.16674874519E+02  0.57337306791E+02  0.41800000000E+01 0.  1.
</event>
<event>
11    1  0.8551154E-009  0.1458496E+03  0.7561462E-02  0.1101197E+00
         22   -1    0    0    0    0  0.00000000000E+00  0.00000000000E+00  0.27579968355E+03  0.27579968355E+03  0.00000000000E+00 0. -1.
         22   -1    0    0    0    0 -0.00000000000E+00 -0.00000000000E+00 -0.10595569945E+04  0.10595569945E+04  0.00000000000E+00 0.  1.
        -24    2    1    2    0    0  0.14619789317E+02  0.73606531355E+02 -0.99630149263E+03  0.10021910791E+04  0.78349442410E+02 0.  0.
         25    2    1    2    0    0  0.89822241299E+01 -0.76277966648E+02  0.57839267531E+02  0.15777306942E+03  0.12509177439E+03 0.  0.
         24    2    1    2    0    0 -0.23602013447E+02  0.26714352929E+01  0.15470491410E+03  0.17539252957E+03  0.79150093979E+02 0.  0.
        -11    1    5    5    0    0  0.86931820581E+01  0.19781788021E+02  0.62333141203E+01  0.22488769564E+02  0.00000000000E+00 0.  1.
         12    1    5    5    0    0 -0.32295195505E+02 -0.17110352728E+02  0.14847159998E+03  0.15290376001E+03  0.00000000000E+00 0. -1.
         13    1    3    3    0    0  0.14978310670E+01 -0.14969196312E+02 -0.26524149802E+03  0.26566778617E+03  0.00000000000E+00 0. -1.
        -14    1    3    3    0    0  0.13121958250E+02  0.88575727667E+02 -0.73105999461E+03  0.73652329294E+03  0.00000000000E+00 0.  1.
          5    1    4    4  501    0 -0.76190804661E+01 -0.84041963073E+02  0.88152680692E+02  0.12210433841E+03  0.41800000000E+01 0.  1.
         -5    1    4    4    0  501  0.16601304596E+02  0.77639964250E+01 -0.30313413161E+02  0.35668731015E+02  0.41800000000E+01 0.  1.
</event>
<event>
11    1  0.8551154E-009  0.1973735E+03  0.7561462E-02  0.1056397E+00
         22   -1    0    0    0    0  0.00000000000E+00  0.00000000000E+00  0.11064911894E+04  0.11064911894E+04  0.00000000000E+00 0. -1.
         22   -1    0    0    0    0 -0.00000000000E+00 -0.00000000000E+00 -0.21680579683E+03  0.21680579683E+03  0.00000000000E+00 0.  1.
        -24    2    1    2    0    0 -0.20697883290E+02  0.12166182913E+02 -0.14363158355E+03  0.16655464224E+03  0.80833153347E+02 0.  0.
         25    2    1    2    0    0  0.14265804375E+03 -0.98633149571E+02  0.15987233079E+03  0.26700199057E+03  0.12510429718E+03 0.  0.
         24    2    1    2    0    0 -0.12196016046E+03  0.86466966657E+02  0.87344464535E+03  0.88974035346E+03  0.79884485415E+02 0.  0.
        -11    1    5    5    0    0 -0.32523499621E+02 -0.10550090720E+02  0.11781533064E+03  0.12267654452E+03  0.00000000000E+00 0.  1.
         12    1    5    5    0    0 -0.89436660836E+02  0.97017057378E+02  0.75562931471E+03  0.76706380894E+03  0.00000000000E+00 0. -1.
         11    1    3    3    0    0  0.18993286816E+02  0.20471672926E+02 -0.11113350859E+03  0.11458835486E+03  0.00000000000E+00 0. -1.
        -12    1    3    3    0    0 -0.39691170107E+02 -0.83054900126E+01 -0.32498074957E+02  0.51966287386E+02  0.00000000000E+00 0.  1.
          5    1    4    4  501    0  0.61126148533E+02 -0.45998271093E+02 -0.37644982630E+01  0.76706524007E+02  0.41800000000E+01 0. -1.
         -5    1    4    4    0  501  0.81531895214E+02 -0.52634878478E+02  0.16363682906E+03  0.19029546656E+03  0.41800000000E+01 0. -1.
</event>
<event>
11    1  0.8551154E-009  0.1358515E+03  0.7561462E-02  0.1112281E+00
         22   -1    0    0    0    0  0.00000000000E+00  0.00000000000E+00  0.48053407511E+03  0.48053407511E+03  0.00000000000E+00 0. -1.
         22   -1    0    0    0    0 -0.00000000000E+00 -0.00000000000E+00 -0.11815786554E+04  0.11815786554E+04  0.00000000000E+00 0. -1.
        -24    2    1    2    0    0  0.42244511748E+02  0.30975432280E+02 -0.11104288557E+04  0.11145011066E+04  0.79475763912E+02 0.  0.
         25    2    1    2    0    0 -0.82796390914E+02 -0.16956990018E+02  0.25119784048E+02  0.15305970773E+03  0.12511390299E+03 0.  0.
         24    2    1    2    0    0  0.40551879166E+02 -0.14018442262E+02  0.38426449130E+03  0.39455191615E+03  0.78555990421E+02 0.  0.
        -11    1    5    5    0    0  0.31964233853E+02 -0.25824560886E+02  0.79994255705E+02  0.89931647025E+02  0.00000000000E+00 0.  1.
         12    1    5    5    0    0  0.85876453135E+01  0.11806118624E+02  0.30427023560E+03  0.30462026912E+03  0.00000000000E+00 0. -1.
         11    1    3    3    0    0  0.21783660394E+02  0.23720408628E+02 -0.10463357663E+04  0.10468312765E+04  0.00000000000E+00 0. -1.
        -12    1    3    3    0    0  0.20460851355E+02  0.72550236519E+01 -0.64093089368E+02  0.67669830139E+02  0.00000000000E+00 0.  1.
          5    1    4    4  501    0  0.24152819461E+02  0.97132772291E+01  0.33275228997E+02  0.42454913817E+02  0.41800000000E+01 0.  1.
         -5    1    4    4    0  501 -0.10694921038E+03 -0.26670267247E+02 -0.81554449492E+01  0.11060479392E+03  0.41800000000E+01 0.  1.
</event>
<event>
11    1  0.8551154E-009  0.1775047E+03  0.7561462E-02  0.1071679E+00
         22   -1    0    0    0    0  0.00000000000E+00  0.00000000000E+00  0.62484966168E+03  0.62484966168E+03  0.00000000000E+00 0. -1.
         22   -1    0    0    0    0 -0.00000000000E+00 -0.00000000000E+00 -0.23997406621E+03  0.23997406621E+03  0.00000000000E+00 0.  1.
        -24    2    1    2    0    0 -0.10990587907E+03  0.35963837906E+02 -0.12067527123E+03  0.18525566481E+03  0.79902693115E+02 0.  0.
         25    2    1    2    0    0  0.14862021341E+03 -0.94545593518E+02  0.63816705762E+02  0.22527070289E+03  0.12508988992E+03 0.  0.
         24    2    1    2    0    0 -0.38714334337E+02  0.58581755612E+02  0.44173416094E+03  0.45429736019E+03  0.79538674646E+02 0.  0.
        -13    1    5    5    0    0 -0.45376679969E+01 -0.18924040640E+02  0.53489295716E+02  0.56919368419E+02  0.00000000000E+00 0.  1.
         14    1    5    5    0    0 -0.34176666340E+02  0.77505796252E+02  0.38824486522E+03  0.39737799177E+03  0.00000000000E+00 0. -1.
         11    1    3    3    0    0 -0.43398649789E+02 -0.21842106929E+02 -0.64514008693E+02  0.80762477403E+02  0.00000000000E+00 0. -1.
        -12    1    3    3    0    0 -0.66507229283E+02  0.57805944835E+02 -0.56161262535E+02  0.10449318741E+03  0.00000000000E+00 0.  1.
          5    1    4    4  501    0  0.14602956472E+03 -0.45604297422E+02  0.11517372376E+02  0.15347477963E+03  0.41800000000E+01 0.  1.
         -5    1    4    4    0  501  0.25906486847E+01 -0.48941296095E+02  0.52299333385E+02  0.71795923259E+02  0.41800000000E+01 0.  1.
</event>
<event>
11    1  0.8551154E-009  0.1599166E+03  0.7561462E-02  0.1087156E+00
         22   -1    0    0    0    0  0.00000000000E+00  0.00000000000E+00  0.60123682274E+03  0.60123682274E+03  0.00000000000E+00 0.  1.
         22   -1    0    0    0    0 -0.00000000000E+00 -0.00000000000E+00 -0.71273686567E+03  0.71273686567E+03  0.00000000000E+00 0. -1.
        -24    2    1    2    0    0  0.40248044908E+02 -0.58719218063E+02 -0.66640929429E+03  0.67510749910E+03  0.81246145377E+02 0.  0.
         25    2    1    2    0    0 -0.12816544544E+03  0.52565069726E+02  0.25702668433E+03  0.31764843645E+03  0.12509334419E+03 0.  0.
         24    2    1    2    0    0  0.87917400528E+02  0.61541483366E+01  0.29788256702E+03  0.32121775286E+03  0.81728074498E+02 0.  0.
        -13    1    5    5    0    0  0.96747761458E+02  0.21984909114E+02  0.27271631298E+03  0.29020277901E+03  0.00000000000E+00 0.  1.
         14    1    5    5    0    0 -0.88303609302E+01 -0.15830760778E+02  0.25166254040E+02  0.31014973857E+02  0.00000000000E+00 0. -1.
         11    1    3    3    0    0  0.44720775528E+02 -0.75969735504E+02 -0.49642138856E+03  0.50418800412E+03  0.00000000000E+00 0. -1.
        -12    1    3    3    0    0 -0.44727306201E+01  0.17250517441E+02 -0.16998790572E+03  0.17091949498E+03  0.00000000000E+00 0.  1.
          5    1    4    4  501    0 -0.11871891911E+02  0.55967549073E+02  0.14562394853E+03  0.15651554285E+03  0.41800000000E+01 0.  1.
         -5    1    4    4    0  501 -0.11629355352E+03 -0.34024793472E+01  0.11140273580E+03  0.16113289360E+03  0.41800000000E+01 0.  1.
</event>
<event>
11    1  0.8551154E-009  0.1644316E+03  0.7561462E-02  0.1082982E+00
         22   -1    0    0    0    0  0.00000000000E+00  0.00000000000E+00  0.17303007109E+04  0.17303007109E+04  0.00000000000E+00 0.  1.
         22   -1    0    0    0    0 -0.00000000000E+00 -0.00000000000E+00 -0.25690140870E+04  0.25690140870E+04  0.00000000000E+00 0.  1.
        -24    2    1    2    0    0 -0.18592194573E+02  0.73762880206E+02 -0.25090054537E+04  0.25112995684E+04  0.75700222059E+02 0.  0.
         25    2    1    2    0    0 -0.88897084543E+02 -0.64804988302E+02  0.67834748126E+02  0.17986435860E+03  0.12508899348E+03 0.  0.
         24    2    1    2    0    0  0.10748927912E+03 -0.89578919037E+01  0.16024573294E+04  0.16081508709E+04  0.81520194292E+02 0.  0.
        -11    1    5    5    0    0  0.11692564486E+03 -0.17593201344E+02  0.15308823311E+04  0.15354419035E+04  0.00000000000E+00 0.  1.
         12    1    5    5    0    0 -0.94363657465E+01  0.86353094399E+01  0.71574998231E+02  0.72708967393E+02  0.00000000000E+00 0. -1.
         11    1    3    3    0    0  0.27363773210E+01  0.29335261682E+02 -0.24606907465E+03  0.24782662254E+03  0.00000000000E+00 0. -1.
        -12    1    3    3    0    0 -0.21328571894E+02  0.44427618523E+02 -0.22629363790E+04  0.22634729459E+04  0.00000000000E+00 0.  1.
          5    1    4    4  501    0 -0.11389267798E+01 -0.15633694339E+02  0.77071099340E+02  0.78759991788E+02  0.41800000000E+01 0.  1.
         -5    1    4    4    0  501 -0.87758157763E+02 -0.49171293963E+02 -0.92363512139E+01  0.10110436681E+03  0.41800000000E+01 0.  1.
</event>
<event>
11    1  0.8551154E-009  0.2396442E+03  0.7561462E-02  0.1029565E+00
         22   -1    0    0    0    0  0.00000000000E+00  0.00000000000E+00  0.56176775311E+03  0.56176775311E+03  0.00000000000E+00 0. -1.
         22   -1    0    0    0    0 -0.00000000000E+00 -0.00000000000E+00 -0.46444113788E+03  0.46444113788E+03  0.00000000000E+00 0.  1.
        -24    2    1    2    0    0 -0.16357239331E+03  0.11860270374E+03 -0.34529015692E+03  0.40972542417E+03  0.88470907956E+02 0.  0.
         25    2    1    2    0    0  0.13385311621E+03 -0.18887824655E+03  0.14806686341E+03  0.30192837169E+03  0.12508116106E+03 0.  0.
         24    2    1    2    0    0  0.29719277099E+02  0.70275542807E+02  0.29454990874E+03  0.31455509513E+03  0.79770745198E+02 0.  0.
        -13    1    5    5    0    0  0.18641669134E+02 -0.10922236023E+02  0.26138187812E+02  0.33911825813E+02  0.00000000000E+00 0.  1.
         14    1    5    5    0    0  0.11077607964E+02  0.81197778830E+02  0.26841172092E+03  0.28064326932E+03  0.00000000000E+00 0. -1.
         11    1    3    3    0    0 -0.12695215641E+03  0.78799754804E+02 -0.17025198685E+03  0.22652150097E+03  0.00000000000E+00 0. -1.
        -12    1    3    3    0    0 -0.36620236904E+02  0.39802948940E+02 -0.17503817007E+03  0.18320392320E+03  0.00000000000E+00 0.  1.
          5    1    4    4  501    0  0.27966930287E+02 -0.13222957303E+03  0.41836716946E+02  0.14154360621E+03  0.41800000000E+01 0.  1.
         -5    1    4    4    0  501  0.10588618593E+03 -0.56648673519E+02  0.10623014646E+03  0.16038476548E+03  0.41800000000E+01 0.  1.
</event>
<event>
11    1  0.8763404E-009  0.1998784E+03  0.7561462E-02  0.1054610E+00
         22   -1    0    0    0    0  0.00000000000E+00  0.00000000000E+00  0.11556989729E+04  0.11556989729E+04  0.00000000000E+00 0.  1.
         22   -1    0    0    0    0 -0.00000000000E+00 -0.00000000000E+00 -0.30845213333E+04  0.30845213333E+04  0.00000000000E+00 0.  1.
         24    2    1    2    0    0 -0.55677942850E+02 -0.12403902377E+02 -0.26744075366E+04  0.26762204210E+04  0.80288105702E+02 0.  0.
         25    2    1    2    0    0 -0.87532500112E+02 -0.51637392459E+02 -0.38588193750E+03  0.41818709787E+03  0.12508884945E+03 0.  0.
        -24    2    1    2    0    0  0.14321044296E+03  0.64041294836E+02  0.11314671138E+04  0.11458127872E+04  0.89769680175E+02 0.  0.
        -13    1    3    3    0    0  0.89849251167E+01 -0.93929041820E+01 -0.14820545909E+04  0.14821115903E+04  0.00000000000E+00 0.  1.
         14    1    3    3    0    0 -0.64662867966E+02 -0.30109981951E+01 -0.11923529457E+04  0.11941088307E+04  0.00000000000E+00 0. -1.
         13    1    5    5    0    0  0.83821474002E+02  0.73942363655E+02  0.55041024843E+03  0.56164486486E+03  0.00000000000E+00 0. -1.
        -14    1    5    5    0    0  0.59388968960E+02 -0.99010688191E+01  0.58105686533E+03  0.58416792239E+03  0.00000000000E+00 0.  1.
          5    1    4    4  501    0 -0.76339276157E+02  0.12783382705E+02 -0.30177860342E+03  0.31157486715E+03  0.41800000000E+01 0.  1.
         -5    1    4    4    0  501 -0.11193223955E+02 -0.64420775164E+02 -0.84103334088E+02  0.10661223072E+03  0.41800000000E+01 0.  1.
</event>
<event>
11    1  0.8551154E-009  0.1317251E+03  0.7561462E-02  0.1117167E+00
         22   -1    0    0    0    0  0.00000000000E+00  0.00000000000E+00  0.49092087695E+03  0.49092087695E+03  0.00000000000E+00 0. -1.
         22   -1    0    0    0    0 -0.00000000000E+00 -0.00000000000E+00 -0.53439411159E+03  0.53439411159E+03  0.00000000000E+00 0. -1.
         24    2    1    2    0    0 -0.33428486408E+02 -0.15397889770E+02 -0.29534641138E+03  0.30858221852E+03  0.81479593505E+02 0.  0.
         25    2    1    2    0    0  0.29102060003E+02  0.58581306892E+02 -0.20638322037E+03  0.25005143940E+03  0.12511190704E+03 0.  0.
        -24    2    1    2    0    0  0.43264264054E+01 -0.43183417122E+02  0.45825639711E+03  0.46668133062E+03  0.76870107139E+02 0.  0.
        -11    1    3    3    0    0 -0.49727064727E+02  0.16401978453E+02 -0.20059909869E+03  0.20732053507E+03  0.00000000000E+00 0.  1.
         12    1    3    3    0    0  0.16298578319E+02 -0.31799868223E+02 -0.94747312686E+02  0.10126168345E+03  0.00000000000E+00 0. -1.
         11    1    5    5    0    0  0.28209377447E+02  0.78372378887E+01  0.21517115950E+03  0.21715390660E+03  0.00000000000E+00 0. -1.
        -12    1    5    5    0    0 -0.23882951042E+02 -0.51020655010E+02  0.24308523761E+03  0.24952742401E+03  0.00000000000E+00 0.  1.
          5    1    4    4  501    0  0.34441249069E+02 -0.33549945204E+02 -0.81412887216E+02  0.94643167030E+02  0.41800000000E+01 0. -1.
         -5    1    4    4    0  501 -0.53391890659E+01  0.92131252096E+02 -0.12497033315E+03  0.15540827237E+03  0.41800000000E+01 0. -1.
</event>
<event>
11    1  0.8551154E-009  0.2343775E+03  0.7561462E-02  0.1032567E+00
         22   -1    0    0    0    0  0.00000000000E+00  0.00000000000E+00  0.46083013786E+03  0.46083013786E+03  0.00000000000E+00 0. -1.
         22   -1    0    0    0    0 -0.00000000000E+00 -0.00000000000E+00 -0.16651254482E+04  0.16651254482E+04  0.00000000000E+00 0.  1.
         24    2    1    2    0    0  0.29356534025E+02  0.48286972132E+02 -0.12659996154E+04  0.12698375491E+04  0.80863694771E+02 0.  0.
         25    2    1    2    0    0  0.86490378234E+02  0.11718100526E+03 -0.34567122212E+03  0.39540903324E+03  0.12509091192E+03 0.  0.
        -24    2    1    2    0    0 -0.11584691226E+03 -0.16546797739E+03  0.40737552714E+03  0.46070900377E+03  0.74147200986E+02 0.  0.
        -13    1    3    3    0    0  0.31633942201E+02  0.66484495758E+01 -0.10056540119E+04  0.10061733945E+04  0.00000000000E+00 0.  1.
         14    1    3    3    0    0 -0.22774081756E+01  0.41638522556E+02 -0.26034560354E+03  0.26366415462E+03  0.00000000000E+00 0. -1.
         13    1    5    5    0    0 -0.78534957804E+02 -0.12821770935E+03  0.35875490693E+03  0.38898920786E+03  0.00000000000E+00 0. -1.
        -14    1    5    5    0    0 -0.37311954456E+02 -0.37250268043E+02  0.48620620216E+02  0.71719795906E+02  0.00000000000E+00 0.  1.
          5    1    4    4  501    0  0.92666136273E+02  0.90173667759E+02 -0.15146400716E+03  0.19919116705E+03  0.41800000000E+01 0. -1.
         -5    1    4    4    0  501 -0.61757580389E+01  0.27007337504E+02 -0.19420721497E+03  0.19621786619E+03  0.41800000000E+01 0. -1.
</event>
<event>
11    1  0.8551154E-009  0.2355566E+03  0.7561462E-02  0.1031888E+00
         22   -1    0    0    0    0  0.00000000000E+00  0.00000000000E+00  0.36197477045E+03  0.36197477045E+03  0.00000000000E+00 0. -1.
         22   -1    0    0    0    0 -0.00000000000E+00 -0.00000000000E+00 -0.46288935093E+03  0.46288935093E+03  0.00000000000E+00 0.  1.
         24    2    1    2    0    0 -0.22813742177E+03  0.35977035251E+01 -0.28827585183E+03  0.37644954225E+03  0.80942352503E+02 0.  0.
         25    2    1    2    0    0  0.14467121199E+03  0.39609651565E+02 -0.30929100685E+02  0.19774455128E+03  0.12509042416E+03 0.  0.
        -24    2    1    2    0    0  0.83466209783E+02 -0.43207355090E+02  0.21829037204E+03  0.25067002785E+03  0.79694997509E+02 0.  0.
        -13    1    3    3    0    0 -0.64306257912E+02 -0.16776670176E+02 -0.13815306610E+03  0.15330695073E+03  0.00000000000E+00 0.  1.
         14    1    3    3    0    0 -0.16383116386E+03  0.20374373702E+02 -0.15012278573E+03  0.22314259152E+03  0.00000000000E+00 0. -1.
         13    1    5    5    0    0  0.89092877541E+02 -0.55221592554E+02  0.21083160450E+03  0.23545048432E+03  0.00000000000E+00 0. -1.
        -14    1    5    5    0    0 -0.56266677575E+01  0.12014237465E+02  0.74587675387E+01  0.15219543525E+02  0.00000000000E+00 0.  1.
          5    1    4    4  501    0  0.38750764378E+02  0.60604265466E+02 -0.50413194613E+02  0.87940100771E+02  0.41800000000E+01 0.  1.
         -5    1    4    4    0  501  0.10592044761E+03 -0.20994613902E+02  0.19484093928E+02  0.10980445051E+03  0.41800000000E+01 0.  1.
</event>
<event>
11    1  0.8551154E-009  0.1500336E+03  0.7561462E-02  0.1096844E+00
         22   -1    0    0    0    0  0.00000000000E+00  0.00000000000E+00  0.12633995581E+04  0.12633995581E+04  0.00000000000E+00 0. -1.
         22   -1    0    0    0    0 -0.00000000000E+00 -0.00000000000E+00 -0.10331341538E+03  0.10331341538E+03  0.00000000000E+00 0. -1.
         24    2    1    2    0    0 -0.34314351840E+02 -0.21139558511E+02 -0.31554042823E+02  0.93764716482E+02  0.78560860244E+02 0.  0.
         25    2    1    2    0    0  0.87826972555E+02  0.81189729454E+02  0.15832236261E+03  0.23455927619E+03  0.12508690686E+03 0.  0.
        -24    2    1    2    0    0 -0.53512620715E+02 -0.60050170943E+02  0.10333178229E+04  0.10383889808E+04  0.63532107368E+02 0.  0.
        -11    1    3    3    0    0 -0.26791600512E+02  0.25944525719E+02 -0.13447259805E+01  0.37319117899E+02  0.00000000000E+00 0.  1.
         12    1    3    3    0    0 -0.75227513274E+01 -0.47084084230E+02 -0.30209316842E+02  0.56445598583E+02  0.00000000000E+00 0. -1.
         13    1    5    5    0    0 -0.11796546029E+02 -0.58314160081E+02  0.68465299042E+03  0.68723316062E+03  0.00000000000E+00 0. -1.
        -14    1    5    5    0    0 -0.41716074686E+02 -0.17360108613E+01  0.34866483251E+03  0.35115582019E+03  0.00000000000E+00 0.  1.
          5    1    4    4  501    0 -0.58313135478E+01  0.67546609438E+02  0.10719538421E+03  0.12690497019E+03  0.41800000000E+01 0. -1.
         -5    1    4    4    0  501  0.93658286102E+02  0.13643120016E+02  0.51126978406E+02  0.10765430600E+03  0.41800000000E+01 0. -1.
</event>
<event>
11    1  0.8551154E-009  0.1604505E+03  0.7561462E-02  0.1086654E+00
         22   -1    0    0    0    0  0.00000000000E+00  0.00000000000E+00  0.18410731241E+04  0.18410731241E+04  0.00000000000E+00 0.  1.
         22   -1    0    0    0    0 -0.00000000000E+00 -0.00000000000E+00 -0.81717039982E+02  0.81717039982E+02  0.00000000000E+00 0. -1.
        -24    2    1    2    0    0 -0.12022575478E+02 -0.16143913733E+02  0.32041748535E+02  0.95304894048E+02  0.87471028967E+02 0.  0.
         25    2    1    2    0    0 -0.47384930759E+02 -0.66147103188E+02  0.69484998862E+02  0.16461145640E+03  0.12509194853E+03 0.  0.
         24    2    1    2    0    0  0.59407506238E+02  0.82291016920E+02  0.16578293367E+04  0.16628738136E+04  0.80312807915E+02 0.  0.
        -11    1    5    5    0    0  0.61873530643E+02  0.20045390454E+02  0.99507754026E+03  0.99720081358E+03  0.00000000000E+00 0.  1.
         12    1    5    5    0    0 -0.24660244052E+01  0.62245626466E+02  0.66275179645E+03  0.66567300005E+03  0.00000000000E+00 0. -1.
         13    1    3    3    0    0  0.55942657096E+00  0.11252781507E+02 -0.26864905935E+02  0.29131790550E+02  0.00000000000E+00 0. -1.
        -14    1    3    3    0    0 -0.12582002049E+02 -0.27396695240E+02  0.58906654470E+02  0.66173103498E+02  0.00000000000E+00 0.  1.
          5    1    4    4  501    0  0.36508479624E+02 -0.16755823782E+02 -0.66776165867E+01  0.40935188754E+02  0.41800000000E+01 0. -1.
         -5    1    4    4    0  501 -0.83893410383E+02 -0.49391279406E+02  0.76162615448E+02  0.12367626765E+03  0.41800000000E+01 0. -1.
</event>
<event>
11    1  0.8551154E-009  0.1892885E+03  0.7561462E-02  0.1062368E+00
         22   -1    0    0    0    0  0.00000000000E+00  0.00000000000E+00  0.17409479170E+04  0.17409479170E+04  0.00000000000E+00 0. -1.
         22   -1    0    0    0    0 -0.00000000000E+00 -0.00000000000E+00 -0.22424215928E+03  0.22424215928E+03  0.00000000000E+00 0. -1.
        -24    2    1    2    0    0  0.14081953015E+03  0.23587852698E+02 -0.16725923171E+03  0.23444730193E+03  0.81261060312E+02 0.  0.
         25    2    1    2    0    0 -0.13684012431E+03  0.87219325826E+01  0.36992120260E+03  0.41387053528E+03  0.12508330068E+03 0.  0.
         24    2    1    2    0    0 -0.39794058424E+01 -0.32309785281E+02  0.13140437869E+04  0.13168722391E+04  0.79885308148E+02 0.  0.
        -13    1    5    5    0    0 -0.39162103481E+02 -0.22806229363E+02  0.51229307099E+03  0.51429367586E+03  0.00000000000E+00 0.  1.
         14    1    5    5    0    0  0.35182697638E+02 -0.95035559177E+01  0.80175071587E+03  0.80257856325E+03  0.00000000000E+00 0. -1.
         13    1    3    3    0    0  0.15016258015E+03  0.27204302911E+02 -0.14722316230E+03  0.21204606596E+03  0.00000000000E+00 0. -1.
        -14    1    3    3    0    0 -0.93430499972E+01 -0.36164502125E+01 -0.20036069406E+02  0.22401235962E+02  0.00000000000E+00 0.  1.
          5    1    4    4  501    0 -0.15554831637E+03  0.97767975979E+01  0.35988728239E+03  0.39220809900E+03  0.41800000000E+01 0. -1.
         -5    1    4    4    0  501  0.18708192066E+02 -0.10548650153E+01  0.10033920214E+02  0.21662436276E+02  0.41800000000E+01 0. -1.
</event>
<event>
11    1  0.8551154E-009  0.1640192E+03  0.7561462E-02  0.1083357E+00
         22   -1    0    0    0    0  0.00000000000E+00  0.00000000000E+00  0.74517768536E+03  0.74517768536E+03  0.00000000000E+00 0.  1.
         22   -1    0    0    0    0 -0.00000000000E+00 -0.00000000000E+00 -0.25010872613E+03  0.25010872613E+03  0.00000000000E+00 0.  1.
         24    2    1    2    0    0 -0.60394740673E+02 -0.76611418002E+02 -0.11019871678E+03  0.16761470276E+03  0.80212825238E+02 0.  0.
         25    2    1    2    0    0  0.10347738085E+03  0.80650729205E+02 -0.31831342266E+02  0.18405320471E+03  0.12510091665E+03 0.  0.
        -24    2    1    2    0    0 -0.43082640177E+02 -0.40393112033E+01  0.63709901828E+03  0.64361850401E+03  0.80480989674E+02 0.  0.
        -11    1    3    3    0    0  0.34343003977E+01  0.53557811969E+00 -0.51360478785E+02  0.51477956876E+02  0.00000000000E+00 0.  1.
         12    1    3    3    0    0 -0.63829041071E+02 -0.77146996121E+02 -0.58838237999E+02  0.11613674589E+03  0.00000000000E+00 0. -1.
         11    1    5    5    0    0 -0.24429285581E+02  0.25106916785E+02  0.11131397655E+03  0.11669596668E+03  0.00000000000E+00 0. -1.
        -12    1    5    5    0    0 -0.18653354596E+02 -0.29146227988E+02  0.52578504173E+03  0.52692253733E+03  0.00000000000E+00 0.  1.
          5    1    4    4  501    0  0.12998049579E+03  0.81227279488E+02 -0.34244189701E+02  0.15710804291E+03  0.41800000000E+01 0.  1.
         -5    1    4    4    0  501 -0.26503114941E+02 -0.57655028338E+00  0.24128474350E+01  0.26945161802E+02  0.41800000000E+01 0.  1.
</event>
<event>
11    1  0.8551154E-009  0.1537993E+03  0.7561462E-02  0.1093059E+00
         22   -1    0    0    0    0  0.00000000000E+00  0.00000000000E+00  0.78321315903E+03  0.78321315903E+03  0.00000000000E+00 0. -1.
         22   -1    0    0    0    0 -0.00000000000E+00 -0.00000000000E+00 -0.79357269008E+03  0.79357269008E+03  0.00000000000E+00 0.  1.
        -24    2    1    2    0    0 -0.13277182044E+02  0.40406806807E+02 -0.64692152092E+03  0.65325831139E+03  0.80187116009E+02 0.  0.
         25    2    1    2    0    0 -0.76550765670E+02 -0.43473287263E+02 -0.96320056298E+02  0.18076152966E+03  0.12508889211E+03 0.  0.
         24    2    1    2    0    0  0.89827947713E+02  0.30664804556E+01  0.73288204616E+03  0.74276600806E+03  0.80664649367E+02 0.  0.
        -11    1    5    5    0    0  0.83954238465E+01  0.30433464024E+01  0.47886797813E+01  0.10132943942E+02  0.00000000000E+00 0.  1.
         12    1    5    5    0    0  0.81432523867E+02  0.23134053176E-01  0.72809336638E+03  0.73263306412E+03  0.00000000000E+00 0. -1.
         11    1    3    3    0    0 -0.44396554393E+02  0.38616831160E+02 -0.38116535881E+03  0.38568036565E+03  0.00000000000E+00 0. -1.
        -12    1    3    3    0    0  0.31119372350E+02  0.17899756476E+01 -0.26575616211E+03  0.26757794574E+03  0.00000000000E+00 0.  1.
          5    1    4    4  501    0 -0.29533187022E+01 -0.41746275849E+02  0.17163859009E+02  0.45426248961E+02  0.41800000000E+01 0.  1.
         -5    1    4    4    0  501 -0.73597446968E+02 -0.17270114143E+01 -0.11348391531E+03  0.13533528070E+03  0.41800000000E+01 0.  1.
</event>
<event>
11    1  0.8551154E-009  0.1452979E+03  0.7561462E-02  0.1101783E+00
         22   -1    0    0    0    0  0.00000000000E+00  0.00000000000E+00  0.61539340002E+03  0.61539340002E+03  0.00000000000E+00 0.  1.
         22   -1    0    0    0    0 -0.00000000000E+00 -0.00000000000E+00 -0.19772917428E+03  0.19772917428E+03  0.00000000000E+00 0.  1.
         24    2    1    2    0    0  0.64522373781E+02 -0.34494329312E+02 -0.14549504683E+03  0.18134216057E+03  0.79769512188E+02 0.  0.
         25    2    1    2    0    0 -0.64525229962E+02  0.52800213419E+02  0.16045099422E+03  0.21987058343E+03  0.12508870482E+03 0.  0.
        -24    2    1    2    0    0  0.28561816654E-02 -0.18305884106E+02  0.40270827835E+03  0.41190983030E+03  0.84620597025E+02 0.  0.
        -13    1    3    3    0    0  0.43230124434E+02  0.13171581865E+02 -0.10797962218E+03  0.11705525632E+03  0.00000000000E+00 0.  1.
         14    1    3    3    0    0  0.21292249347E+02 -0.47665911177E+02 -0.37515424653E+02  0.64286904246E+02  0.00000000000E+00 0. -1.
         11    1    5    5    0    0 -0.12016984999E+02 -0.34999088708E+02  0.75753323348E+02  0.84308422694E+02  0.00000000000E+00 0. -1.
        -12    1    5    5    0    0  0.12019841180E+02  0.16693204602E+02  0.32695495500E+03  0.32760140760E+03  0.00000000000E+00 0.  1.
          5    1    4    4  501    0 -0.95463343749E+02  0.87072760368E+01  0.10976008007E+03  0.14578687950E+03  0.41800000000E+01 0. -1.
         -5    1    4    4    0  501  0.30938113786E+02  0.44092937382E+02  0.50690914145E+02  0.74083703934E+02  0.41800000000E+01 0. -1.
</event>
<event>
11    1  0.8551154E-009  0.1447631E+03  0.7561462E-02  0.1102353E+00
         22   -1    0    0    0    0  0.00000000000E+00  0.00000000000E+00  0.13789042564E+04  0.13789042564E+04  0.00000000000E+00 0. -1.
         22   -1    0    0    0    0 -0.00000000000E+00 -0.00000000000E+00 -0.14030165420E+03  0.14030165420E+03  0.00000000000E+00 0. -1.
         24    2    1    2    0    0  0.30590574080E+02  0.75321751157E+02 -0.57407633483E+02  0.12766382651E+03  0.79957906416E+02 0.  0.
         25    2    1    2    0    0 -0.53094336620E+02 -0.27201402766E+02  0.58292933855E+02  0.15034753315E+03  0.12508952672E+03 0.  0.
        -24    2    1    2    0    0  0.22503762540E+02 -0.48120348390E+02  0.12377173018E+04  0.12411945509E+04  0.76143330426E+02 0.  0.
        -13    1    3    3    0    0 -0.43243168443E+01  0.10449320620E+02  0.18627845163E+02  0.21791847857E+02  0.00000000000E+00 0.  1.
         14    1    3    3    0    0  0.34914890925E+02  0.64872430537E+02 -0.76035478646E+02  0.10587197866E+03  0.00000000000E+00 0. -1.
         13    1    5    5    0    0  0.25839974151E+02 -0.63053406462E+02  0.11591452035E+04  0.11611464331E+04  0.00000000000E+00 0. -1.
        -14    1    5    5    0    0 -0.33362116112E+01  0.14933058072E+02  0.78572098290E+02  0.80048117786E+02  0.00000000000E+00 0.  1.
          5    1    4    4  501    0 -0.80150590652E+02 -0.17050390545E+02 -0.33711572920E+01  0.82119852052E+02  0.41800000000E+01 0. -1.
         -5    1    4    4    0  501  0.27056254032E+02 -0.10151012221E+02  0.61664091147E+02  0.68227681100E+02  0.41800000000E+01 0. -1.
</event>
<event>
11    1  0.8551154E-009  0.1303926E+03  0.7561462E-02  0.1118788E+00
         22   -1    0    0    0    0  0.00000000000E+00  0.00000000000E+00  0.38859317037E+03  0.38859317037E+03  0.00000000000E+00 0.  1.
         22   -1    0    0    0    0 -0.00000000000E+00 -0.00000000000E+00 -0.70745526473E+03  0.70745526473E+03  0.00000000000E+00 0.  1.
         24    2    1    2    0    0 -0.15872219211E+02 -0.65815975809E+01 -0.62700295985E+03  0.63235748646E+03  0.80299652802E+02 0.  0.
         25    2    1    2    0    0  0.51454400045E+02  0.51008965661E+01 -0.81288741353E+01  0.13560062536E+03  0.12509147282E+03 0.  0.
        -24    2    1    2    0    0 -0.35582180834E+02  0.14807010149E+01  0.31626973963E+03  0.32809032328E+03  0.79677022755E+02 0.  0.
        -13    1    3    3    0    0  0.14485761630E+02 -0.31002107359E+02 -0.15416698595E+03  0.15791905365E+03  0.00000000000E+00 0.  1.
         14    1    3    3    0    0 -0.30357980841E+02  0.24420509778E+02 -0.47283597391E+03  0.47443843280E+03  0.00000000000E+00 0. -1.
         13    1    5    5    0    0 -0.11438162634E+01 -0.18757535938E+02  0.14626118040E+02  0.23813374374E+02  0.00000000000E+00 0. -1.
        -14    1    5    5    0    0 -0.34438364571E+02  0.20238236953E+02  0.30164362159E+03  0.30427694891E+03  0.00000000000E+00 0.  1.
          5    1    4    4  501    0  0.50290319479E+02  0.60890814228E+02 -0.93074121863E+01  0.79629817356E+02  0.41800000000E+01 0.  1.
         -5    1    4    4    0  501  0.11640805668E+01 -0.55789917662E+02  0.11785380511E+01  0.55970808000E+02  0.41800000000E+01 0.  1.
</event>
<event>
11    1  0.8551154E-009  0.1274411E+03  0.7561462E-02  0.1122454E+00
         22   -1    0    0    0    0  0.00000000000E+00  0.00000000000E+00  0.42483129063E+03  0.42483129063E+03  0.00000000000E+00 0.  1.
         22   -1    0    0    0    0 -0.00000000000E+00 -0.00000000000E+00 -0.51779155119E+03  0.51779155119E+03  0.00000000000E+00 0.  1.
         24    2    1    2    0    0  0.10625212464E+01  0.24374368211E+02 -0.48075323032E+03  0.48810138697E+03  0.80771633147E+02 0.  0.
         25    2    1    2    0    0  0.76787727558E+01 -0.22853667125E+02  0.12205257800E+03  0.17642633295E+03  0.12509262773E+03 0.  0.
        -24    2    1    2    0    0 -0.87412940022E+01 -0.15207010858E+01  0.26574039176E+03  0.27809512189E+03  0.81487534351E+02 0.  0.
        -13    1    3    3    0    0 -0.34233631164E+02  0.62500710640E+01 -0.34261511457E+03  0.34437787621E+03  0.00000000000E+00 0.  1.
         14    1    3    3    0    0  0.35296152410E+02  0.18124297147E+02 -0.13813811575E+03  0.14372351076E+03  0.00000000000E+00 0. -1.
         11    1    5    5    0    0 -0.34046215260E+01  0.29836879780E+02  0.39447300914E+02  0.49577418167E+02  0.00000000000E+00 0. -1.
        -12    1    5    5    0    0 -0.53366724762E+01 -0.31357580865E+02  0.22629309085E+03  0.22851770373E+03  0.00000000000E+00 0.  1.
          5    1    4    4  501    0  0.41981652857E+02 -0.30559961392E+02  0.29559191179E+01  0.52178350632E+02  0.41800000000E+01 0. -1.
         -5    1    4    4    0  501 -0.34302880101E+02  0.77062942667E+01  0.11909665888E+03  0.12424798232E+03  0.41800000000E+01 0. -1.
</event>
<event>
11    1  0.8551154E-009  0.8423243E+03  0.7561462E-02  0.8845400E-01
         22   -1    0    0    0    0  0.00000000000E+00  0.00000000000E+00  0.22808676706E+03  0.22808676706E+03  0.00000000000E+00 0. -1.
         22   -1    0    0    0    0 -0.00000000000E+00 -0.00000000000E+00 -0.77767572904E+03  0.77767572904E+03  0.00000000000E+00 0. -1.
        -24    2    1    2    0    0 -0.24463470234E+03  0.35252677877E+02 -0.32746472758E+03  0.41803848108E+03  0.80213059854E+02 0.  0.
         25    2    1    2    0    0  0.36787914508E+03 -0.15427019817E+02 -0.11983014366E+03  0.40691453504E+03  0.12508843738E+03 0.  0.
         24    2    1    2    0    0 -0.12324444274E+03 -0.19825658060E+02 -0.10229409073E+03  0.18080947999E+03  0.81521393939E+02 0.  0.
        -11    1    5    5    0    0  0.55415874043E+01  0.12375643685E+02 -0.58097003262E+00  0.13572150668E+02  0.00000000000E+00 0.  1.
         12    1    5    5    0    0 -0.12878603015E+03 -0.32201301745E+02 -0.10171312070E+03  0.16723732932E+03  0.00000000000E+00 0. -1.
         11    1    3    3    0    0 -0.10780143470E+03  0.34004844271E+02 -0.20642800056E+03  0.23535079811E+03  0.00000000000E+00 0. -1.
        -12    1    3    3    0    0 -0.13683326764E+03  0.12478336061E+01 -0.12103672702E+03  0.18268768297E+03  0.00000000000E+00 0.  1.
          5    1    4    4  501    0  0.14366256536E+03 -0.60255378662E+02 -0.78574131721E+02  0.17453082799E+03  0.41800000000E+01 0.  1.
         -5    1    4    4    0  501  0.22421657972E+03  0.44828358845E+02 -0.41256011942E+02  0.23238370704E+03  0.41800000000E+01 0.  1.
</event>
<event>
11    1  0.8551154E-009  0.1411717E+03  0.7561462E-02  0.1106257E+00
         22   -1    0    0    0    0  0.00000000000E+00  0.00000000000E+00  0.42653384418E+03  0.42653384418E+03  0.00000000000E+00 0. -1.
         22   -1    0    0    0    0 -0.00000000000E+00 -0.00000000000E+00 -0.68488629236E+03  0.68488629236E+03  0.00000000000E+00 0. -1.
         24    2    1    2    0    0 -0.26949512778E+02 -0.61867757984E+02 -0.56537076360E+03  0.57479076817E+03  0.78653869102E+02 0.  0.
         25    2    1    2    0    0  0.96066765378E+01  0.48070426265E+02 -0.69780847174E+02  0.15138077534E+03  0.12507485116E+03 0.  0.
        -24    2    1    2    0    0  0.17342836240E+02  0.13797331719E+02  0.37679916259E+03  0.38524859303E+03  0.77121522098E+02 0.  0.
        -13    1    3    3    0    0 -0.54433077079E+02 -0.40623564862E+02 -0.33503586353E+03  0.34185123044E+03  0.00000000000E+00 0.  1.
         14    1    3    3    0    0  0.27483564301E+02 -0.21244193122E+02 -0.23033490007E+03  0.23293953773E+03  0.00000000000E+00 0. -1.
         11    1    5    5    0    0  0.10307903696E+02 -0.74013391657E+01  0.35056331487E+03  0.35079291674E+03  0.00000000000E+00 0. -1.
        -12    1    5    5    0    0  0.70349325439E+01  0.21198670884E+02  0.26235847721E+02  0.34455676293E+02  0.00000000000E+00 0.  1.
          5    1    4    4  501    0  0.43982692165E+01  0.39513760601E+02 -0.10614902234E+03  0.11342737497E+03  0.41800000000E+01 0. -1.
         -5    1    4    4    0  501  0.52084073213E+01  0.85566656642E+01  0.36368175168E+02  0.37953400364E+02  0.41800000000E+01 0. -1.
</event>
<event>
11    1  0.8551154E-009  0.1407903E+03  0.7561462E-02  0.1106679E+00
         22   -1    0    0    0    0  0.00000000000E+00  0.00000000000E+00  0.53021763459E+03  0.53021763459E+03  0.00000000000E+00 0.  1.
         22   -1    0    0    0    0 -0.00000000000E+00 -0.00000000000E+00 -0.11330297564E+04  0.11330297564E+04  0.00000000000E+00 0.  1.
        -24    2    1    2    0    0  0.83086730869E+01  0.25714117327E+02 -0.98639496431E+03  0.98999920037E+03  0.79957121333E+02 0.  0.
         25    2    1    2    0    0 -0.20686585618E+02 -0.88134758908E+02 -0.96874338551E+02  0.18228496114E+03  0.12508996377E+03 0.  0.
         24    2    1    2    0    0  0.12377912531E+02  0.62420641582E+02  0.48045718107E+03  0.49096322946E+03  0.78461714350E+02 0.  0.
        -11    1    5    5    0    0  0.32011418687E+02  0.43477989503E+02  0.43194251948E+03  0.43530380957E+03  0.00000000000E+00 0.  1.
         12    1    5    5    0    0 -0.19633506156E+02  0.18942652079E+02  0.48514661596E+02  0.55659419882E+02  0.00000000000E+00 0. -1.
         13    1    3    3    0    0  0.21308203498E+01  0.49268493304E+02 -0.38974231943E+03  0.39284984458E+03  0.00000000000E+00 0. -1.
        -14    1    3    3    0    0  0.61778527372E+01 -0.23554375978E+02 -0.59665264487E+03  0.59714935579E+03  0.00000000000E+00 0.  1.
          5    1    4    4  501    0 -0.48885531382E+02 -0.78523989202E+02 -0.13401905298E+02  0.93556910618E+02  0.41800000000E+01 0.  1.
         -5    1    4    4    0  501  0.28198945765E+02 -0.96107697061E+01 -0.83472433252E+02  0.88728050523E+02  0.41800000000E+01 0.  1.
</event>
<event>
11    1  0.8551154E-009  0.1251371E+03  0.7561462E-02  0.1125393E+00
         22   -1    0    0    0    0  0.00000000000E+00  0.00000000000E+00  0.11031942866E+04  0.11031942866E+04  0.00000000000E+00 0. -1.
         22   -1    0    0    0    0 -0.00000000000E+00 -0.00000000000E+00 -0.87866767346E+03  0.87866767346E+03  0.00000000000E+00 0. -1.
         24    2    1    2    0    0  0.29523008971E+02  0.19195769177E+02 -0.83284758531E+03  0.83744077694E+03  0.80198933407E+02 0.  0.
         25    2    1    2    0    0 -0.24810863590E+02 -0.16856396405E+02  0.58754837078E+02  0.14141727859E+03  0.12508796405E+03 0.  0.
        -24    2    1    2    0    0 -0.47121453807E+01 -0.23393727723E+01  0.99861936140E+03  0.10030039045E+04  0.93533558717E+02 0.  0.
        -13    1    3    3    0    0  0.54671243312E+02  0.38713583969E+01 -0.42290485427E+03  0.42644161151E+03  0.00000000000E+00 0.  1.
         14    1    3    3    0    0 -0.25148234341E+02  0.15324410780E+02 -0.40994273104E+03  0.41099916543E+03  0.00000000000E+00 0. -1.
         13    1    5    5    0    0  0.11052168750E+02 -0.41724930749E+02  0.29900262642E+03  0.30210211997E+03  0.00000000000E+00 0. -1.
        -14    1    5    5    0    0 -0.15764314131E+02  0.39385557977E+02  0.69961673497E+03  0.70090178458E+03  0.00000000000E+00 0.  1.
          5    1    4    4  501    0 -0.71190797591E+02  0.83798754400E+01  0.50564493338E+02  0.87821366196E+02  0.41800000000E+01 0.  1.
         -5    1    4    4    0  501  0.46379934001E+02 -0.25236271845E+02  0.81903437396E+01  0.53595912392E+02  0.41800000000E+01 0.  1.
</event>
<event>
11    1  0.8551154E-009  0.1454811E+03  0.7561462E-02  0.1101588E+00
         22   -1    0    0    0    0  0.00000000000E+00  0.00000000000E+00  0.67965029131E+03  0.67965029131E+03  0.00000000000E+00 0. -1.
         22   -1    0    0    0    0 -0.00000000000E+00 -0.00000000000E+00 -0.11053843827E+04  0.11053843827E+04  0.00000000000E+00 0. -1.
         24    2    1    2    0    0  0.63306419140E+01  0.64169503248E+02 -0.69907647614E+03  0.70674043652E+03  0.81340782813E+02 0.  0.
         25    2    1    2    0    0  0.59651486444E+02 -0.29226085209E+02 -0.38541535995E+03  0.41061656620E+03  0.12509396813E+03 0.  0.
        -24    2    1    2    0    0 -0.65982128358E+02 -0.34943418040E+02  0.65875774466E+03  0.66767767133E+03  0.79101345865E+02 0.  0.
        -11    1    3    3    0    0 -0.59053601029E+01  0.46309039288E+02 -0.14689747515E+03  0.15413717463E+03  0.00000000000E+00 0.  1.
         12    1    3    3    0    0  0.12236002017E+02  0.17860463960E+02 -0.55217900099E+03  0.55260326189E+03  0.00000000000E+00 0. -1.
         13    1    5    5    0    0 -0.45308568739E+02 -0.60278099261E+02  0.49185404818E+03  0.49760096500E+03  0.00000000000E+00 0. -1.
        -14    1    5    5    0    0 -0.20673559619E+02  0.25334681221E+02  0.16690369648E+03  0.17007670634E+03  0.00000000000E+00 0.  1.
          5    1    4    4  501    0  0.33228130622E+02  0.83308118402E+01 -0.35195963679E+03  0.35364752144E+03  0.41800000000E+01 0.  1.
         -5    1    4    4    0  501  0.26423355822E+02 -0.37556897049E+02 -0.33455723154E+02  0.56969044758E+02  0.41800000000E+01 0.  1.
</event>
<event>
11    1  0.8551154E-009  0.1362687E+03  0.7561462E-02  0.1111798E+00
         22   -1    0    0    0    0  0.00000000000E+00  0.00000000000E+00  0.92275824269E+03  0.92275824269E+03  0.00000000000E+00 0. -1.
         22   -1    0    0    0    0 -0.00000000000E+00 -0.00000000000E+00 -0.74819165920E+03  0.74819165920E+03  0.00000000000E+00 0.  1.
         24    2    1    2    0    0 -0.38202740847E+02 -0.17824099718E+02 -0.72939058287E+03  0.73520605166E+03  0.82098526698E+02 0.  0.
         25    2    1    2    0    0 -0.24687368143E+02  0.30849439332E+02  0.38659543530E+03  0.40824622281E+03  0.12509114193E+03 0.  0.
        -24    2    1    2    0    0  0.62890108990E+02 -0.13025339614E+02  0.51736173106E+03  0.52749762742E+03  0.80409955197E+02 0.  0.
        -11    1    3    3    0    0 -0.52047251396E+02  0.58795903766E+01 -0.62750710694E+03  0.62968933231E+03  0.00000000000E+00 0.  1.
         12    1    3    3    0    0  0.13844510549E+02 -0.23703690094E+02 -0.10188347593E+03  0.10551671935E+03  0.00000000000E+00 0. -1.
         13    1    5    5    0    0  0.48513293295E+02 -0.27998733222E+02  0.48980492545E+03  0.49299729582E+03  0.00000000000E+00 0. -1.
        -14    1    5    5    0    0  0.14376815695E+02  0.14973393608E+02  0.27556805607E+02  0.34500331606E+02  0.00000000000E+00 0.  1.
          5    1    4    4  501    0 -0.39430843962E+01 -0.26026210574E+02  0.12818883356E+02  0.29575458101E+02  0.41800000000E+01 0. -1.
         -5    1    4    4    0  501 -0.20744283747E+02  0.56875649905E+02  0.37377655194E+03  0.37867076470E+03  0.41800000000E+01 0. -1.
</event>
<event>
11    1  0.8551154E-009  0.3138890E+03  0.7561462E-02  0.9944786E-01
         22   -1    0    0    0    0  0.00000000000E+00  0.00000000000E+00  0.45309296264E+03  0.45309296264E+03  0.00000000000E+00 0. -1.
         22   -1    0    0    0    0 -0.00000000000E+00 -0.00000000000E+00 -0.99938925150E+03  0.99938925150E+03  0.00000000000E+00 0. -1.
         24    2    1    2    0    0 -0.27662874655E+03 -0.98734837601E+01 -0.73320464662E+03  0.78781342103E+03  0.80249507367E+02 0.  0.
         25    2    1    2    0    0  0.39872436661E+03  0.14129758209E+03  0.12366665843E+03  0.45813641048E+03  0.12509756577E+03 0.  0.
        -24    2    1    2    0    0 -0.12209562006E+03 -0.13142409833E+03  0.63241699316E+02  0.20653238264E+03  0.80476571039E+02 0.  0.
        -13    1    3    3    0    0 -0.73265244384E+02  0.20778287310E+02 -0.13184064365E+03  0.15225468327E+03  0.00000000000E+00 0.  1.
         14    1    3    3    0    0 -0.20336350217E+03 -0.30651771070E+02 -0.60136400297E+03  0.63555873776E+03  0.00000000000E+00 0. -1.
         11    1    5    5    0    0 -0.12202716023E+03 -0.10933396733E+03  0.76442643007E+02  0.18079829069E+03  0.00000000000E+00 0. -1.
        -12    1    5    5    0    0 -0.68459833036E-01 -0.22090130991E+02 -0.13200943692E+02  0.25734091947E+02  0.00000000000E+00 0.  1.
          5    1    4    4  501    0  0.21370456703E+03  0.14094712147E+03  0.69192776179E+02  0.26521848672E+03  0.41800000000E+01 0. -1.
         -5    1    4    4    0  501  0.18501979958E+03  0.35046061457E+00  0.54473882254E+02  0.19291792376E+03  0.41800000000E+01 0. -1.
</event>
<event>
11    1  0.8551154E-009  0.1478574E+03  0.7561462E-02  0.1099088E+00
         22   -1    0    0    0    0  0.00000000000E+00  0.00000000000E+00  0.43139216658E+03  0.43139216658E+03  0.00000000000E+00 0. -1.
         22   -1    0    0    0    0 -0.00000000000E+00 -0.00000000000E+00 -0.45887138827E+03  0.45887138827E+03  0.00000000000E+00 0.  1.
         24    2    1    2    0    0 -0.14466523699E+02 -0.74336208687E+02 -0.37129191973E+03  0.38732423813E+03  0.80169966697E+02 0.  0.
         25    2    1    2    0    0  0.65054031000E+02  0.11165936868E+03  0.42299144051E+02  0.18475940716E+03  0.12508788664E+03 0.  0.
        -24    2    1    2    0    0 -0.50587507301E+02 -0.37323159989E+02  0.30151355398E+03  0.31817990956E+03  0.79849342187E+02 0.  0.
        -11    1    3    3    0    0  0.38836602725E+01 -0.35002000885E+02 -0.31125468610E+03  0.31324064632E+03  0.00000000000E+00 0.  1.
         12    1    3    3    0    0 -0.18350183971E+02 -0.39334207802E+02 -0.60037233622E+02  0.74083591815E+02  0.00000000000E+00 0. -1.
         11    1    5    5    0    0 -0.96179030121E+00 -0.43740068205E+02  0.20329397195E+03  0.20794844947E+03  0.00000000000E+00 0. -1.
        -12    1    5    5    0    0 -0.49625717000E+02  0.64169082160E+01  0.98219582032E+02  0.11023146009E+03  0.00000000000E+00 0.  1.
          5    1    4    4  501    0  0.20594427470E+02  0.10669895481E+03  0.72430020969E+02  0.13066130926E+03  0.41800000000E+01 0.  1.
         -5    1    4    4    0  501  0.44459603529E+02  0.49604138633E+01 -0.30130876918E+02  0.54098097892E+02  0.41800000000E+01 0.  1.
</event>
<event>
11    1  0.8551154E-009  0.1489970E+03  0.7561462E-02  0.1097908E+00
         22   -1    0    0    0    0  0.00000000000E+00  0.00000000000E+00  0.32809803321E+04  0.32809803321E+04  0.00000000000E+00 0.  1.
         22   -1    0    0    0    0 -0.00000000000E+00 -0.00000000000E+00 -0.39333909551E+03  0.39333909551E+03  0.00000000000E+00 0. -1.
        -24    2    1    2    0    0 -0.41066667154E+02 -0.69121572128E+02 -0.37213214984E+03  0.38963973992E+03  0.82900706247E+02 0.  0.
         25    2    1    2    0    0  0.41709152225E+02  0.11855939279E+03  0.66621073110E+03  0.68940580555E+03  0.12509054115E+03 0.  0.
         24    2    1    2    0    0 -0.64248507107E+00 -0.49437820662E+02  0.25935626553E+04  0.25952738821E+04  0.80216989341E+02 0.  0.
        -13    1    5    5    0    0 -0.22286602814E+02 -0.39971711573E+02  0.23745259187E+04  0.23749668985E+04  0.00000000000E+00 0.  1.
         14    1    5    5    0    0  0.21644117743E+02 -0.94661090895E+01  0.21903673664E+03  0.22030698366E+03  0.00000000000E+00 0. -1.
         13    1    3    3    0    0 -0.30512724549E+02 -0.17900726255E+02 -0.29080732620E+03  0.29295112789E+03  0.00000000000E+00 0. -1.
        -14    1    3    3    0    0 -0.10553942605E+02 -0.51220845873E+02 -0.81324823638E+02  0.96688612030E+02  0.00000000000E+00 0.  1.
          5    1    4    4  501    0  0.50347737889E+02 -0.72611141996E+01  0.20236984728E+03  0.20870708176E+03  0.41800000000E+01 0.  1.
         -5    1    4    4    0  501 -0.86385856636E+01  0.12582050699E+03  0.46384088382E+03  0.48069872378E+03  0.41800000000E+01 0.  1.
</event>
<event>
11    1  0.8551154E-009  0.1283856E+03  0.7561462E-02  0.1121269E+00
         22   -1    0    0    0    0  0.00000000000E+00  0.00000000000E+00  0.69492441794E+03  0.69492441794E+03  0.00000000000E+00 0. -1.
         22   -1    0    0    0    0 -0.00000000000E+00 -0.00000000000E+00 -0.62102644972E+03  0.62102644972E+03  0.00000000000E+00 0. -1.
        -24    2    1    2    0    0  0.81573369920E+00 -0.30066383878E+02 -0.58794535846E+03  0.59382014638E+03  0.77704368243E+02 0.  0.
         25    2    1    2    0    0  0.25152580163E+02  0.13686539217E+02  0.12689858108E+03  0.18046258789E+03  0.12507406647E+03 0.  0.
         24    2    1    2    0    0 -0.25968313862E+02  0.16379844661E+02  0.53494474560E+03  0.54166813340E+03  0.79346286980E+02 0.  0.
        -13    1    5    5    0    0 -0.15926066190E+02 -0.20827039308E+02  0.64182462396E+02  0.69331043767E+02  0.00000000000E+00 0.  1.
         14    1    5    5    0    0 -0.10042247671E+02  0.37206883969E+02  0.47076228321E+03  0.47233708963E+03  0.00000000000E+00 0. -1.
         13    1    3    3    0    0  0.11213454365E+02  0.23973046230E+02 -0.25346929071E+03  0.25484726767E+03  0.00000000000E+00 0. -1.
        -14    1    3    3    0    0 -0.10397720666E+02 -0.54039430108E+02 -0.33447606776E+03  0.33897287871E+03  0.00000000000E+00 0.  1.
          5    1    4    4  501    0  0.35841635147E+02 -0.48814430103E+01  0.14660194058E+03  0.15105645527E+03  0.41800000000E+01 0.  1.
         -5    1    4    4    0  501 -0.10689054985E+02  0.18567982228E+02 -0.19703359496E+02  0.29406132624E+02  0.41800000000E+01 0.  1.
</event>
<event>
11    1  0.8551154E-009  0.1492973E+03  0.7561462E-02  0.1097599E+00
         22   -1    0    0    0    0  0.00000000000E+00  0.00000000000E+00  0.19825007396E+03  0.19825007396E+03  0.00000000000E+00 0.  1.
         22   -1    0    0    0    0 -0.00000000000E+00 -0.00000000000E+00 -0.71445326578E+03  0.71445326578E+03  0.00000000000E+00 0. -1.
         24    2    1    2    0    0  0.40369321587E+02  0.68371874377E+02 -0.56012296832E+03  0.57136900457E+03  0.80127426079E+02 0.  0.
         25    2    1    2    0    0 -0.72543341587E+02 -0.72688029650E+02 -0.86810116741E+02  0.18364161479E+03  0.12506862217E+03 0.  0.
        -24    2    1    2    0    0  0.32174020000E+02  0.43161552727E+01  0.13072989324E+03  0.15769272038E+03  0.81993245550E+02 0.  0.
        -11    1    3    3    0    0  0.58774620906E+02  0.53851989092E+02 -0.30764065465E+03  0.31780066895E+03  0.00000000000E+00 0.  1.
         12    1    3    3    0    0 -0.18405299318E+02  0.14519885285E+02 -0.25248231367E+03  0.25356833562E+03  0.00000000000E+00 0. -1.
         13    1    5    5    0    0 -0.27406878769E+02  0.62607875856E+01  0.34626037767E+02  0.44601535361E+02  0.00000000000E+00 0. -1.
        -14    1    5    5    0    0  0.59580898769E+02 -0.19446323130E+01  0.96103855471E+02  0.11309118502E+03  0.00000000000E+00 0.  1.
          5    1    4    4  501    0  0.23288534910E+02  0.11019502162E+02  0.51333776884E+01  0.26600925785E+02  0.41800000000E+01 0. -1.
         -5    1    4    4    0  501 -0.95831876497E+02 -0.83707531812E+02 -0.91943494429E+02  0.15704068900E+03  0.41800000000E+01 0. -1.
</event>
<event>
11    1  0.8551154E-009  0.2661228E+03  0.7561462E-02  0.1015644E+00
         22   -1    0    0    0    0  0.00000000000E+00  0.00000000000E+00  0.18395687199E+04  0.18395687199E+04  0.00000000000E+00 0. -1.
         22   -1    0    0    0    0 -0.00000000000E+00 -0.00000000000E+00 -0.28548960802E+03  0.28548960802E+03  0.00000000000E+00 0.  1.
        -24    2    1    2    0    0  0.25002001702E+02  0.22786819887E+03 -0.15490599375E+03  0.28809299635E+03  0.80328646818E+02 0.  0.
         25    2    1    2    0    0 -0.41396225739E+02 -0.26084974583E+03  0.27855389693E+03  0.40372743178E+03  0.12508928123E+03 0.  0.
         24    2    1    2    0    0  0.16394224037E+02  0.32981546952E+02  0.14304312087E+04  0.14332378998E+04  0.81736659528E+02 0.  0.
        -11    1    5    5    0    0 -0.10609310387E+02  0.39516628927E-01  0.24958080916E+02  0.27119454851E+02  0.00000000000E+00 0.  1.
         12    1    5    5    0    0  0.27003534424E+02  0.32942030323E+02  0.14054731278E+04  0.14061184450E+04  0.00000000000E+00 0. -1.
         13    1    3    3    0    0  0.33955611094E+01  0.17067890937E+01 -0.27210430507E+02  0.27474542628E+02  0.00000000000E+00 0. -1.
        -14    1    3    3    0    0  0.21606440592E+02  0.22616140978E+03 -0.12769556325E+03  0.26061845372E+03  0.00000000000E+00 0.  1.
          5    1    4    4  501    0  0.17576451092E+02 -0.11565625492E+03  0.51680562923E+02  0.12795957924E+03  0.41800000000E+01 0.  1.
         -5    1    4    4    0  501 -0.58972676830E+02 -0.14519349090E+03  0.22687333400E+03  0.27576785254E+03  0.41800000000E+01 0.  1.
</event>
<event>
11    1  0.8551154E-009  0.1637399E+03  0.7561462E-02  0.1083612E+00
         22   -1    0    0    0    0  0.00000000000E+00  0.00000000000E+00  0.88118612288E+03  0.88118612288E+03  0.00000000000E+00 0.  1.
         22   -1    0    0    0    0 -0.00000000000E+00 -0.00000000000E+00 -0.58766577219E+03  0.58766577219E+03  0.00000000000E+00 0. -1.
        -24    2    1    2    0    0  0.96987612368E+02  0.45257902367E+02 -0.42167737742E+03  0.44414878453E+03  0.89450866362E+02 0.  0.
         25    2    1    2    0    0 -0.78815551504E+02 -0.66801469704E+02 -0.10948439567E+03  0.19572593144E+03  0.12508988699E+03 0.  0.
         24    2    1    2    0    0 -0.18172060864E+02  0.21543567337E+02  0.82468212378E+03  0.82897717910E+03  0.79424234962E+02 0.  0.
        -13    1    5    5    0    0 -0.33304138337E+02  0.33265279389E+02  0.76164199589E+03  0.76309519351E+03  0.00000000000E+00 0.  1.
         14    1    5    5    0    0  0.15132077473E+02 -0.11721712053E+02  0.63040127888E+02  0.65881985598E+02  0.00000000000E+00 0. -1.
         13    1    3    3    0    0  0.41222419744E+02 -0.23773856911E+02 -0.19493003243E+03  0.20065443355E+03  0.00000000000E+00 0. -1.
        -14    1    3    3    0    0  0.55765192624E+02  0.69031759278E+02 -0.22674734499E+03  0.24349435098E+03  0.00000000000E+00 0.  1.
          5    1    4    4  501    0 -0.88756410505E+02 -0.10227728701E+02 -0.23920463042E+02  0.92584922057E+02  0.41800000000E+01 0.  1.
         -5    1    4    4    0  501  0.99408590011E+01 -0.56573741003E+02 -0.85563932632E+02  0.10314100938E+03  0.41800000000E+01 0.  1.
</event>
<event>
11    1  0.8551154E-009  0.1553550E+03  0.7561462E-02  0.1091529E+00
         22   -1    0    0    0    0  0.00000000000E+00  0.00000000000E+00  0.94283027434E+03  0.94283027434E+03  0.00000000000E+00 0. -1.
         22   -1    0    0    0    0 -0.00000000000E+00 -0.00000000000E+00 -0.29380063205E+03  0.29380063205E+03  0.00000000000E+00 0. -1.
        -24    2    1    2    0    0  0.12153039690E+03  0.27947305760E+02 -0.16503952901E+03  0.22243801150E+03  0.81792013988E+02 0.  0.
         25    2    1    2    0    0 -0.42945643689E+02  0.15440716543E+02 -0.49641399032E+02  0.14210574029E+03  0.12508808451E+03 0.  0.
         24    2    1    2    0    0 -0.78584753212E+02 -0.43388022303E+02  0.86371057034E+03  0.87208715460E+03  0.80510694878E+02 0.  0.
        -13    1    5    5    0    0  0.50830471709E+01  0.16053084331E+02  0.85931687042E+02  0.87565939285E+02  0.00000000000E+00 0.  1.
         14    1    5    5    0    0 -0.83667800383E+02 -0.59441106634E+02  0.77777888330E+03  0.78452121532E+03  0.00000000000E+00 0. -1.
         13    1    3    3    0    0  0.95060102681E+01 -0.50750968869E+01 -0.72860918321E+02  0.73653474176E+02  0.00000000000E+00 0. -1.
        -14    1    3    3    0    0  0.11202438663E+03  0.33022402647E+02 -0.92178610692E+02  0.14878453732E+03  0.00000000000E+00 0.  1.
          5    1    4    4  501    0  0.17755920742E+02 -0.32170639699E+02 -0.53168957677E+02  0.64765988300E+02  0.41800000000E+01 0.  1.
         -5    1    4    4    0  501 -0.60701564432E+02  0.47611356241E+02  0.35275586452E+01  0.77339751988E+02  0.41800000000E+01 0.  1.
</event>
<event>
11    1  0.8551154E-009  0.1716973E+03  0.7561462E-02  0.1076564E+00
         22   -1    0    0    0    0  0.00000000000E+00  0.00000000000E+00  0.94198312023E+03  0.94198312023E+03  0.00000000000E+00 0. -1.
         22   -1    0    0    0    0 -0.00000000000E+00 -0.00000000000E+00 -0.32826715800E+03  0.32826715800E+03  0.00000000000E+00 0. -1.
         24    2    1    2    0    0 -0.47281054273E+01  0.92283564256E+01 -0.19587144735E+03  0.21366374982E+03  0.84729313457E+02 0.  0.
         25    2    1    2    0    0 -0.77147334546E+02  0.75860675096E+02 -0.59544163807E+02  0.17578070715E+03  0.12508715485E+03 0.  0.
        -24    2    1    2    0    0  0.81875439973E+02 -0.85089031521E+02  0.86913157339E+03  0.88080582126E+03  0.80532427912E+02 0.  0.
        -13    1    3    3    0    0 -0.22533283309E+02  0.35861508782E+02 -0.56239143107E+02  0.70403393997E+02  0.00000000000E+00 0.  1.
         14    1    3    3    0    0  0.17805177881E+02 -0.26633152357E+02 -0.13963230424E+03  0.14326035583E+03  0.00000000000E+00 0. -1.
         13    1    5    5    0    0  0.66878555529E+02 -0.13265731558E+02  0.47987908493E+03  0.48469852174E+03  0.00000000000E+00 0. -1.
        -14    1    5    5    0    0  0.14996884444E+02 -0.71823299963E+02  0.38925248846E+03  0.39610729952E+03  0.00000000000E+00 0.  1.
          5    1    4    4  501    0 -0.54562278492E+02  0.32811140494E+02  0.32498362271E+02  0.71604672509E+02  0.41800000000E+01 0. -1.
         -5    1    4    4    0  501 -0.22585056054E+02  0.43049534601E+02 -0.92042526078E+02  0.10417603464E+03  0.41800000000E+01 0. -1.
</event>
<event>
11    1  0.8551154E-009  0.1457267E+03  0.7561462E-02  0.1101327E+00
         22   -1    0    0    0    0  0.00000000000E+00  0.00000000000E+00  0.94098089004E+03  0.94098089004E+03  0.00000000000E+00 0. -1.
         22   -1    0    0    0    0 -0.00000000000E+00 -0.00000000000E+00 -0.47538448351E+03  0.47538448351E+03  0.00000000000E+00 0. -1.
        -24    2    1    2    0    0 -0.42498841886E+02 -0.23915390216E+02 -0.36985791018E+03  0.38202296016E+03  0.82271324984E+02 0.  0.
         25    2    1    2    0    0  0.10001922485E+03  0.69006170392E+02 -0.16777271476E+02  0.17519661176E+03  0.12508668611E+03 0.  0.
         24    2    1    2    0    0 -0.57520382966E+02 -0.45090780177E+02  0.85223158819E+03  0.85914580163E+03  0.80567087814E+02 0.  0.
        -13    1    5    5    0    0  0.98046278345E+00  0.41053317752E+01  0.80727438683E+00  0.42972954506E+01  0.00000000000E+00 0.  1.
         14    1    5    5    0    0 -0.58500845749E+02 -0.49196111952E+02  0.85142431381E+03  0.85484850618E+03  0.00000000000E+00 0. -1.
         13    1    3    3    0    0  0.15457238103E+02 -0.10363050225E+02 -0.21988395501E+03  0.22067005391E+03  0.00000000000E+00 0. -1.
        -14    1    3    3    0    0 -0.57956079989E+02 -0.13552339991E+02 -0.14997395517E+03  0.16135290625E+03  0.00000000000E+00 0.  1.
          5    1    4    4  501    0  0.64993873266E+02  0.31658063592E+02 -0.70358678494E+02  0.10096659146E+03  0.41800000000E+01 0.  1.
         -5    1    4    4    0  501  0.35025351586E+02  0.37348106801E+02  0.53581407017E+02  0.74230020297E+02  0.41800000000E+01 0.  1.
</event>
<event>
11    1  0.8551154E-009  0.3127847E+03  0.7561462E-02  0.9949211E-01
         22   -1    0    0    0    0  0.00000000000E+00  0.00000000000E+00  0.72702950829E+03  0.72702950829E+03  0.00000000000E+00 0.  1.
         22   -1    0    0    0    0 -0.00000000000E+00 -0.00000000000E+00 -0.68563253206E+03  0.68563253206E+03  0.00000000000E+00 0.  1.
        -24    2    1    2    0    0  0.30564518857E+03  0.49906377353E+02 -0.45987603690E+03  0.56006846253E+03  0.79253300362E+02 0.  0.
         25    2    1    2    0    0 -0.13569505999E+03 -0.31258709449E+03  0.22273382824E+03  0.42588955480E+03  0.12509082179E+03 0.  0.
         24    2    1    2    0    0 -0.16995012858E+03  0.26268071714E+03  0.27853918489E+03  0.42670402301E+03  0.81289854065E+02 0.  0.
        -13    1    5    5    0    0 -0.58629407353E+02  0.13507940710E+03  0.86957998365E+02  0.17101329512E+03  0.00000000000E+00 0.  1.
         14    1    5    5    0    0 -0.11132072122E+03  0.12760131004E+03  0.19158118652E+03  0.25569072789E+03  0.00000000000E+00 0. -1.
         11    1    3    3    0    0  0.10520025875E+03 -0.27495136881E+01 -0.10223978161E+03  0.14672296075E+03  0.00000000000E+00 0. -1.
        -12    1    3    3    0    0  0.20044492981E+03  0.52655891041E+02 -0.35763625529E+03  0.41334550179E+03  0.00000000000E+00 0.  1.
          5    1    4    4  501    0 -0.10628873787E+03 -0.20022651387E+03  0.76908466716E+02  0.23941666046E+03  0.41800000000E+01 0.  1.
         -5    1    4    4    0  501 -0.29406322119E+02 -0.11236058062E+03  0.14582536153E+03  0.18647289434E+03  0.41800000000E+01 0.  1.
</event>
<event>
11    1  0.8551154E-009  0.1395653E+03  0.7561462E-02  0.1108045E+00
         22   -1    0    0    0    0  0.00000000000E+00  0.00000000000E+00  0.78599710109E+03  0.78599710109E+03  0.00000000000E+00 0. -1.
         22   -1    0    0    0    0 -0.00000000000E+00 -0.00000000000E+00 -0.30107288168E+03  0.30107288168E+03  0.00000000000E+00 0. -1.
         24    2    1    2    0    0 -0.50990554699E+02  0.33306846314E+02 -0.20678600121E+03  0.22723662763E+03  0.71879426550E+02 0.  0.
         25    2    1    2    0    0  0.78343513411E+02 -0.20036149933E+01 -0.14178521347E+02  0.14828489755E+03  0.12508261193E+03 0.  0.
        -24    2    1    2    0    0 -0.27352958711E+02 -0.31303231321E+02  0.70588874196E+03  0.71154845758E+03  0.79336087728E+02 0.  0.
        -13    1    3    3    0    0 -0.45485858644E+02  0.53817759228E+02 -0.13376177898E+03  0.15118706314E+03  0.00000000000E+00 0.  1.
         14    1    3    3    0    0 -0.55046960554E+01 -0.20510912914E+02 -0.73024222228E+02  0.76049564491E+02  0.00000000000E+00 0. -1.
         13    1    5    5    0    0 -0.23498247187E+01  0.14902878244E+02  0.45343819646E+03  0.45368911764E+03  0.00000000000E+00 0. -1.
        -14    1    5    5    0    0 -0.25003133993E+02 -0.46206109565E+02  0.25245054551E+03  0.25785933995E+03  0.00000000000E+00 0.  1.
          5    1    4    4  501    0  0.64291431293E+02 -0.43609362405E+02 -0.49121905968E+02  0.92008688030E+02  0.41800000000E+01 0.  1.
         -5    1    4    4    0  501  0.14052082118E+02  0.41605747412E+02  0.34943384620E+02  0.56276209523E+02  0.41800000000E+01 0.  1.
</event>
<event>
11    1  0.8551154E-009  0.1309409E+03  0.7561462E-02  0.1118118E+00
         22   -1    0    0    0    0  0.00000000000E+00  0.00000000000E+00  0.42065200051E+03  0.42065200051E+03  0.00000000000E+00 0.  1.
         22   -1    0    0    0    0 -0.00000000000E+00 -0.00000000000E+00 -0.21912974880E+04  0.21912974880E+04  0.00000000000E+00 0. -1.
         24    2    1    2    0    0  0.30545578304E+02  0.17680785221E+02 -0.14698173011E+04  0.14724607992E+04  0.80822422080E+02 0.  0.
         25    2    1    2    0    0 -0.59682791229E+02 -0.64171987582E+01 -0.70879040159E+03  0.72224211825E+03  0.12508648201E+03 0.  0.
        -24    2    1    2    0    0  0.29137212925E+02 -0.11263586463E+02  0.40796221525E+03  0.41724657107E+03  0.81766046985E+02 0.  0.
        -11    1    3    3    0    0 -0.89717897714E+01 -0.27053323470E+02 -0.47885433900E+03  0.47970183792E+03  0.00000000000E+00 0.  1.
         12    1    3    3    0    0  0.39517368076E+02  0.44734108691E+02 -0.99096296214E+03  0.99275896128E+03  0.00000000000E+00 0. -1.
         13    1    5    5    0    0 -0.24923153303E+02 -0.23817536044E+01  0.60250624573E+02  0.65245490895E+02  0.00000000000E+00 0. -1.
        -14    1    5    5    0    0  0.54060366228E+02 -0.88818328586E+01  0.34771159067E+03  0.35200108017E+03  0.00000000000E+00 0.  1.
          5    1    4    4  501    0 -0.72253041959E+02  0.30748059320E+02 -0.25772176358E+03  0.26945115522E+03  0.41800000000E+01 0.  1.
         -5    1    4    4    0  501  0.12570250730E+02 -0.37165258078E+02 -0.45106863801E+03  0.45279096303E+03  0.41800000000E+01 0.  1.
</event>
<event>
11    1  0.8551154E-009  0.2105951E+03  0.7561462E-02  0.1047274E+00
         22   -1    0    0    0    0  0.00000000000E+00  0.00000000000E+00  0.86366264627E+03  0.86366264627E+03  0.00000000000E+00 0.  1.
         22   -1    0    0    0    0 -0.00000000000E+00 -0.00000000000E+00 -0.19871625686E+04  0.19871625686E+04  0.00000000000E+00 0.  1.
        -24    2    1    2    0    0 -0.82056907532E+02  0.14713003375E+03 -0.18911786225E+04  0.19003349627E+04  0.79597771697E+02 0.  0.
         25    2    1    2    0    0  0.34267427417E+02 -0.22358265177E+03  0.11223243806E+03  0.28176633822E+03  0.12503075800E+03 0.  0.
         24    2    1    2    0    0  0.47789480114E+02  0.76452618022E+02  0.65544626213E+03  0.66872391396E+03  0.97226711133E+02 0.  0.
        -11    1    5    5    0    0  0.62841729333E+02  0.53951901660E+02  0.61167970594E+03  0.61726165708E+03  0.00000000000E+00 0.  1.
         12    1    5    5    0    0 -0.15052249218E+02  0.22500716362E+02  0.43766556186E+02  0.51462256885E+02  0.00000000000E+00 0. -1.
         11    1    3    3    0    0 -0.23060343008E+02  0.14000265988E+02 -0.66389423892E+03  0.66444213242E+03  0.00000000000E+00 0. -1.
        -12    1    3    3    0    0 -0.58996564523E+02  0.13312976776E+03 -0.12272843836E+04  0.12358928303E+04  0.00000000000E+00 0.  1.
          5    1    4    4  501    0 -0.32974963382E+02 -0.33377986304E+02  0.54187258550E+02  0.71799509531E+02  0.41800000000E+01 0.  1.
         -5    1    4    4    0  501  0.67242390799E+02 -0.19020466547E+03  0.58045179511E+02  0.20996682869E+03  0.41800000000E+01 0.  1.
</event>
<event>
11    1  0.8551154E-009  0.1315501E+03  0.7561462E-02  0.1117379E+00
         22   -1    0    0    0    0  0.00000000000E+00  0.00000000000E+00  0.18360066495E+04  0.18360066495E+04  0.00000000000E+00 0. -1.
         22   -1    0    0    0    0 -0.00000000000E+00 -0.00000000000E+00 -0.41540949890E+03  0.41540949890E+03  0.00000000000E+00 0. -1.
        -24    2    1    2    0    0  0.31943945735E+02 -0.17851379194E+02 -0.19474291896E+03  0.21159296501E+03  0.74213819138E+02 0.  0.
         25    2    1    2    0    0 -0.35473052370E+02 -0.22783782086E+02 -0.19048897208E+03  0.23175779155E+03  0.12509271476E+03 0.  0.
         24    2    1    2    0    0  0.35291066353E+01  0.40635161279E+02  0.18058290417E+04  0.18080653918E+04  0.80114059967E+02 0.  0.
        -13    1    5    5    0    0 -0.30505969782E+02 -0.28911828383E+01  0.41015328797E+03  0.41129635637E+03  0.00000000000E+00 0.  1.
         14    1    5    5    0    0  0.34035076417E+02  0.43526344118E+02  0.13956757537E+04  0.13967690355E+04  0.00000000000E+00 0. -1.
         13    1    3    3    0    0  0.29250967550E+02 -0.23640838564E+02 -0.19988636931E+03  0.20339387648E+03  0.00000000000E+00 0. -1.
        -14    1    3    3    0    0  0.26929781851E+01  0.57894593708E+01  0.51434503551E+01  0.81990885388E+01  0.00000000000E+00 0.  1.
          5    1    4    4  501    0 -0.55739707175E+02  0.28791064942E+02 -0.48895807127E+02  0.79649938676E+02  0.41800000000E+01 0.  1.
         -5    1    4    4    0  501  0.20266654805E+02 -0.51574847027E+02 -0.14159316495E+03  0.15210785287E+03  0.41800000000E+01 0.  1.
</event>
<event>
11    1  0.8551154E-009  0.1730833E+03  0.7561462E-02  0.1075379E+00
         22   -1    0    0    0    0  0.00000000000E+00  0.00000000000E+00  0.93351539094E+03  0.93351539094E+03  0.00000000000E+00 0. -1.
         22   -1    0    0    0    0 -0.00000000000E+00 -0.00000000000E+00 -0.26791427875E+03  0.26791427875E+03  0.00000000000E+00 0.  1.
         24    2    1    2    0    0 -0.51581196608E+01 -0.21453709729E+02 -0.21182179240E+03  0.22850580520E+03  0.82822481325E+02 0.  0.
         25    2    1    2    0    0 -0.10805643668E+03 -0.22739102787E+02  0.13204250801E+03  0.21278550799E+03  0.12509671532E+03 0.  0.
        -24    2    1    2    0    0  0.11321455634E+03  0.44192812516E+02  0.74538039658E+03  0.76013835651E+03  0.86300897949E+02 0.  0.
        -13    1    3    3    0    0  0.20952253046E+02  0.13908753865E+02 -0.15311154874E+03  0.15516312932E+03  0.00000000000E+00 0.  1.
         14    1    3    3    0    0 -0.26110372707E+02 -0.35362463594E+02 -0.58710243660E+02  0.73342675878E+02  0.00000000000E+00 0. -1.
         13    1    5    5    0    0  0.11480886812E+03  0.12730203129E+02  0.52806008880E+03  0.54054656752E+03  0.00000000000E+00 0. -1.
        -14    1    5    5    0    0 -0.15943117829E+01  0.31462609387E+02  0.21732030777E+03  0.21959178899E+03  0.00000000000E+00 0.  1.
          5    1    4    4  501    0 -0.99276716689E+02 -0.67566658107E+02  0.10475834883E+03  0.15941425223E+03  0.41800000000E+01 0.  1.
         -5    1    4    4    0  501 -0.87797199882E+01  0.44827555320E+02  0.27284159183E+02  0.53371255759E+02  0.41800000000E+01 0.  1.
</event>
<event>
11    1  0.8551154E-009  0.1589232E+03  0.7561462E-02  0.1088094E+00
         22   -1    0    0    0    0  0.00000000000E+00  0.00000000000E+00  0.30703685068E+04  0.30703685068E+04  0.00000000000E+00 0. -1.
         22   -1    0    0    0    0 -0.00000000000E+00 -0.00000000000E+00 -0.12241318333E+03  0.12241318333E+03  0.00000000000E+00 0.  1.
        -24    2    1    2    0    0  0.74178677993E+02 -0.82826839605E+02  0.39087694289E+01  0.13804525226E+03  0.81721793701E+02 0.  0.
         25    2    1    2    0    0 -0.63551899892E+02  0.48955617916E+02  0.46094405504E+02  0.15558931515E+03  0.12509134368E+03 0.  0.
         24    2    1    2    0    0 -0.10626778101E+02  0.33871221689E+02  0.28979521485E+04  0.28991471227E+04  0.75280780245E+02 0.  0.
        -11    1    5    5    0    0 -0.18620622983E+02  0.42146402811E+02  0.91324593208E+03  0.91440755647E+03  0.00000000000E+00 0.  1.
         12    1    5    5    0    0  0.79938448824E+01 -0.82751811223E+01  0.19847062164E+04  0.19847395662E+04  0.00000000000E+00 0. -1.
         11    1    3    3    0    0 -0.14697809186E+01  0.22948702930E+01  0.22495132527E+02  0.22659604432E+02  0.00000000000E+00 0. -1.
        -12    1    3    3    0    0  0.75648458912E+02 -0.85121709898E+02 -0.18586363098E+02  0.11538564783E+03  0.00000000000E+00 0.  1.
          5    1    4    4  501    0 -0.59969835132E+02  0.82954593517E+02  0.58421353443E+01  0.10261310178E+03  0.41800000000E+01 0. -1.
         -5    1    4    4    0  501 -0.35820647601E+01 -0.33998975601E+02  0.40252270160E+02  0.52976213369E+02  0.41800000000E+01 0. -1.
</event>
<event>
11    1  0.8551154E-009  0.1367809E+03  0.7561462E-02  0.1111207E+00
         22   -1    0    0    0    0  0.00000000000E+00  0.00000000000E+00  0.15092328502E+04  0.15092328502E+04  0.00000000000E+00 0. -1.
         22   -1    0    0    0    0 -0.00000000000E+00 -0.00000000000E+00 -0.45229531381E+03  0.45229531381E+03  0.00000000000E+00 0.  1.
         24    2    1    2    0    0  0.40916586792E+02  0.41851178624E+02 -0.38522050472E+03  0.39767944804E+03  0.79551353927E+02 0.  0.
         25    2    1    2    0    0 -0.82981750874E+01 -0.20472885052E+02  0.81434124606E+01  0.12728889771E+03  0.12509256406E+03 0.  0.
        -24    2    1    2    0    0 -0.32618411704E+02 -0.21378293573E+02  0.14340146287E+04  0.14365598183E+04  0.76060265876E+02 0.  0.
        -11    1    3    3    0    0  0.35710351663E+02  0.25349700751E+01 -0.31504500253E+03  0.31707256095E+03  0.00000000000E+00 0.  1.
         12    1    3    3    0    0  0.52062351288E+01  0.39316208549E+02 -0.70175502191E+02  0.80606887092E+02  0.00000000000E+00 0. -1.
         13    1    5    5    0    0 -0.48455268040E+02 -0.21284155937E+02  0.13516907590E+04  0.13527264454E+04  0.00000000000E+00 0. -1.
        -14    1    5    5    0    0  0.15836856336E+02 -0.94137635986E-01  0.82323869697E+02  0.83833372844E+02  0.00000000000E+00 0.  1.
          5    1    4    4  501    0  0.19888207496E+02 -0.66346902085E+02  0.19555995265E+02  0.72092728930E+02  0.41800000000E+01 0.  1.
         -5    1    4    4    0  501 -0.28186382584E+02  0.45874017034E+02 -0.11412582804E+02  0.55196168782E+02  0.41800000000E+01 0.  1.
</event>
<event>
11    1  0.8551154E-009  0.1903997E+03  0.7561462E-02  0.1061528E+00
         22   -1    0    0    0    0  0.00000000000E+00  0.00000000000E+00  0.71360971897E+03  0.71360971897E+03  0.00000000000E+00 0.  1.
         22   -1    0    0    0    0 -0.00000000000E+00 -0.00000000000E+00 -0.16733606716E+04  0.16733606716E+04  0.00000000000E+00 0.  1.
        -24    2    1    2    0    0  0.10922400315E+03 -0.96649971976E+02 -0.15279650294E+04  0.15370120870E+04  0.80361212218E+02 0.  0.
         25    2    1    2    0    0 -0.10191570714E+03  0.60087293057E+02 -0.83991180061E+02  0.19156342267E+03  0.12507890481E+03 0.  0.
         24    2    1    2    0    0 -0.73082960075E+01  0.36562678919E+02  0.65220525683E+03  0.65839488095E+03  0.81987081490E+02 0.  0.
        -13    1    5    5    0    0 -0.38796225090E+02 -0.20559320502E+01  0.34411134018E+03  0.34629754313E+03  0.00000000000E+00 0.  1.
         14    1    5    5    0    0  0.31487929083E+02  0.38618610969E+02  0.30809391666E+03  0.31209733782E+03  0.00000000000E+00 0. -1.
         11    1    3    3    0    0  0.50547981827E+02 -0.17155167372E+02 -0.27339642026E+03  0.27855879244E+03  0.00000000000E+00 0. -1.
        -12    1    3    3    0    0  0.58676021325E+02 -0.79494804604E+02 -0.12545686092E+04  0.12584532946E+04  0.00000000000E+00 0.  1.
          5    1    4    4  501    0 -0.25280946829E+02  0.18403211489E+02  0.32943203186E+02  0.45612843606E+02  0.41800000000E+01 0.  1.
         -5    1    4    4    0  501 -0.76634760316E+02  0.41684081568E+02 -0.11693438325E+03  0.14595057907E+03  0.41800000000E+01 0.  1.
</event>
<event>
11    1  0.8551154E-009  0.5038056E+03  0.7561462E-02  0.9385058E-01
         22   -1    0    0    0    0  0.00000000000E+00  0.00000000000E+00  0.14981612110E+03  0.14981612110E+03  0.00000000000E+00 0. -1.
         22   -1    0    0    0    0 -0.00000000000E+00 -0.00000000000E+00 -0.29274341803E+04  0.29274341803E+04  0.00000000000E+00 0. -1.
        -24    2    1    2    0    0  0.46706189722E+03  0.13626946314E+03 -0.21121352287E+04  0.21688753611E+04  0.78669721931E+02 0.  0.
         25    2    1    2    0    0 -0.46005031159E+03 -0.18088278076E+03 -0.62861306700E+03  0.80942388040E+03  0.12509100919E+03 0.  0.
         24    2    1    2    0    0 -0.70115856326E+01  0.44613317617E+02 -0.36869763484E+02  0.98951059907E+02  0.79952625695E+02 0.  0.
        -13    1    5    5    0    0 -0.28530278066E+02 -0.90031799889E+01  0.89345456022E+00  0.29930457355E+02  0.00000000000E+00 0.  1.
         14    1    5    5    0    0  0.21518692433E+02  0.53616497606E+02 -0.37763218044E+02  0.69020602552E+02  0.00000000000E+00 0. -1.
         13    1    3    3    0    0  0.41439958455E+03  0.93442384386E+02 -0.18403375412E+04  0.18887299332E+04  0.00000000000E+00 0. -1.
        -14    1    3    3    0    0  0.52662312670E+02  0.42827078757E+02 -0.27179768752E+03  0.28014542793E+03  0.00000000000E+00 0.  1.
          5    1    4    4  501    0 -0.19274167773E+03 -0.44365565886E+02 -0.33787151180E+03  0.39152559131E+03  0.41800000000E+01 0. -1.
         -5    1    4    4    0  501 -0.26730863386E+03 -0.13651721487E+03 -0.29074155521E+03  0.41789828908E+03  0.41800000000E+01 0. -1.
</event>
<event>
11    1  0.8551154E-009  0.1579850E+03  0.7561462E-02  0.1088988E+00
         22   -1    0    0    0    0  0.00000000000E+00  0.00000000000E+00  0.30429421569E+03  0.30429421569E+03  0.00000000000E+00 0. -1.
         22   -1    0    0    0    0 -0.00000000000E+00 -0.00000000000E+00 -0.94937745646E+03  0.94937745646E+03  0.00000000000E+00 0. -1.
         24    2    1    2    0    0 -0.10987185121E+03 -0.12793811985E+00 -0.65104949675E+03  0.66518582499E+03  0.80838694300E+02 0.  0.
         25    2    1    2    0    0  0.50998126310E+02  0.68984237808E+02 -0.25755061936E+03  0.29889525858E+03  0.12508565112E+03 0.  0.
        -24    2    1    2    0    0  0.58873724903E+02 -0.68856299688E+02  0.26351687534E+03  0.28959058858E+03  0.78830577304E+02 0.  0.
        -11    1    3    3    0    0 -0.47273961771E+00 -0.16447041110E+02 -0.20375062383E+03  0.20441390695E+03  0.00000000000E+00 0.  1.
         12    1    3    3    0    0 -0.10939911159E+03  0.16319102990E+02 -0.44729887292E+03  0.46077191804E+03  0.00000000000E+00 0. -1.
         13    1    5    5    0    0  0.65877849168E+02 -0.81778483209E+02  0.23811198209E+03  0.26024013400E+03  0.00000000000E+00 0. -1.
        -14    1    5    5    0    0 -0.70041242647E+01  0.12922183521E+02  0.25404893245E+02  0.29350454587E+02  0.00000000000E+00 0.  1.
          5    1    4    4  501    0  0.37669667511E+02 -0.25102059794E+02 -0.36674214757E+02  0.58408798004E+02  0.41800000000E+01 0.  1.
         -5    1    4    4    0  501  0.13328458799E+02  0.94086297602E+02 -0.22087640460E+03  0.24048646058E+03  0.41800000000E+01 0.  1.
</event>
<event>
11    1  0.8551154E-009  0.1549085E+03  0.7561462E-02  0.1091966E+00
         22   -1    0    0    0    0  0.00000000000E+00  0.00000000000E+00  0.82231097431E+03  0.82231097431E+03  0.00000000000E+00 0.  1.
         22   -1    0    0    0    0 -0.00000000000E+00 -0.00000000000E+00 -0.15393883992E+04  0.15393883992E+04  0.00000000000E+00 0. -1.
        -24    2    1    2    0    0  0.30147515487E+02  0.16302906410E+02 -0.12965773951E+04  0.12996157273E+04  0.81935582984E+02 0.  0.
         25    2    1    2    0    0 -0.78325288431E+02 -0.93252006026E+02 -0.20432057998E+03  0.26874683595E+03  0.12508866851E+03 0.  0.
         24    2    1    2    0    0  0.48177772944E+02  0.76949099616E+02  0.78382055022E+03  0.79333681023E+03  0.82257995164E+02 0.  0.
        -13    1    5    5    0    0  0.20142295070E+02  0.62147673980E+02  0.70996494289E+03  0.71296442097E+03  0.00000000000E+00 0.  1.
         14    1    5    5    0    0  0.28035477874E+02  0.14801425636E+02  0.73855607331E+02  0.80372389256E+02  0.00000000000E+00 0. -1.
         13    1    3    3    0    0 -0.17587900549E+02  0.25115236718E+02 -0.81989635445E+03  0.82046946403E+03  0.00000000000E+00 0. -1.
        -14    1    3    3    0    0  0.47735416036E+02 -0.88123303079E+01 -0.47668104067E+03  0.47914626331E+03  0.00000000000E+00 0.  1.
          5    1    4    4  501    0 -0.91429772626E+02 -0.27563300336E+02 -0.16575802795E+03  0.19134350023E+03  0.41800000000E+01 0. -1.
         -5    1    4    4    0  501  0.13104484196E+02 -0.65688705690E+02 -0.38562552031E+02  0.77403335718E+02  0.41800000000E+01 0. -1.
</event>
<event>
11    1  0.8551154E-009  0.1470567E+03  0.7561462E-02  0.1099925E+00
         22   -1    0    0    0    0  0.00000000000E+00  0.00000000000E+00  0.28624285463E+03  0.28624285463E+03  0.00000000000E+00 0. -1.
         22   -1    0    0    0    0 -0.00000000000E+00 -0.00000000000E+00 -0.10299622916E+04  0.10299622916E+04  0.00000000000E+00 0. -1.
        -24    2    1    2    0    0 -0.40820878432E+02  0.15476719388E+02 -0.77925490131E+03  0.78458640523E+03  0.80198211324E+02 0.  0.
         25    2    1    2    0    0  0.11570134494E+03 -0.23386303097E+02 -0.20468146086E+03  0.26734134782E+03  0.12507268065E+03 0.  0.
         24    2    1    2    0    0 -0.74880466505E+02  0.79095837088E+01  0.24021692523E+03  0.26427739315E+03  0.80428375507E+02 0.  0.
        -11    1    5    5    0    0 -0.35524965834E+02 -0.80687215752E+01  0.23306236543E+02  0.43247059174E+02  0.00000000000E+00 0.  1.
         12    1    5    5    0    0 -0.39355500671E+02  0.15978305284E+02  0.21691068868E+03  0.22103033398E+03  0.00000000000E+00 0. -1.
         13    1    3    3    0    0 -0.47778681771E+02 -0.12262963275E+02 -0.66424603377E+03  0.66607505289E+03  0.00000000000E+00 0. -1.
        -14    1    3    3    0    0  0.69578033386E+01  0.27739682663E+02 -0.11500886754E+03  0.11851135234E+03  0.00000000000E+00 0.  1.
          5    1    4    4  501    0  0.12903525373E+03 -0.37523716526E+02 -0.20751636225E+03  0.24726228788E+03  0.41800000000E+01 0. -1.
         -5    1    4    4    0  501 -0.13333908795E+02  0.14137413430E+02  0.28349013928E+01  0.20079059941E+02  0.41800000000E+01 0. -1.
</event>
<event>
11    1  0.8551154E-009  0.2077068E+03  0.7561462E-02  0.1049204E+00
         22   -1    0    0    0    0  0.00000000000E+00  0.00000000000E+00  0.47104810060E+03  0.47104810060E+03  0.00000000000E+00 0.  1.
         22   -1    0    0    0    0 -0.00000000000E+00 -0.00000000000E+00 -0.95355525872E+03  0.95355525872E+03  0.00000000000E+00 0.  1.
        -24    2    1    2    0    0  0.15202054164E+02  0.24097309288E+02 -0.67536297592E+03  0.68057945716E+03  0.79129422410E+02 0.  0.
         25    2    1    2    0    0 -0.51150734543E+02 -0.18392432683E+03 -0.20414110038E+03  0.30621481188E+03  0.12509742807E+03 0.  0.
         24    2    1    2    0    0  0.35948680379E+02  0.15982701754E+03  0.39699691818E+03  0.43780909028E+03  0.85048593940E+02 0.  0.
        -11    1    5    5    0    0  0.57308463981E+01 -0.19337970755E+01  0.83751562590E+02  0.83969675526E+02  0.00000000000E+00 0.  1.
         12    1    5    5    0    0  0.30217833981E+02  0.16176081462E+03  0.31324535559E+03  0.35383941475E+03  0.00000000000E+00 0. -1.
         11    1    3    3    0    0 -0.19468146386E+02  0.39766606499E+02 -0.29272357374E+03  0.29605317485E+03  0.00000000000E+00 0. -1.
        -12    1    3    3    0    0  0.34670200550E+02 -0.15669297212E+02 -0.38263940218E+03  0.38452628231E+03  0.00000000000E+00 0.  1.
          5    1    4    4  501    0 -0.79664414787E+02 -0.17346220101E+03 -0.19778623597E+03  0.27490438647E+03  0.41800000000E+01 0.  1.
         -5    1    4    4    0  501  0.28513680244E+02 -0.10462125815E+02 -0.63548644118E+01  0.31310425410E+02  0.41800000000E+01 0.  1.
</event>
<event>
11    1  0.8551154E-009  0.1377056E+03  0.7561462E-02  0.1110148E+00
         22   -1    0    0    0    0  0.00000000000E+00  0.00000000000E+00  0.35437547458E+03  0.35437547458E+03  0.00000000000E+00 0. -1.
         22   -1    0    0    0    0 -0.00000000000E+00 -0.00000000000E+00 -0.36034675532E+03  0.36034675532E+03  0.00000000000E+00 0.  1.
        -24    2    1    2    0    0  0.25497750529E+02 -0.32212989389E+02 -0.29908680825E+03  0.31225430325E+03  0.79762265879E+02 0.  0.
         25    2    1    2    0    0 -0.23021654298E+02  0.83789273895E+02  0.85614938879E+02  0.17472109202E+03  0.12508758231E+03 0.  0.
         24    2    1    2    0    0 -0.24760962312E+01 -0.51576284505E+02  0.20750058864E+03  0.22774683464E+03  0.78395677351E+02 0.  0.
        -11    1    5    5    0    0 -0.24806636842E+02 -0.13689082389E+02  0.18832575612E+02  0.34020965774E+02  0.00000000000E+00 0.  1.
         12    1    5    5    0    0  0.22330540611E+02 -0.37887202116E+02  0.18866801303E+03  0.19372586886E+03  0.00000000000E+00 0. -1.
         13    1    3    3    0    0 -0.23852982025E+02 -0.10902912774E+02 -0.41309091775E+02  0.48931373593E+02  0.00000000000E+00 0. -1.
        -14    1    3    3    0    0  0.49350732554E+02 -0.21310076615E+02 -0.25777771648E+03  0.26332292965E+03  0.00000000000E+00 0.  1.
          5    1    4    4  501    0  0.35424702493E+02  0.39644197035E+02  0.86190561165E+02  0.10135510416E+03  0.41800000000E+01 0. -1.
         -5    1    4    4    0  501 -0.58446356790E+02  0.44145076860E+02 -0.57562228605E+00  0.73365987856E+02  0.41800000000E+01 0. -1.
</event>
<event>
11    1  0.8551154E-009  0.2556053E+03  0.7561462E-02  0.1020955E+00
         22   -1    0    0    0    0  0.00000000000E+00  0.00000000000E+00  0.77605518318E+03  0.77605518318E+03  0.00000000000E+00 0. -1.
         22   -1    0    0    0    0 -0.00000000000E+00 -0.00000000000E+00 -0.79116124016E+03  0.79116124016E+03  0.00000000000E+00 0.  1.
         24    2    1    2    0    0  0.71509445952E+02  0.47902736209E+02 -0.60532988627E+03  0.61655923289E+03  0.79452774969E+02 0.  0.
         25    2    1    2    0    0 -0.15540546230E+03 -0.24458733349E+03  0.17438299400E+00  0.31562660089E+03  0.12508516845E+03 0.  0.
        -24    2    1    2    0    0  0.83896016345E+02  0.19668459728E+03  0.59004944630E+03  0.63503058955E+03  0.96861386667E+02 0.  0.
        -11    1    3    3    0    0  0.23840859233E+02  0.56249471708E+02 -0.44226813674E+03  0.44646779774E+03  0.00000000000E+00 0.  1.
         12    1    3    3    0    0  0.47668586720E+02 -0.83467354989E+01 -0.16306174953E+03  0.17009143515E+03  0.00000000000E+00 0. -1.
         11    1    5    5    0    0  0.35796218454E+02  0.17589270245E+03  0.41137840542E+03  0.44883382724E+03  0.00000000000E+00 0. -1.
        -12    1    5    5    0    0  0.48099797891E+02  0.20791894837E+02  0.17867104087E+03  0.18619676231E+03  0.00000000000E+00 0.  1.
          5    1    4    4  501    0 -0.13245891944E+03 -0.21685207707E+03 -0.44599599269E+02  0.25802477657E+03  0.41800000000E+01 0.  1.
         -5    1    4    4    0  501 -0.22946542858E+02 -0.27735256426E+02  0.44773982263E+02  0.57601824327E+02  0.41800000000E+01 0.  1.
</event>
<event>
11    1  0.8551154E-009  0.1263214E+03  0.7561462E-02  0.1123873E+00
         22   -1    0    0    0    0  0.00000000000E+00  0.00000000000E+00  0.16696944781E+04  0.16696944781E+04  0.00000000000E+00 0. -1.
         22   -1    0    0    0    0 -0.00000000000E+00 -0.00000000000E+00 -0.83330429952E+03  0.83330429952E+03  0.00000000000E+00 0.  1.
        -24    2    1    2    0    0  0.11097302932E+02  0.18051653768E+02 -0.82395937477E+03  0.82805940798E+03  0.79525590463E+02 0.  0.
         25    2    1    2    0    0  0.74762730341E+01 -0.55064793354E+01  0.72053218572E+03  0.73136887681E+03  0.12509031675E+03 0.  0.
         24    2    1    2    0    0 -0.18573575966E+02 -0.12545174432E+02  0.93981736762E+03  0.94357049280E+03  0.81032285458E+02 0.  0.
        -11    1    5    5    0    0 -0.42759910336E+02 -0.51934049528E+01  0.28229204161E+03  0.28555941263E+03  0.00000000000E+00 0.  1.
         12    1    5    5    0    0  0.24186334370E+02 -0.73517694797E+01  0.65752532601E+03  0.65801108017E+03  0.00000000000E+00 0. -1.
         13    1    3    3    0    0 -0.10259569488E+02 -0.87374729451E+01 -0.25296933383E+02  0.28662467411E+02  0.00000000000E+00 0. -1.
        -14    1    3    3    0    0  0.21356872419E+02  0.26789126713E+02 -0.79866244139E+03  0.79939694057E+03  0.00000000000E+00 0.  1.
          5    1    4    4  501    0  0.52679068937E+02 -0.97708573801E+01  0.15597404574E+03  0.16497251075E+03  0.41800000000E+01 0. -1.
         -5    1    4    4    0  501 -0.45202795903E+02  0.42643780447E+01  0.56455813998E+03  0.56639636607E+03  0.41800000000E+01 0. -1.
</event>
<event>
11    1  0.8551154E-009  0.1893840E+03  0.7561462E-02  0.1062295E+00
         22   -1    0    0    0    0  0.00000000000E+00  0.00000000000E+00  0.15388914221E+04  0.15388914221E+04  0.00000000000E+00 0.  1.
         22   -1    0    0    0    0 -0.00000000000E+00 -0.00000000000E+00 -0.14230680720E+03  0.14230680720E+03  0.00000000000E+00 0.  1.
        -24    2    1    2    0    0  0.28580561987E+02  0.69465499656E+00 -0.83612825902E+02  0.12107216701E+03  0.82764931581E+02 0.  0.
         25    2    1    2    0    0 -0.12730168175E+03 -0.99094337167E+02  0.26649003237E+03  0.33569331929E+03  0.12509061288E+03 0.  0.
         24    2    1    2    0    0  0.98721119768E+02  0.98399682170E+02  0.12137074085E+04  0.12244327430E+04  0.81984827373E+02 0.  0.
        -11    1    5    5    0    0  0.10003143318E+02  0.18129136615E+02  0.52516581661E+03  0.52557384201E+03  0.00000000000E+00 0.  1.
         12    1    5    5    0    0  0.88717976450E+02  0.80270545556E+02  0.68854159184E+03  0.69885890102E+03  0.00000000000E+00 0. -1.
         11    1    3    3    0    0  0.46130413869E+02 -0.19836949429E+02 -0.24061806302E+02  0.55682045301E+02  0.00000000000E+00 0. -1.
        -12    1    3    3    0    0 -0.17549851882E+02  0.20531604426E+02 -0.59551019600E+02  0.65390121707E+02  0.00000000000E+00 0.  1.
          5    1    4    4  501    0 -0.34618018985E+01  0.65965173809E+01 -0.11007795372E+02  0.13933487464E+02  0.41800000000E+01 0. -1.
         -5    1    4    4    0  501 -0.12383987986E+03 -0.10569085455E+03  0.27749782774E+03  0.32175983183E+03  0.41800000000E+01 0. -1.
</event>
<event>
11    1  0.8551154E-009  0.1329982E+03  0.7561462E-02  0.1115639E+00
         22   -1    0    0    0    0  0.00000000000E+00  0.00000000000E+00  0.22263526133E+03  0.22263526133E+03  0.00000000000E+00 0. -1.
         22   -1    0    0    0    0 -0.00000000000E+00 -0.00000000000E+00 -0.89417646685E+03  0.89417646685E+03  0.00000000000E+00 0.  1.
         24    2    1    2    0    0  0.29746931853E+02  0.15848323952E+02 -0.38526509235E+03  0.39513542802E+03  0.81035583328E+02 0.  0.
         25    2    1    2    0    0 -0.32266180537E+02  0.29543846082E+02 -0.48497322902E+03  0.50275252463E+03  0.12508846033E+03 0.  0.
        -24    2    1    2    0    0  0.25192486840E+01 -0.45392170034E+02  0.19869711586E+03  0.21892377553E+03  0.79876654466E+02 0.  0.
        -11    1    3    3    0    0  0.55862552590E+02 -0.19767521970E+01 -0.23147193300E+03  0.23812557212E+03  0.00000000000E+00 0.  1.
         12    1    3    3    0    0 -0.26115620737E+02  0.17825076149E+02 -0.15379315935E+03  0.15700985590E+03  0.00000000000E+00 0. -1.
         13    1    5    5    0    0  0.22558700774E+02 -0.41508222214E+02  0.19156034792E+03  0.19729975770E+03  0.00000000000E+00 0. -1.
        -14    1    5    5    0    0 -0.20039452090E+02 -0.38839478199E+01  0.71367679375E+01  0.21624017835E+02  0.00000000000E+00 0.  1.
          5    1    4    4  501    0 -0.28972817210E+02 -0.11795879384E+02 -0.44113378869E+03  0.44226130153E+03  0.41800000000E+01 0.  1.
         -5    1    4    4    0  501 -0.32933633267E+01  0.41339725466E+02 -0.43839440334E+02  0.60491223103E+02  0.41800000000E+01 0.  1.
</event>
<event>
11    1  0.9306857E-009  0.1529320E+03  0.7561462E-02  0.1093920E+00
         22   -1    0    0    0    0  0.00000000000E+00  0.00000000000E+00  0.14995912603E+04  0.14995912603E+04  0.00000000000E+00 0.  1.
         22   -1    0    0    0    0 -0.00000000000E+00 -0.00000000000E+00 -0.79502010885E+03  0.79502010885E+03  0.00000000000E+00 0. -1.
        -24    2    1    2    0    0  0.75188415604E+01  0.81238607606E+02 -0.55945100588E+03  0.57114755717E+03  0.81042333025E+02 0.  0.
         25    2    1    2    0    0 -0.32719790248E+02 -0.12349674561E+03 -0.19327241169E+03  0.26328989141E+03  0.12508121740E+03 0.  0.
         24    2    1    2    0    0  0.25200948687E+02  0.42258138002E+02  0.14572945690E+04  0.14601739206E+04  0.77327740113E+02 0.  0.
        -13    1    5    5    0    0 -0.39864129851E+01  0.48387548456E+02  0.12264683523E+04  0.12274289655E+04  0.00000000000E+00 0.  1.
         14    1    5    5    0    0  0.29187361673E+02 -0.61294104545E+01  0.23082621676E+03  0.23274495505E+03  0.00000000000E+00 0. -1.
         13    1    3    3    0    0  0.48383180291E+01  0.91493965191E+02 -0.54774729276E+03  0.55535722892E+03  0.00000000000E+00 0. -1.
        -14    1    3    3    0    0  0.26805235313E+01 -0.10255357585E+02 -0.11703713120E+02  0.15790328255E+02  0.00000000000E+00 0.  1.
          5    1    4    4  501    0  0.29474200400E+02 -0.10080145362E+02 -0.90738778713E+00  0.31442543987E+02  0.41800000000E+01 0.  1.
         -5    1    4    4    0  501 -0.62193990648E+02 -0.11341660024E+03 -0.19236502390E+03  0.23184734742E+03  0.41800000000E+01 0.  1.
</event>
<event>
11    1  0.8551154E-009  0.2747694E+03  0.7561462E-02  0.1011473E+00
         22   -1    0    0    0    0  0.00000000000E+00  0.00000000000E+00  0.52841950113E+03  0.52841950113E+03  0.00000000000E+00 0. -1.
         22   -1    0    0    0    0 -0.00000000000E+00 -0.00000000000E+00 -0.63762945490E+03  0.63762945490E+03  0.00000000000E+00 0. -1.
         24    2    1    2    0    0 -0.37462935430E+02  0.10725808305E+03 -0.45323034672E+03  0.47416766091E+03  0.80681197048E+02 0.  0.
         25    2    1    2    0    0 -0.58674675935E+02 -0.30715265735E+03  0.97276709627E+02  0.35055933227E+03  0.12507443661E+03 0.  0.
        -24    2    1    2    0    0  0.96137611365E+02  0.19989457430E+03  0.24674368332E+03  0.34132196286E+03  0.80112145880E+02 0.  0.
        -11    1    3    3    0    0  0.32235415437E+01 -0.12401545393E+02 -0.48357446181E+02  0.50026314569E+02  0.00000000000E+00 0.  1.
         12    1    3    3    0    0 -0.40686476973E+02  0.11965962844E+03 -0.40487290054E+03  0.42414134634E+03  0.00000000000E+00 0. -1.
         13    1    5    5    0    0  0.87756646785E+02  0.20658422703E+03  0.22946897455E+03  0.32098953596E+03  0.00000000000E+00 0. -1.
        -14    1    5    5    0    0  0.83809645797E+01 -0.66896527226E+01  0.17274708764E+02  0.20332426902E+02  0.00000000000E+00 0.  1.
          5    1    4    4  501    0 -0.57552561911E+01 -0.26945588421E+03  0.62316447621E+02  0.27665937279E+03  0.41800000000E+01 0. -1.
         -5    1    4    4    0  501 -0.52919419744E+02 -0.37696773138E+02  0.34960262006E+02  0.73899959477E+02  0.41800000000E+01 0. -1.
</event>
<event>
11    1  0.8551154E-009  0.1484501E+03  0.7561462E-02  0.1098473E+00
         22   -1    0    0    0    0  0.00000000000E+00  0.00000000000E+00  0.28826466768E+03  0.28826466768E+03  0.00000000000E+00 0.  1.
         22   -1    0    0    0    0 -0.00000000000E+00 -0.00000000000E+00 -0.68634181024E+03  0.68634181024E+03  0.00000000000E+00 0.  1.
        -24    2    1    2    0    0 -0.69655608063E+02 -0.33295049644E+02 -0.40715011893E+03  0.42284601557E+03  0.84065863888E+02 0.  0.
         25    2    1    2    0    0  0.62581886058E+02  0.68188529791E+02 -0.24120991679E+03  0.28705686669E+03  0.12511295975E+03 0.  0.
         24    2    1    2    0    0  0.70737220046E+01 -0.34893480148E+02  0.25028289316E+03  0.26470359567E+03  0.78478496721E+02 0.  0.
        -11    1    5    5    0    0 -0.59326534707E+01 -0.40408385516E+02  0.24679574440E+03  0.25015230051E+03  0.00000000000E+00 0.  1.
         12    1    5    5    0    0  0.13006375475E+02  0.55149053686E+01  0.34871487680E+01  0.14551295157E+02  0.00000000000E+00 0. -1.
         13    1    3    3    0    0 -0.16668007195E+02 -0.29879728231E+02 -0.43516353173E+02  0.55356062147E+02  0.00000000000E+00 0. -1.
        -14    1    3    3    0    0 -0.52987600868E+02 -0.34153214131E+01 -0.36363376576E+03  0.36748995342E+03  0.00000000000E+00 0.  1.
          5    1    4    4  501    0  0.88493044655E+02  0.84709300399E+02 -0.20936114776E+03  0.24260306494E+03  0.41800000000E+01 0. -1.
         -5    1    4    4    0  501 -0.25911158597E+02 -0.16520770608E+02 -0.31848769038E+02  0.44453801756E+02  0.41800000000E+01 0. -1.
</event>
<event>
11    1  0.8551154E-009  0.1692505E+03  0.7561462E-02  0.1078686E+00
         22   -1    0    0    0    0  0.00000000000E+00  0.00000000000E+00  0.14227345110E+04  0.14227345110E+04  0.00000000000E+00 0. -1.
         22   -1    0    0    0    0 -0.00000000000E+00 -0.00000000000E+00 -0.19004161925E+04  0.19004161925E+04  0.00000000000E+00 0.  1.
         24    2    1    2    0    0 -0.53491277162E+02  0.23650374755E+02 -0.18066247224E+04  0.18092988512E+04  0.79049279196E+02 0.  0.
         25    2    1    2    0    0  0.14129633216E+03 -0.92669916421E+02  0.35962866738E+02  0.21329174368E+03  0.12509066012E+03 0.  0.
        -24    2    1    2    0    0 -0.87805054993E+02  0.69019541666E+02  0.12929801742E+04  0.13005601087E+04  0.84766978844E+02 0.  0.
        -11    1    3    3    0    0 -0.36533248845E+01  0.28138265074E+02 -0.12770674939E+04  0.12773826728E+04  0.00000000000E+00 0.  1.
         12    1    3    3    0    0 -0.49837952278E+02 -0.44878903189E+01 -0.52955722846E+03  0.53191617842E+03  0.00000000000E+00 0. -1.
         13    1    5    5    0    0 -0.10191074224E+03  0.62122930966E+02  0.98917396982E+03  0.99634843328E+03  0.00000000000E+00 0. -1.
        -14    1    5    5    0    0  0.14105687248E+02  0.68966107006E+01  0.30380620433E+03  0.30421167539E+03  0.00000000000E+00 0.  1.
          5    1    4    4  501    0  0.11117945231E+02 -0.18858868288E+02  0.57849233455E+02  0.61994127388E+02  0.41800000000E+01 0. -1.
         -5    1    4    4    0  501  0.13017838692E+03 -0.73811048133E+02 -0.21886366717E+02  0.15129761630E+03  0.41800000000E+01 0. -1.
</event>
<event>
11    1  0.8551154E-009  0.1338908E+03  0.7561462E-02  0.1114579E+00
         22   -1    0    0    0    0  0.00000000000E+00  0.00000000000E+00  0.22769914407E+04  0.22769914407E+04  0.00000000000E+00 0. -1.
         22   -1    0    0    0    0 -0.00000000000E+00 -0.00000000000E+00 -0.39977689078E+03  0.39977689078E+03  0.00000000000E+00 0. -1.
         24    2    1    2    0    0  0.81680861579E+01 -0.31565449088E+02 -0.36493137207E+03  0.37491862581E+03  0.79535994679E+02 0.  0.
         25    2    1    2    0    0  0.17395304500E+02  0.70962652958E+02  0.15332675744E+03  0.21093754901E+03  0.12508900952E+03 0.  0.
        -24    2    1    2    0    0 -0.25563390658E+02 -0.39397203869E+02  0.20888191645E+04  0.20909121566E+04  0.80885833715E+02 0.  0.
        -11    1    3    3    0    0  0.34906556102E+02 -0.21714863696E+02 -0.95339113073E+02  0.10382460906E+03  0.00000000000E+00 0.  1.
         12    1    3    3    0    0 -0.26738469944E+02 -0.98505853921E+01 -0.26959225900E+03  0.27109401675E+03  0.00000000000E+00 0. -1.
         11    1    5    5    0    0 -0.19857084924E+02 -0.11382497190E+02  0.18806086371E+04  0.18807479127E+04  0.00000000000E+00 0. -1.
        -12    1    5    5    0    0 -0.57063057334E+01 -0.28014706679E+02  0.20821052737E+03  0.21016424392E+03  0.00000000000E+00 0.  1.
          5    1    4    4  501    0  0.55016226053E+02  0.83193027925E+02  0.81662728588E+02  0.12897340294E+03  0.41800000000E+01 0. -1.
         -5    1    4    4    0  501 -0.37620921554E+02 -0.12230374967E+02  0.71664028856E+02  0.81964146078E+02  0.41800000000E+01 0. -1.
</event>
<event>
11    1  0.8551154E-009  0.1470088E+03  0.7561462E-02  0.1099975E+00
         22   -1    0    0    0    0  0.00000000000E+00  0.00000000000E+00  0.52286526341E+03  0.52286526341E+03  0.00000000000E+00 0. -1.
         22   -1    0    0    0    0 -0.00000000000E+00 -0.00000000000E+00 -0.33909735042E+04  0.33909735042E+04  0.00000000000E+00 0. -1.
         24    2    1    2    0    0  0.64911790556E+02  0.42788825612E+02 -0.32588835466E+04  0.32607736666E+04  0.79237051033E+02 0.  0.
         25    2    1    2    0    0 -0.63360962608E+02 -0.56231698095E+01 -0.88736936564E+02  0.16603486970E+03  0.12508837846E+03 0.  0.
        -24    2    1    2    0    0 -0.15508279484E+01 -0.37165655802E+02  0.47951224232E+03  0.48703023138E+03  0.76699183182E+02 0.  0.
        -13    1    3    3    0    0 -0.12582751705E+02  0.29350502793E+02 -0.81722936420E+03  0.81785304998E+03  0.00000000000E+00 0.  1.
         14    1    3    3    0    0  0.77494542261E+02  0.13438322819E+02 -0.24416541824E+04  0.24429206166E+04  0.00000000000E+00 0. -1.
         11    1    5    5    0    0  0.30801375008E+02 -0.23519937993E+02  0.37006307663E+03  0.37208680825E+03  0.00000000000E+00 0. -1.
        -12    1    5    5    0    0 -0.32352202956E+02 -0.13645717809E+02  0.10944916569E+03  0.11494342313E+03  0.00000000000E+00 0.  1.
          5    1    4    4  501    0 -0.95986971387E+02 -0.21361587477E+02 -0.83745477531E+02  0.12923077614E+03  0.41800000000E+01 0. -1.
         -5    1    4    4    0  501  0.32626008779E+02  0.15738417668E+02 -0.49914590335E+01  0.36804093560E+02  0.41800000000E+01 0. -1.
</event>
<event>
11    1  0.8551154E-009  0.1318318E+03  0.7561462E-02  0.1117039E+00
         22   -1    0    0    0    0  0.00000000000E+00  0.00000000000E+00  0.10375444379E+04  0.10375444379E+04  0.00000000000E+00 0.  1.
         22   -1    0    0    0    0 -0.00000000000E+00 -0.00000000000E+00 -0.21743940609E+03  0.21743940609E+03  0.00000000000E+00 0.  1.
         24    2    1    2    0    0  0.23779532648E+02  0.39042319757E+01 -0.17114939011E+03  0.18910667510E+03  0.76736638138E+02 0.  0.
         25    2    1    2    0    0 -0.64121949589E+02 -0.75735389151E+00  0.10381541971E+03  0.17474831191E+03  0.12508850123E+03 0.  0.
        -24    2    1    2    0    0  0.40342416941E+02 -0.31468780841E+01  0.88743900218E+03  0.89112885696E+03  0.70180080252E+02 0.  0.
        -11    1    3    3    0    0  0.66285530195E+01  0.57574496356E+01 -0.17162488109E+03  0.17184931118E+03  0.00000000000E+00 0.  1.
         12    1    3    3    0    0  0.17150979629E+02 -0.18532176600E+01  0.47549098527E+00  0.17257363924E+02  0.00000000000E+00 0. -1.
         13    1    5    5    0    0  0.94059010231E+01 -0.23912741258E+02  0.11695996520E+03  0.11974942016E+03  0.00000000000E+00 0. -1.
        -14    1    5    5    0    0  0.30936515918E+02  0.20765863174E+02  0.77047903698E+03  0.77137943680E+03  0.00000000000E+00 0.  1.
          5    1    4    4  501    0  0.45979558896E+01  0.41674642353E+02  0.80040139979E+02  0.90453377060E+02  0.41800000000E+01 0.  1.
         -5    1    4    4    0  501 -0.68719905479E+02 -0.42431996244E+02  0.23775279731E+02  0.84294934845E+02  0.41800000000E+01 0.  1.
</event>
<event>
11    1  0.8551154E-009  0.1544239E+03  0.7561462E-02  0.1092442E+00
         22   -1    0    0    0    0  0.00000000000E+00  0.00000000000E+00  0.23644256677E+04  0.23644256677E+04  0.00000000000E+00 0. -1.
         22   -1    0    0    0    0 -0.00000000000E+00 -0.00000000000E+00 -0.67583898399E+02  0.67583898399E+02  0.00000000000E+00 0.  1.
         24    2    1    2    0    0  0.13277969814E+02  0.87900396388E+01 -0.27603547117E+02  0.86568796252E+02  0.80489945905E+02 0.  0.
         25    2    1    2    0    0  0.68106244303E+02  0.38287408735E+02  0.65390225031E+03  0.67032697594E+03  0.12508283466E+03 0.  0.
        -24    2    1    2    0    0 -0.81384214117E+02 -0.47077448374E+02  0.16705430661E+04  0.16751137939E+04  0.80326896994E+02 0.  0.
        -11    1    3    3    0    0 -0.64176662356E+01 -0.29472930099E+02 -0.31184348268E+02  0.43385523224E+02  0.00000000000E+00 0.  1.
         12    1    3    3    0    0  0.19695636049E+02  0.38262969737E+02  0.35808011509E+01  0.43183273028E+02  0.00000000000E+00 0. -1.
         11    1    5    5    0    0 -0.94085249213E+02 -0.46465361978E+02  0.12560041464E+04  0.12603798951E+04  0.00000000000E+00 0. -1.
        -12    1    5    5    0    0  0.12701035097E+02 -0.61208639642E+00  0.41453891962E+03  0.41473389881E+03  0.00000000000E+00 0.  1.
          5    1    4    4  501    0  0.25069946772E+02 -0.45777648826E+02  0.20522636773E+03  0.21180044801E+03  0.41800000000E+01 0. -1.
         -5    1    4    4    0  501  0.43036297531E+02  0.84065057561E+02  0.44867588258E+03  0.45852652793E+03  0.41800000000E+01 0. -1.
</event>
<event>
11    1  0.8551154E-009  0.4574292E+03  0.7561462E-02  0.9494025E-01
         22   -1    0    0    0    0  0.00000000000E+00  0.00000000000E+00  0.76918805973E+03  0.76918805973E+03  0.00000000000E+00 0.  1.
         22   -1    0    0    0    0 -0.00000000000E+00 -0.00000000000E+00 -0.11439300345E+04  0.11439300345E+04  0.00000000000E+00 0.  1.
        -24    2    1    2    0    0 -0.36948561063E+02  0.44569431131E+03 -0.97153362233E+03  0.10735529068E+04  0.92895904773E+02 0.  0.
         25    2    1    2    0    0  0.37846158392E+02 -0.38643001014E+03  0.25101076383E+03  0.47897433492E+03  0.12509806356E+03 0.  0.
         24    2    1    2    0    0 -0.89759732941E+00 -0.59264301172E+02  0.34578088370E+03  0.36059085251E+03  0.83356345321E+02 0.  0.
        -11    1    5    5    0    0  0.38616334342E+02 -0.47157912112E+02  0.20489186830E+03  0.21376568399E+03  0.00000000000E+00 0.  1.
         12    1    5    5    0    0 -0.39513931671E+02 -0.12106389060E+02  0.14088901540E+03  0.14682516852E+03  0.00000000000E+00 0. -1.
         11    1    3    3    0    0  0.66887542365E+01  0.39000938246E+01 -0.33432886629E+01  0.84337265879E+01  0.00000000000E+00 0. -1.
        -12    1    3    3    0    0 -0.43637315299E+02  0.44179421749E+03 -0.96819033367E+03  0.10651191802E+04  0.00000000000E+00 0.  1.
          5    1    4    4  501    0  0.58479244952E+02 -0.33718576570E+03  0.17072114859E+03  0.38246208394E+03  0.41800000000E+01 0.  1.
         -5    1    4    4    0  501 -0.20633086560E+02 -0.49244244442E+02  0.80289615246E+02  0.96512250974E+02  0.41800000000E+01 0.  1.
</event>
<event>
11    1  0.8551154E-009  0.1434902E+03  0.7561462E-02  0.1103722E+00
         22   -1    0    0    0    0  0.00000000000E+00  0.00000000000E+00  0.98670758390E+03  0.98670758390E+03  0.00000000000E+00 0. -1.
         22   -1    0    0    0    0 -0.00000000000E+00 -0.00000000000E+00 -0.22127201620E+03  0.22127201620E+03  0.00000000000E+00 0.  1.
        -24    2    1    2    0    0  0.66890476334E+02  0.14269889676E+02 -0.14754881485E+03  0.18147479088E+03  0.80526277608E+02 0.  0.
         25    2    1    2    0    0 -0.82184810831E+02 -0.67292246338E+01  0.48125031659E+02  0.15735891189E+03  0.12508470283E+03 0.  0.
         24    2    1    2    0    0  0.15294334497E+02 -0.75406650422E+01  0.86485935089E+03  0.86914589733E+03  0.84511039132E+02 0.  0.
        -11    1    5    5    0    0  0.30929438300E+02  0.29348672666E+02  0.32211147331E+03  0.32492118426E+03  0.00000000000E+00 0.  1.
         12    1    5    5    0    0 -0.15635103803E+02 -0.36889337709E+02  0.54274787758E+03  0.54422471308E+03  0.00000000000E+00 0. -1.
         13    1    3    3    0    0  0.54488519347E+02  0.45746392382E+02 -0.90082895636E+02  0.11478963038E+03  0.00000000000E+00 0. -1.
        -14    1    3    3    0    0  0.12401956987E+02 -0.31476502706E+02 -0.57465919210E+02  0.66685160495E+02  0.00000000000E+00 0.  1.
          5    1    4    4  501    0 -0.38823059094E+02 -0.15031441650E+02 -0.40516580855E+02  0.58242938453E+02  0.41800000000E+01 0. -1.
         -5    1    4    4    0  501 -0.43361751737E+02  0.83022170163E+01  0.88641612514E+02  0.99115973435E+02  0.41800000000E+01 0. -1.
</event>
<event>
11    1  0.8551154E-009  0.1713026E+03  0.7561462E-02  0.1076904E+00
         22   -1    0    0    0    0  0.00000000000E+00  0.00000000000E+00  0.10579396162E+04  0.10579396162E+04  0.00000000000E+00 0. -1.
         22   -1    0    0    0    0 -0.00000000000E+00 -0.00000000000E+00 -0.16620656164E+03  0.16620656164E+03  0.00000000000E+00 0. -1.
        -24    2    1    2    0    0 -0.19660348796E+02 -0.10143237917E+02 -0.11554331353E+03  0.13900423884E+03  0.74043949948E+02 0.  0.
         25    2    1    2    0    0  0.10787065179E+02 -0.10832689388E+03  0.17630739485E+03  0.24203933604E+03  0.12509063115E+03 0.  0.
         24    2    1    2    0    0  0.88732836171E+01  0.11847013179E+03  0.83096897330E+03  0.84310260300E+03  0.78731552200E+02 0.  0.
        -11    1    5    5    0    0  0.13999828373E+02 -0.60729552320E+01  0.50929320108E+02  0.53166452076E+02  0.00000000000E+00 0.  1.
         12    1    5    5    0    0 -0.51265447559E+01  0.12454308703E+03  0.78003965319E+03  0.78993615092E+03  0.00000000000E+00 0. -1.
         11    1    3    3    0    0 -0.10275584490E+02  0.26611710932E+02 -0.86923645943E+02  0.91484922361E+02  0.00000000000E+00 0. -1.
        -12    1    3    3    0    0 -0.93847643062E+01 -0.36754948849E+02 -0.28619667591E+02  0.47519316483E+02  0.00000000000E+00 0.  1.
          5    1    4    4  501    0  0.63940917897E+02 -0.50152749793E+02  0.58386979457E+02  0.10015114110E+03  0.41800000000E+01 0.  1.
         -5    1    4    4    0  501 -0.53153852718E+02 -0.58174144084E+02  0.11792041539E+03  0.14188819495E+03  0.41800000000E+01 0.  1.
</event>
<event>
11    1  0.8551154E-009  0.1623763E+03  0.7561462E-02  0.1084863E+00
         22   -1    0    0    0    0  0.00000000000E+00  0.00000000000E+00  0.58930515618E+03  0.58930515618E+03  0.00000000000E+00 0. -1.
         22   -1    0    0    0    0 -0.00000000000E+00 -0.00000000000E+00 -0.15696548086E+03  0.15696548086E+03  0.00000000000E+00 0.  1.
         24    2    1    2    0    0  0.53570649857E+01  0.20138905687E+02 -0.83336721812E+02  0.11886812171E+03  0.82160498343E+02 0.  0.
         25    2    1    2    0    0  0.97807949102E+02  0.64691563173E+00  0.94535065540E+02  0.18480198510E+03  0.12509229262E+03 0.  0.
        -24    2    1    2    0    0 -0.10316501409E+03 -0.20785821318E+02  0.42114133160E+03  0.44260053023E+03  0.86372088581E+02 0.  0.
        -13    1    3    3    0    0 -0.15943543013E+02  0.21319119083E+01 -0.88970392606E+02  0.90412788767E+02  0.00000000000E+00 0.  1.
         14    1    3    3    0    0  0.21300607998E+02  0.18006993778E+02  0.56336707940E+01  0.28455332938E+02  0.00000000000E+00 0. -1.
         13    1    5    5    0    0 -0.10980448899E+03  0.33161570630E+01  0.31680554992E+03  0.33531146589E+03  0.00000000000E+00 0. -1.
        -14    1    5    5    0    0  0.66394749044E+01 -0.24101978381E+02  0.10433578168E+03  0.10728906434E+03  0.00000000000E+00 0.  1.
          5    1    4    4  501    0  0.14496367312E+02 -0.52914328175E+02  0.13226442600E+02  0.56590476012E+02  0.41800000000E+01 0. -1.
         -5    1    4    4    0  501  0.83311581790E+02  0.53561243806E+02  0.81308622940E+02  0.12821150909E+03  0.41800000000E+01 0. -1.
</event>
<event>
11    1  0.8551154E-009  0.1641857E+03  0.7561462E-02  0.1083205E+00
         22   -1    0    0    0    0  0.00000000000E+00  0.00000000000E+00  0.17527435189E+03  0.17527435189E+03  0.00000000000E+00 0. -1.
         22   -1    0    0    0    0 -0.00000000000E+00 -0.00000000000E+00 -0.35691891281E+03  0.35691891281E+03  0.00000000000E+00 0.  1.
         24    2    1    2    0    0 -0.86472238338E+02 -0.72307639018E+02 -0.15100217809E+03  0.20441068847E+03  0.79222655274E+02 0.  0.
         25    2    1    2    0    0  0.60642788231E+02  0.77515286531E+02 -0.12380046523E+03  0.20164362378E+03  0.12508968147E+03 0.  0.
        -24    2    1    2    0    0  0.25829450106E+02 -0.52076475130E+01  0.93158082397E+02  0.12613895245E+03  0.80859921617E+02 0.  0.
        -13    1    3    3    0    0 -0.71352706817E+02 -0.87387211392E+02 -0.10694320792E+03  0.15544961629E+03  0.00000000000E+00 0.  1.
         14    1    3    3    0    0 -0.15119531521E+02  0.15079572374E+02 -0.44058970163E+02  0.48961072172E+02  0.00000000000E+00 0. -1.
         13    1    5    5    0    0  0.58975908894E+01 -0.36717322122E+02  0.76987699826E+02  0.85498825995E+02  0.00000000000E+00 0. -1.
        -14    1    5    5    0    0  0.19931859217E+02  0.31509674609E+02  0.16170382571E+02  0.40640126455E+02  0.00000000000E+00 0.  1.
          5    1    4    4  501    0  0.55780149297E+02  0.64278679000E+02 -0.87507545121E+01  0.85657584219E+02  0.41800000000E+01 0.  1.
         -5    1    4    4    0  501  0.48626389339E+01  0.13236607530E+02 -0.11504971072E+03  0.11598603956E+03  0.41800000000E+01 0.  1.
</event>
<event>
11    1  0.8551154E-009  0.2472040E+03  0.7561462E-02  0.1025399E+00
         22   -1    0    0    0    0  0.00000000000E+00  0.00000000000E+00  0.45026944405E+03  0.45026944405E+03  0.00000000000E+00 0.  1.
         22   -1    0    0    0    0 -0.00000000000E+00 -0.00000000000E+00 -0.60402683534E+03  0.60402683534E+03  0.00000000000E+00 0. -1.
         24    2    1    2    0    0 -0.21484543317E+03  0.10110378494E+02 -0.49206437909E+03  0.54306188515E+03  0.80796522328E+02 0.  0.
         25    2    1    2    0    0  0.20105074886E+03  0.23027404456E+02  0.10147085880E+03  0.25864192429E+03  0.12509054657E+03 0.  0.
        -24    2    1    2    0    0  0.13794684317E+02 -0.33137782950E+02  0.23683612900E+03  0.25259246996E+03  0.80144855758E+02 0.  0.
        -11    1    3    3    0    0 -0.91165228250E+02 -0.50926788124E+01 -0.12068191663E+03  0.15133128963E+03  0.00000000000E+00 0.  1.
         12    1    3    3    0    0 -0.12368020492E+03  0.15203057307E+02 -0.37138246246E+03  0.39173059551E+03  0.00000000000E+00 0. -1.
         13    1    5    5    0    0  0.15934820424E+01  0.18746196833E+02  0.13948032352E+02  0.23420219623E+02  0.00000000000E+00 0. -1.
        -14    1    5    5    0    0  0.12201202274E+02 -0.51883979783E+02  0.22288809665E+03  0.22917225033E+03  0.00000000000E+00 0.  1.
          5    1    4    4  501    0  0.43853760975E+01  0.33661982033E+02 -0.52360732576E+01  0.34601292188E+02  0.41800000000E+01 0.  1.
         -5    1    4    4    0  501  0.19666537276E+03 -0.10634577577E+02  0.10670693206E+03  0.22404063210E+03  0.41800000000E+01 0.  1.
</event>
<event>
11    1  0.8551154E-009  0.1355683E+03  0.7561462E-02  0.1112611E+00
         22   -1    0    0    0    0  0.00000000000E+00  0.00000000000E+00  0.40748236042E+03  0.40748236042E+03  0.00000000000E+00 0. -1.
         22   -1    0    0    0    0 -0.00000000000E+00 -0.00000000000E+00 -0.13163328196E+03  0.13163328196E+03  0.00000000000E+00 0. -1.
        -24    2    1    2    0    0 -0.90695120533E+01 -0.40911475044E+02 -0.31699043987E+02  0.96664332756E+02  0.81136668642E+02 0.  0.
         25    2    1    2    0    0  0.58140154621E+02  0.50794635161E+02  0.31653811168E+02  0.15035329134E+03  0.12507508111E+03 0.  0.
         24    2    1    2    0    0 -0.49070642568E+02 -0.98831601176E+01  0.27589431128E+03  0.29209801829E+03  0.81841166128E+02 0.  0.
        -13    1    5    5    0    0 -0.37313174413E+02 -0.41737989248E+02  0.11818449462E+03  0.13077426161E+03  0.00000000000E+00 0.  1.
         14    1    5    5    0    0 -0.11757468154E+02  0.31854829130E+02  0.15770981666E+03  0.16132375668E+03  0.00000000000E+00 0. -1.
         13    1    3    3    0    0 -0.42979434766E+02 -0.36000630816E+02 -0.26486094696E+02  0.62006374222E+02  0.00000000000E+00 0. -1.
        -14    1    3    3    0    0  0.33909922712E+02 -0.49108442276E+01 -0.52129492910E+01  0.34657958533E+02  0.00000000000E+00 0.  1.
          5    1    4    4  501    0 -0.93594003923E+01 -0.35725277695E+02  0.83144682894E+01  0.38085385977E+02  0.41800000000E+01 0. -1.
         -5    1    4    4    0  501  0.67499555013E+02  0.86519912856E+02  0.23339342878E+02  0.11226790536E+03  0.41800000000E+01 0. -1.
</event>
<event>
11    1  0.8551154E-009  0.1722018E+03  0.7561462E-02  0.1076131E+00
         22   -1    0    0    0    0  0.00000000000E+00  0.00000000000E+00  0.11678710551E+04  0.11678710551E+04  0.00000000000E+00 0.  1.
         22   -1    0    0    0    0 -0.00000000000E+00 -0.00000000000E+00 -0.59449505147E+03  0.59449505147E+03  0.00000000000E+00 0. -1.
         24    2    1    2    0    0 -0.10430568558E+02 -0.40752392792E+01 -0.50725273769E+03  0.51304742821E+03  0.76071804036E+02 0.  0.
         25    2    1    2    0    0  0.84772785819E+00  0.12184620181E+03  0.16401433869E+02  0.17539604559E+03  0.12509016844E+03 0.  0.
        -24    2    1    2    0    0  0.95828406994E+01 -0.11777096253E+03  0.10642273074E+04  0.10739226328E+04  0.82269245787E+02 0.  0.
        -13    1    3    3    0    0  0.96841466567E+01  0.29686542796E+02 -0.12756573871E+03  0.13133198853E+03  0.00000000000E+00 0.  1.
         14    1    3    3    0    0 -0.20114715214E+02 -0.33761782076E+02 -0.37968699898E+03  0.38171543968E+03  0.00000000000E+00 0. -1.
         11    1    5    5    0    0 -0.25924743781E+02 -0.65289162940E+01  0.23441174105E+03  0.23593131083E+03  0.00000000000E+00 0. -1.
        -12    1    5    5    0    0  0.35507584480E+02 -0.11124204623E+03  0.82981556638E+03  0.83799132192E+03  0.00000000000E+00 0.  1.
          5    1    4    4  501    0  0.42111723851E+02  0.11335704167E+03  0.39356018245E+02  0.12723829908E+03  0.41800000000E+01 0.  1.
         -5    1    4    4    0  501 -0.41263995992E+02  0.84891601411E+01 -0.22954584376E+02  0.48157746511E+02  0.41800000000E+01 0.  1.
</event>
<event>
11    1  0.8551154E-009  0.1313775E+03  0.7561462E-02  0.1117588E+00
         22   -1    0    0    0    0  0.00000000000E+00  0.00000000000E+00  0.71354180442E+03  0.71354180442E+03  0.00000000000E+00 0.  1.
         22   -1    0    0    0    0 -0.00000000000E+00 -0.00000000000E+00 -0.70086805715E+02  0.70086805715E+02  0.00000000000E+00 0.  1.
         24    2    1    2    0    0  0.43577456986E+02 -0.22998333056E+02  0.13872736502E+02  0.10563542032E+03  0.92403848014E+02 0.  0.
         25    2    1    2    0    0 -0.14271488319E+02 -0.95468165857E+01  0.18598366646E+03  0.22479419464E+03  0.12509072175E+03 0.  0.
        -24    2    1    2    0    0 -0.29305968667E+02  0.32545149642E+02  0.44359859575E+03  0.45319899518E+03  0.81802130257E+02 0.  0.
        -11    1    3    3    0    0  0.29447498190E+02  0.75829750343E+01 -0.34944643529E+02  0.46322616197E+02  0.00000000000E+00 0.  1.
         12    1    3    3    0    0  0.14129958796E+02 -0.30581308091E+02  0.48817380031E+02  0.59312804125E+02  0.00000000000E+00 0. -1.
         11    1    5    5    0    0  0.90022306490E+01  0.49468996593E+02  0.26792785866E+03  0.27260513426E+03  0.00000000000E+00 0. -1.
        -12    1    5    5    0    0 -0.38308199316E+02 -0.16923846951E+02  0.17567073709E+03  0.18059386091E+03  0.00000000000E+00 0.  1.
          5    1    4    4  501    0  0.42135465427E+02 -0.36557440032E+02  0.49871376112E+02  0.74943114585E+02  0.41800000000E+01 0.  1.
         -5    1    4    4    0  501 -0.56406953746E+02  0.27010623446E+02  0.13611229035E+03  0.14985108005E+03  0.41800000000E+01 0.  1.
</event>
<event>
11    1  0.8551154E-009  0.1279070E+03  0.7561462E-02  0.1121868E+00
         22   -1    0    0    0    0  0.00000000000E+00  0.00000000000E+00  0.39000684221E+03  0.39000684221E+03  0.00000000000E+00 0. -1.
         22   -1    0    0    0    0 -0.00000000000E+00 -0.00000000000E+00 -0.26593641038E+03  0.26593641038E+03  0.00000000000E+00 0. -1.
        -24    2    1    2    0    0  0.34020231131E+02  0.52606942061E+01 -0.18075159556E+03  0.19928622529E+03  0.76542858997E+02 0.  0.
         25    2    1    2    0    0 -0.55431761594E+02  0.70152729310E+01 -0.35396363794E+01  0.13704214747E+03  0.12508447909E+03 0.  0.
         24    2    1    2    0    0  0.21411530464E+02 -0.12275967137E+02  0.30836166376E+03  0.31961487984E+03  0.80359210603E+02 0.  0.
        -13    1    5    5    0    0  0.18233174656E+02 -0.10649557986E+02  0.14232859822E+02  0.25464407357E+02  0.00000000000E+00 0.  1.
         14    1    5    5    0    0  0.31783558074E+01 -0.16264091508E+01  0.29412880394E+03  0.29415047248E+03  0.00000000000E+00 0. -1.
         11    1    3    3    0    0  0.33570685618E+02 -0.27953241408E+02 -0.14030188418E+03  0.14694554550E+03  0.00000000000E+00 0. -1.
        -12    1    3    3    0    0  0.44954551293E+00  0.33213935614E+02 -0.40449711379E+02  0.52340679789E+02  0.00000000000E+00 0.  1.
          5    1    4    4  501    0 -0.34635555796E+02 -0.54837679893E+02 -0.22796651295E+02  0.68876357131E+02  0.41800000000E+01 0.  1.
         -5    1    4    4    0  501 -0.20796205798E+02  0.61852952824E+02  0.19257014916E+02  0.68165790336E+02  0.41800000000E+01 0.  1.
</event>
<event>
11    1  0.8551154E-009  0.7106678E+03  0.7561462E-02  0.9016730E-01
         22   -1    0    0    0    0  0.00000000000E+00  0.00000000000E+00  0.70724736651E+03  0.70724736651E+03  0.00000000000E+00 0.  1.
         22   -1    0    0    0    0 -0.00000000000E+00 -0.00000000000E+00 -0.17852619848E+03  0.17852619848E+03  0.00000000000E+00 0. -1.
        -24    2    1    2    0    0  0.14316343005E+03 -0.10828040215E+03  0.22246829151E+03  0.29720699509E+03  0.81359965670E+02 0.  0.
         25    2    1    2    0    0 -0.28664176206E+03  0.95472738930E+02  0.14375970952E+03  0.35720078394E+03  0.12508797836E+03 0.  0.
         24    2    1    2    0    0  0.14347833201E+03  0.12807663217E+02  0.16249316700E+03  0.23136578596E+03  0.79850044435E+02 0.  0.
        -13    1    5    5    0    0  0.10937139881E+03  0.38299704080E+02  0.14427324865E+03  0.18505064303E+03  0.00000000000E+00 0.  1.
         14    1    5    5    0    0  0.34106933196E+02 -0.25492040863E+02  0.18219918354E+02  0.46315142926E+02  0.00000000000E+00 0. -1.
         13    1    3    3    0    0  0.21220217294E+01  0.33797717989E+01 -0.55094461090E+01  0.68029280506E+01  0.00000000000E+00 0. -1.
        -14    1    3    3    0    0  0.14104140832E+03 -0.11166017395E+03  0.22797773762E+03  0.29040406704E+03  0.00000000000E+00 0.  1.
          5    1    4    4  501    0 -0.23913366179E+03  0.96175817300E+02  0.16384642751E+03  0.30544691887E+03  0.41800000000E+01 0.  1.
         -5    1    4    4    0  501 -0.47508100267E+02 -0.70307837065E+00 -0.20086717996E+02  0.51753865073E+02  0.41800000000E+01 0.  1.
</event>
<event>
11    1  0.8677196E-009  0.1799455E+03  0.7561462E-02  0.1069687E+00
         22   -1    0    0    0    0  0.00000000000E+00  0.00000000000E+00  0.45186066601E+03  0.45186066601E+03  0.00000000000E+00 0. -1.
         22   -1    0    0    0    0 -0.00000000000E+00 -0.00000000000E+00 -0.11416344295E+04  0.11416344295E+04  0.00000000000E+00 0. -1.
        -24    2    1    2    0    0  0.87526100148E+01 -0.30591209176E+02 -0.94187689512E+03  0.94582354988E+03  0.80235102523E+02 0.  0.
         25    2    1    2    0    0 -0.13554856186E+03  0.61484067492E+01 -0.13700224225E+03  0.22984477832E+03  0.12509113563E+03 0.  0.
         24    2    1    2    0    0  0.12679595184E+03  0.24442802427E+02  0.38910537388E+03  0.41782676733E+03  0.80632199046E+02 0.  0.
        -11    1    5    5    0    0  0.15163712382E+02 -0.58987939667E+01  0.55268438495E+01  0.17183711659E+02  0.00000000000E+00 0.  1.
         12    1    5    5    0    0  0.11163223946E+03  0.30341596394E+02  0.38357853003E+03  0.40064305567E+03  0.00000000000E+00 0. -1.
         11    1    3    3    0    0 -0.10957833487E+02  0.18168792477E+02 -0.55293246149E+03  0.55333939504E+03  0.00000000000E+00 0. -1.
        -12    1    3    3    0    0  0.19710443502E+02 -0.48760001653E+02 -0.38894443363E+03  0.39248415484E+03  0.00000000000E+00 0.  1.
          5    1    4    4  501    0 -0.11262645115E+03  0.51473919487E+02 -0.12790211606E+03  0.17807499987E+03  0.41800000000E+01 0.  1.
         -5    1    4    4    0  501 -0.22922110710E+02 -0.45325512738E+02 -0.91001261882E+01  0.51769778452E+02  0.41800000000E+01 0.  1.
</event>
<event>
11    1  0.8551154E-009  0.2267044E+03  0.7561462E-02  0.1037097E+00
         22   -1    0    0    0    0  0.00000000000E+00  0.00000000000E+00  0.32792076497E+03  0.32792076497E+03  0.00000000000E+00 0. -1.
         22   -1    0    0    0    0 -0.00000000000E+00 -0.00000000000E+00 -0.12358549385E+04  0.12358549385E+04  0.00000000000E+00 0.  1.
        -24    2    1    2    0    0 -0.11672366743E+03 -0.14310948956E+03 -0.77799345237E+03  0.80374253641E+03  0.81384964033E+02 0.  0.
         25    2    1    2    0    0  0.33480501852E+02  0.22263447567E+03 -0.38820343746E+03  0.46586316648E+03  0.12505809556E+03 0.  0.
         24    2    1    2    0    0  0.83243165581E+02 -0.79524986113E+02  0.25826271632E+03  0.29417000055E+03  0.81133905060E+02 0.  0.
        -11    1    5    5    0    0  0.45930685253E+02  0.15331607573E+00  0.48986541781E+02  0.67151564608E+02  0.00000000000E+00 0.  1.
         12    1    5    5    0    0  0.37312480329E+02 -0.79678302189E+02  0.20927617454E+03  0.22701843594E+03  0.00000000000E+00 0. -1.
         11    1    3    3    0    0 -0.12343214862E+03 -0.10224163611E+03 -0.60676154280E+03  0.62757343578E+03  0.00000000000E+00 0. -1.
        -12    1    3    3    0    0  0.67084811898E+01 -0.40867853454E+02 -0.17123190957E+03  0.17616910064E+03  0.00000000000E+00 0.  1.
          5    1    4    4  501    0  0.39155695519E+02  0.27709352837E+02 -0.15249167516E+03  0.15991297670E+03  0.41800000000E+01 0. -1.
         -5    1    4    4    0  501 -0.56751936662E+01  0.19492512284E+03 -0.23571176230E+03  0.30595018978E+03  0.41800000000E+01 0. -1.
</event>
<event>
11    1  0.8551154E-009  0.1271964E+03  0.7561462E-02  0.1122763E+00
         22   -1    0    0    0    0  0.00000000000E+00  0.00000000000E+00  0.79133217631E+03  0.79133217631E+03  0.00000000000E+00 0. -1.
         22   -1    0    0    0    0 -0.00000000000E+00 -0.00000000000E+00 -0.58358169096E+03  0.58358169096E+03  0.00000000000E+00 0.  1.
        -24    2    1    2    0    0 -0.85776811871E+01 -0.17142535026E+02 -0.26798402094E+03  0.28035832933E+03  0.80111885652E+02 0.  0.
         25    2    1    2    0    0  0.25419471202E+02  0.13183190395E+01 -0.29380456675E+03  0.32033696555E+03  0.12508701202E+03 0.  0.
         24    2    1    2    0    0 -0.16841790015E+02  0.15824215987E+02  0.76953907304E+03  0.77421857238E+03  0.81792182973E+02 0.  0.
        -13    1    5    5    0    0  0.17656644383E+02 -0.19184673230E+02  0.11887506166E+03  0.12170081784E+03  0.00000000000E+00 0.  1.
         14    1    5    5    0    0 -0.34498434398E+02  0.35008889217E+02  0.65066401137E+03  0.65251775454E+03  0.00000000000E+00 0. -1.
         11    1    3    3    0    0  0.19768549363E+02 -0.40103488829E+02 -0.12363521256E+03  0.13147148415E+03  0.00000000000E+00 0. -1.
        -12    1    3    3    0    0 -0.28346230550E+02  0.22960953803E+02 -0.14434880838E+03  0.14888684518E+03  0.00000000000E+00 0.  1.
          5    1    4    4  501    0  0.11221287924E+01  0.55193058470E+02 -0.21337873065E+03  0.22044384312E+03  0.41800000000E+01 0. -1.
         -5    1    4    4    0  501  0.24297342410E+02 -0.53874739430E+02 -0.80425836097E+02  0.99893122430E+02  0.41800000000E+01 0. -1.
</event>
<event>
11    1  0.8551154E-009  0.2345054E+03  0.7561462E-02  0.1032493E+00
         22   -1    0    0    0    0  0.00000000000E+00  0.00000000000E+00  0.90143684739E+03  0.90143684739E+03  0.00000000000E+00 0.  1.
         22   -1    0    0    0    0 -0.00000000000E+00 -0.00000000000E+00 -0.60899499219E+03  0.60899499219E+03  0.00000000000E+00 0.  1.
        -24    2    1    2    0    0  0.19640338833E+03  0.24468538291E+02 -0.55861024064E+03  0.59712141496E+03  0.73045074741E+02 0.  0.
         25    2    1    2    0    0 -0.21218597034E+03 -0.27987898346E+02  0.67512517214E+03  0.71919993132E+03  0.12509330395E+03 0.  0.
         24    2    1    2    0    0  0.15782582007E+02  0.35193600548E+01  0.17592692370E+03  0.19411049331E+03  0.80418439069E+02 0.  0.
        -13    1    5    5    0    0  0.44503032465E+02 -0.11576381724E+02  0.12988368816E+03  0.13778354387E+03  0.00000000000E+00 0.  1.
         14    1    5    5    0    0 -0.28720450457E+02  0.15095741779E+02  0.46043235541E+02  0.56326949442E+02  0.00000000000E+00 0. -1.
         11    1    3    3    0    0  0.98156817433E+02 -0.16373843705E+02 -0.33536910934E+03  0.34982181617E+03  0.00000000000E+00 0. -1.
        -12    1    3    3    0    0  0.98246570896E+02  0.40842381996E+02 -0.22324113130E+03  0.24729959879E+03  0.00000000000E+00 0.  1.
          5    1    4    4  501    0 -0.20771236529E+03 -0.55984776155E+02  0.54456833456E+03  0.58553468323E+03  0.41800000000E+01 0.  1.
         -5    1    4    4    0  501 -0.44736050431E+01  0.27996877809E+02  0.13055683758E+03  0.13366524809E+03  0.41800000000E+01 0.  1.
</event>
<event>
11    1  0.8551154E-009  0.1456063E+03  0.7561462E-02  0.1101455E+00
         22   -1    0    0    0    0  0.00000000000E+00  0.00000000000E+00  0.39389315697E+03  0.39389315697E+03  0.00000000000E+00 0. -1.
         22   -1    0    0    0    0 -0.00000000000E+00 -0.00000000000E+00 -0.36727122335E+03  0.36727122335E+03  0.00000000000E+00 0.  1.
         24    2    1    2    0    0 -0.25486685474E+02  0.60828270661E+02 -0.19045634185E+03  0.21672551215E+03  0.79666051874E+02 0.  0.
         25    2    1    2    0    0  0.57055022442E+02 -0.85623754081E+02 -0.11594810191E+03  0.19919835834E+03  0.12509724530E+03 0.  0.
        -24    2    1    2    0    0 -0.31568336969E+02  0.24795483420E+02  0.33302637737E+03  0.34524050982E+03  0.81688834639E+02 0.  0.
        -11    1    3    3    0    0 -0.86006518348E+01  0.77060435637E+02 -0.12384348876E+03  0.14611465245E+03  0.00000000000E+00 0.  1.
         12    1    3    3    0    0 -0.16886033639E+02 -0.16232164977E+02 -0.66612853082E+02  0.70610859700E+02  0.00000000000E+00 0. -1.
         11    1    5    5    0    0 -0.25311575708E+02 -0.27764579722E+02  0.15668382928E+03  0.16112532423E+03  0.00000000000E+00 0. -1.
        -12    1    5    5    0    0 -0.62567612608E+01  0.52560063141E+02  0.17634254809E+03  0.18411518559E+03  0.00000000000E+00 0.  1.
          5    1    4    4  501    0  0.44963902680E+02  0.24291110501E+02 -0.38835437091E+02  0.64323200851E+02  0.41800000000E+01 0. -1.
         -5    1    4    4    0  501  0.12091119763E+02 -0.10991486458E+03 -0.77112664817E+02  0.13487515749E+03  0.41800000000E+01 0. -1.
</event>
<event>
11    1  0.8551154E-009  0.1342742E+03  0.7561462E-02  0.1114126E+00
         22   -1    0    0    0    0  0.00000000000E+00  0.00000000000E+00  0.69113841512E+03  0.69113841512E+03  0.00000000000E+00 0.  1.
         22   -1    0    0    0    0 -0.00000000000E+00 -0.00000000000E+00 -0.53336864046E+03  0.53336864046E+03  0.00000000000E+00 0. -1.
         24    2    1    2    0    0 -0.81223408505E+01 -0.48276101250E+02 -0.47789153567E+03  0.48705684835E+03  0.80296321776E+02 0.  0.
         25    2    1    2    0    0  0.48547354587E+02  0.37084662243E+02  0.54299623713E+02  0.14942747296E+03  0.12509197708E+03 0.  0.
        -24    2    1    2    0    0 -0.40425013737E+02  0.11191439007E+02  0.58136168661E+03  0.58802273427E+03  0.77652400564E+02 0.  0.
        -13    1    3    3    0    0 -0.41437610092E+02 -0.42230652934E+02 -0.26812209270E+03  0.27457232230E+03  0.00000000000E+00 0.  1.
         14    1    3    3    0    0  0.33315269242E+02 -0.60454483159E+01 -0.20976944297E+03  0.21248452606E+03  0.00000000000E+00 0. -1.
         13    1    5    5    0    0  0.19599242316E+01 -0.11345927967E+02  0.11961835926E+02  0.16602918513E+02  0.00000000000E+00 0. -1.
        -14    1    5    5    0    0 -0.42384937968E+02  0.22537366974E+02  0.56939985069E+03  0.57141981576E+03  0.00000000000E+00 0.  1.
          5    1    4    4  501    0  0.25884382865E+02  0.55015070873E+02  0.86594138725E+02  0.10588992663E+03  0.41800000000E+01 0.  1.
         -5    1    4    4    0  501  0.22662971722E+02 -0.17930408630E+02 -0.32294515012E+02  0.43537546334E+02  0.41800000000E+01 0.  1.
</event>
<event>
11    1  0.8551154E-009  0.1426703E+03  0.7561462E-02  0.1104613E+00
         22   -1    0    0    0    0  0.00000000000E+00  0.00000000000E+00  0.23803484534E+03  0.23803484534E+03  0.00000000000E+00 0. -1.
         22   -1    0    0    0    0 -0.00000000000E+00 -0.00000000000E+00 -0.67248838803E+03  0.67248838803E+03  0.00000000000E+00 0. -1.
         24    2    1    2    0    0 -0.27818007004E+02 -0.28825917618E+02 -0.56752753771E+03  0.57326436877E+03  0.70283393472E+02 0.  0.
         25    2    1    2    0    0 -0.22834312215E+02  0.74944791762E+02 -0.22619737876E+02  0.14932216757E+03  0.12508928635E+03 0.  0.
        -24    2    1    2    0    0  0.50652319219E+02 -0.46118874144E+02  0.15569373290E+03  0.18793669703E+03  0.79919056740E+02 0.  0.
        -11    1    3    3    0    0 -0.11306381704E+02 -0.27208172152E+02 -0.76821610130E+02  0.82278057112E+02  0.00000000000E+00 0.  1.
         12    1    3    3    0    0 -0.16511625300E+02 -0.16177454660E+01 -0.49070592758E+03  0.49098631166E+03  0.00000000000E+00 0. -1.
         13    1    5    5    0    0 -0.58053836824E+01 -0.20525087537E+02  0.10701370545E+03  0.10911881072E+03  0.00000000000E+00 0. -1.
        -14    1    5    5    0    0  0.56457702902E+02 -0.25593786607E+02  0.48680027451E+02  0.78817886311E+02  0.00000000000E+00 0.  1.
          5    1    4    4  501    0 -0.61129180678E+01  0.68041114132E+02 -0.70323963176E+02  0.98132019119E+02  0.41800000000E+01 0.  1.
         -5    1    4    4    0  501 -0.16721394148E+02  0.69036776297E+01  0.47704225300E+02  0.51190148452E+02  0.41800000000E+01 0.  1.
</event>
<event>
11    1  0.8551154E-009  0.1502777E+03  0.7561462E-02  0.1096595E+00
         22   -1    0    0    0    0  0.00000000000E+00  0.00000000000E+00  0.66942304784E+02  0.66942304784E+02  0.00000000000E+00 0.  1.
         22   -1    0    0    0    0 -0.00000000000E+00 -0.00000000000E+00 -0.28696046331E+04  0.28696046331E+04  0.00000000000E+00 0. -1.
         24    2    1    2    0    0 -0.58454217957E+02  0.18940223018E+02 -0.23048381677E+04  0.23072208877E+04  0.84933018983E+02 0.  0.
         25    2    1    2    0    0  0.28928022739E+02  0.63184796296E+02 -0.49100524636E+03  0.51143160019E+03  0.12508789204E+03 0.  0.
        -24    2    1    2    0    0  0.29526195218E+02 -0.82125019315E+02 -0.68189142523E+01  0.11789444999E+03  0.78970176306E+02 0.  0.
        -11    1    3    3    0    0 -0.17534101836E+02 -0.22293642811E+01 -0.81023208884E+02  0.82928735491E+02  0.00000000000E+00 0.  1.
         12    1    3    3    0    0 -0.40920116120E+02  0.21169587299E+02 -0.22238149589E+04  0.22242921522E+04  0.00000000000E+00 0. -1.
         11    1    5    5    0    0 -0.26812321831E+02 -0.21066680135E+02 -0.70270631220E+01  0.34815014434E+02  0.00000000000E+00 0. -1.
        -12    1    5    5    0    0  0.56338517049E+02 -0.61058339179E+02  0.20814886962E+00  0.83079435558E+02  0.00000000000E+00 0.  1.
          5    1    4    4  501    0 -0.63302152781E+01  0.49972429038E+02 -0.45918147308E+03  0.46195499013E+03  0.41800000000E+01 0. -1.
         -5    1    4    4    0  501  0.35258238017E+02  0.13212367258E+02 -0.31823773279E+02  0.49476610053E+02  0.41800000000E+01 0. -1.
</event>
<event>
11    1  0.8551154E-009  0.1476554E+03  0.7561462E-02  0.1099299E+00
         22   -1    0    0    0    0  0.00000000000E+00  0.00000000000E+00  0.30901349783E+02  0.30901349783E+02  0.00000000000E+00 0. -1.
         22   -1    0    0    0    0 -0.00000000000E+00 -0.00000000000E+00 -0.18322335498E+04  0.18322335498E+04  0.00000000000E+00 0. -1.
        -24    2    1    2    0    0 -0.11172525439E+02 -0.69783388318E+02 -0.95737912084E+03  0.96334291174E+03  0.80375605521E+02 0.  0.
         25    2    1    2    0    0  0.11410309268E+02  0.99021397833E+02 -0.78097331469E+03  0.79718350206E+03  0.12508711085E+03 0.  0.
         24    2    1    2    0    0 -0.23778382913E+00 -0.29238009515E+02 -0.62979764529E+02  0.10260848584E+03  0.75545568262E+02 0.  0.
        -13    1    5    5    0    0  0.32155381309E+02 -0.34076354010E+02 -0.27519625353E+02  0.54336877250E+02  0.00000000000E+00 0.  1.
         14    1    5    5    0    0 -0.32393165138E+02  0.48383444945E+01 -0.35460139177E+02  0.48271608587E+02  0.00000000000E+00 0. -1.
         13    1    3    3    0    0 -0.13595275314E+02  0.71828644803E+01 -0.43962097862E+03  0.43988979289E+03  0.00000000000E+00 0. -1.
        -14    1    3    3    0    0  0.24227498753E+01 -0.76966252798E+02 -0.51775814223E+03  0.52345311885E+03  0.00000000000E+00 0.  1.
          5    1    4    4  501    0 -0.54813116330E+02  0.50227688364E+02 -0.29336044421E+03  0.30266337906E+03  0.41800000000E+01 0.  1.
         -5    1    4    4    0  501  0.66223425598E+02  0.48793709470E+02 -0.48761287048E+03  0.49452012299E+03  0.41800000000E+01 0.  1.
</event>
<event>
11    1  0.8551154E-009  0.1485392E+03  0.7561462E-02  0.1098381E+00
         22   -1    0    0    0    0  0.00000000000E+00  0.00000000000E+00  0.16362439759E+04  0.16362439759E+04  0.00000000000E+00 0. -1.
         22   -1    0    0    0    0 -0.00000000000E+00 -0.00000000000E+00 -0.21790690170E+03  0.21790690170E+03  0.00000000000E+00 0. -1.
        -24    2    1    2    0    0  0.58832821996E+02 -0.54700607656E+02 -0.16725555170E+03  0.20375293083E+03  0.84186577476E+02 0.  0.
         25    2    1    2    0    0 -0.78676636860E+02  0.28720758278E+02  0.15149323032E+03  0.21357155339E+03  0.12509082476E+03 0.  0.
         24    2    1    2    0    0  0.19843814864E+02  0.25979849378E+02  0.14340993956E+04  0.14368263934E+04  0.82220914544E+02 0.  0.
        -13    1    5    5    0    0  0.39770233547E+02  0.27344850842E+02  0.46053152119E+03  0.46305366249E+03  0.00000000000E+00 0.  1.
         14    1    5    5    0    0 -0.19926418683E+02 -0.13650014647E+01  0.97356787442E+03  0.97377273092E+03  0.00000000000E+00 0. -1.
         13    1    3    3    0    0  0.71106801919E+02 -0.45746580850E+02 -0.16848506616E+03  0.18851032984E+03  0.00000000000E+00 0. -1.
        -14    1    3    3    0    0 -0.12273979923E+02 -0.89540268059E+01  0.12295144591E+01  0.15242600992E+02  0.00000000000E+00 0.  1.
          5    1    4    4  501    0 -0.13195032200E+02  0.52054406779E+02  0.85107360278E+01  0.54531414503E+02  0.41800000000E+01 0.  1.
         -5    1    4    4    0  501 -0.65481604659E+02 -0.23333648501E+02  0.14298249429E+03  0.15904013888E+03  0.41800000000E+01 0.  1.
</event>
<event>
11    1  0.8551154E-009  0.3096477E+03  0.7561462E-02  0.9961888E-01
         22   -1    0    0    0    0  0.00000000000E+00  0.00000000000E+00  0.96451873217E+03  0.96451873217E+03  0.00000000000E+00 0. -1.
         22   -1    0    0    0    0 -0.00000000000E+00 -0.00000000000E+00 -0.14822375269E+03  0.14822375269E+03  0.00000000000E+00 0. -1.
         24    2    1    2    0    0 -0.11749888395E+03 -0.27970344539E+03  0.16927975689E+03  0.35658354985E+03  0.80350400367E+02 0.  0.
         25    2    1    2    0    0  0.56888302268E+02  0.24415640426E+03  0.41395942392E+03  0.49985990167E+03  0.12509551539E+03 0.  0.
        -24    2    1    2    0    0  0.60610581679E+02  0.35547041133E+02  0.23305579867E+03  0.25629903333E+03  0.80230632835E+02 0.  0.
        -13    1    3    3    0    0 -0.50292466474E+02 -0.20339383278E+03  0.91819701800E+02  0.22875585465E+03  0.00000000000E+00 0.  1.
         14    1    3    3    0    0 -0.67206417473E+02 -0.76309612610E+02  0.77460055086E+02  0.12782769520E+03  0.00000000000E+00 0. -1.
         13    1    5    5    0    0  0.34503403626E+02  0.43220720562E+02  0.21859770040E+03  0.22548496661E+03  0.00000000000E+00 0. -1.
        -14    1    5    5    0    0  0.26107178053E+02 -0.76736794285E+01  0.14458098270E+02  0.30814066714E+02  0.00000000000E+00 0.  1.
          5    1    4    4  501    0 -0.57255066627E+01  0.43436517279E+02  0.17988102838E+03  0.18518684951E+03  0.41800000000E+01 0.  1.
         -5    1    4    4    0  501  0.62613808931E+02  0.20071988698E+03  0.23407839554E+03  0.31467305217E+03  0.41800000000E+01 0.  1.
</event>
<event>
11    1  0.8551154E-009  0.1852407E+03  0.7561462E-02  0.1065481E+00
         22   -1    0    0    0    0  0.00000000000E+00  0.00000000000E+00  0.96865750576E+03  0.96865750576E+03  0.00000000000E+00 0. -1.
         22   -1    0    0    0    0 -0.00000000000E+00 -0.00000000000E+00 -0.31501444142E+03  0.31501444142E+03  0.00000000000E+00 0. -1.
        -24    2    1    2    0    0 -0.20561337947E+02  0.60134562730E+02 -0.25383452248E+03  0.27315579200E+03  0.78378489723E+02 0.  0.
         25    2    1    2    0    0  0.13129435196E+03  0.24841214044E+02  0.15112204632E+03  0.23736262270E+03  0.12509136262E+03 0.  0.
         24    2    1    2    0    0 -0.11073301401E+03 -0.84975776774E+02  0.75635554051E+03  0.77315353247E+03  0.78803541091E+02 0.  0.
        -11    1    5    5    0    0 -0.15327213229E+02 -0.41347953547E+02  0.37663306353E+03  0.37920580332E+03  0.00000000000E+00 0.  1.
         12    1    5    5    0    0 -0.95405800784E+02 -0.43627823227E+02  0.37972247698E+03  0.39394772916E+03  0.00000000000E+00 0. -1.
         11    1    3    3    0    0  0.27552111233E+02  0.23020032101E+02 -0.13491963065E+03  0.13961499721E+03  0.00000000000E+00 0. -1.
        -12    1    3    3    0    0 -0.48113449181E+02  0.37114530629E+02 -0.11891489183E+03  0.13354079479E+03  0.00000000000E+00 0.  1.
          5    1    4    4  501    0  0.93094965031E+02 -0.44803004076E+02  0.81577758867E+02  0.13170567501E+03  0.41800000000E+01 0. -1.
         -5    1    4    4    0  501  0.38199386930E+02  0.69644218120E+02  0.69544287448E+02  0.10565694769E+03  0.41800000000E+01 0. -1.
</event>
<event>
11    1  0.8551154E-009  0.1831070E+03  0.7561462E-02  0.1067157E+00
         22   -1    0    0    0    0  0.00000000000E+00  0.00000000000E+00  0.85809947267E+03  0.85809947267E+03  0.00000000000E+00 0.  1.
         22   -1    0    0    0    0 -0.00000000000E+00 -0.00000000000E+00 -0.75347794935E+03  0.75347794935E+03  0.00000000000E+00 0. -1.
         24    2    1    2    0    0  0.20920034260E+02 -0.13317933924E+03 -0.69916629416E+03  0.71721156946E+03  0.85933370945E+02 0.  0.
         25    2    1    2    0    0  0.73449553734E+02  0.11863940139E+03  0.18649215226E+03  0.26436855933E+03  0.12506505429E+03 0.  0.
        -24    2    1    2    0    0 -0.94369587993E+02  0.14539937858E+02  0.61729566522E+03  0.62999729322E+03  0.82009891088E+02 0.  0.
        -11    1    3    3    0    0  0.13529273163E+02  0.46787419375E+01 -0.22967775395E+02  0.27063823917E+02  0.00000000000E+00 0.  1.
         12    1    3    3    0    0  0.73907610971E+01 -0.13785808118E+03 -0.67619851876E+03  0.69014774554E+03  0.00000000000E+00 0. -1.
         11    1    5    5    0    0  0.13874717420E+02 -0.69122758933E+01  0.72709950599E+02  0.74343959119E+02  0.00000000000E+00 0. -1.
        -12    1    5    5    0    0 -0.10824430541E+03  0.21452213751E+02  0.54458571462E+03  0.55565333410E+03  0.00000000000E+00 0.  1.
          5    1    4    4  501    0  0.14096979075E+02  0.12458838819E+03  0.14416612825E+03  0.19110817938E+03  0.41800000000E+01 0. -1.
         -5    1    4    4    0  501  0.59352574658E+02 -0.59489868047E+01  0.42326024014E+02  0.73260379957E+02  0.41800000000E+01 0. -1.
</event>
<event>
11    1  0.8551154E-009  0.2175678E+03  0.7561462E-02  0.1042752E+00
         22   -1    0    0    0    0  0.00000000000E+00  0.00000000000E+00  0.11289272582E+03  0.11289272582E+03  0.00000000000E+00 0. -1.
         22   -1    0    0    0    0 -0.00000000000E+00 -0.00000000000E+00 -0.30547937189E+04  0.30547937189E+04  0.00000000000E+00 0. -1.
        -24    2    1    2    0    0  0.45335601375E+02 -0.43439523746E+02 -0.24039960323E+04  0.24061875608E+04  0.81236354199E+02 0.  0.
         25    2    1    2    0    0 -0.20781013701E+03  0.89019291987E+02 -0.51097908445E+03  0.57258693080E+03  0.12508669470E+03 0.  0.
         24    2    1    2    0    0  0.16247453564E+03 -0.45579768241E+02 -0.26925876326E+02  0.18891195316E+03  0.80543362406E+02 0.  0.
        -11    1    5    5    0    0  0.29244534675E+02  0.20294199992E+02  0.74383858487E+01  0.36365188652E+02  0.00000000000E+00 0.  1.
         12    1    5    5    0    0  0.13323000096E+03 -0.65873968233E+02 -0.34364262175E+02  0.15254676451E+03  0.00000000000E+00 0. -1.
         11    1    3    3    0    0  0.58712331932E+02 -0.54588841035E+02 -0.21963402887E+04  0.21978029355E+04  0.00000000000E+00 0. -1.
        -12    1    3    3    0    0 -0.13376730557E+02  0.11149317289E+02 -0.20765574363E+03  0.20838462530E+03  0.00000000000E+00 0.  1.
          5    1    4    4  501    0 -0.83070007784E+02  0.39031751850E+02 -0.35482607801E+03  0.36652847349E+03  0.41800000000E+01 0. -1.
         -5    1    4    4    0  501 -0.12474012923E+03  0.49987540137E+02 -0.15615300644E+03  0.20605845731E+03  0.41800000000E+01 0. -1.
</event>
<event>
11    1  0.8551154E-009  0.1667137E+03  0.7561462E-02  0.1080927E+00
         22   -1    0    0    0    0  0.00000000000E+00  0.00000000000E+00  0.43580988673E+03  0.43580988673E+03  0.00000000000E+00 0.  1.
         22   -1    0    0    0    0 -0.00000000000E+00 -0.00000000000E+00 -0.24309125922E+04  0.24309125922E+04  0.00000000000E+00 0.  1.
        -24    2    1    2    0    0  0.10298584241E+03 -0.36818633858E+02 -0.21212475341E+04  0.21256325670E+04  0.81615032607E+02 0.  0.
         25    2    1    2    0    0 -0.12961286325E+03 -0.71090898198E+01 -0.27534745579E+03  0.32910993723E+03  0.12508835233E+03 0.  0.
         24    2    1    2    0    0  0.26627020840E+02  0.43927723678E+02  0.40149228441E+03  0.41197997469E+03  0.76764587913E+02 0.  0.
        -11    1    5    5    0    0  0.33600635189E+02  0.30760331356E+02  0.39126421900E+03  0.39390720955E+03  0.00000000000E+00 0.  1.
         12    1    5    5    0    0 -0.69736143482E+01  0.13167392322E+02  0.10228065417E+02  0.18072765140E+02  0.00000000000E+00 0. -1.
         11    1    3    3    0    0  0.53970832840E+02  0.23317253779E+02 -0.95329212148E+03  0.95510335252E+03  0.00000000000E+00 0. -1.
        -12    1    3    3    0    0  0.49015009573E+02 -0.60135887637E+02 -0.11679554126E+04  0.11705292145E+04  0.00000000000E+00 0.  1.
          5    1    4    4  501    0 -0.69955712828E+02 -0.35408490480E+02 -0.24318316965E+03  0.25554469151E+03  0.41800000000E+01 0.  1.
         -5    1    4    4    0  501 -0.59657150425E+02  0.28299400661E+02 -0.32164286142E+02  0.73565245719E+02  0.41800000000E+01 0.  1.
</event>
<event>
11    1  0.8551154E-009  0.1315047E+03  0.7561462E-02  0.1117434E+00
         22   -1    0    0    0    0  0.00000000000E+00  0.00000000000E+00  0.37347993342E+03  0.37347993342E+03  0.00000000000E+00 0. -1.
         22   -1    0    0    0    0 -0.00000000000E+00 -0.00000000000E+00 -0.18564289913E+03  0.18564289913E+03  0.00000000000E+00 0.  1.
        -24    2    1    2    0    0  0.12289785783E+02 -0.35424278701E+02 -0.90546432956E+02  0.12664659800E+03  0.80217117295E+02 0.  0.
         25    2    1    2    0    0 -0.16752967505E+02  0.48755098686E+02 -0.70890445106E+01  0.13547938631E+03  0.12508672189E+03 0.  0.
         24    2    1    2    0    0  0.44631817227E+01 -0.13330819985E+02  0.28547251176E+03  0.29699684824E+03  0.80715191538E+02 0.  0.
        -13    1    5    5    0    0  0.36495150770E+02 -0.14643638385E+02  0.81162829588E+02  0.90187233473E+02  0.00000000000E+00 0.  1.
         14    1    5    5    0    0 -0.32031969047E+02  0.13128183994E+01  0.20430968217E+03  0.20680961477E+03  0.00000000000E+00 0. -1.
         11    1    3    3    0    0  0.37637325454E+01  0.25468695226E+02 -0.17321124011E+02  0.31029686692E+02  0.00000000000E+00 0. -1.
        -12    1    3    3    0    0  0.85260532372E+01 -0.60892973927E+02 -0.73225308944E+02  0.95616911305E+02  0.00000000000E+00 0.  1.
          5    1    4    4  501    0 -0.67036356723E+02  0.54887008054E+01  0.62755403928E+01  0.67682004746E+02  0.41800000000E+01 0. -1.
         -5    1    4    4    0  501  0.50283389217E+02  0.43266397880E+02 -0.13364584903E+02  0.67797381560E+02  0.41800000000E+01 0. -1.
</event>
<event>
11    1  0.8551154E-009  0.2681332E+03  0.7561462E-02  0.1014660E+00
         22   -1    0    0    0    0  0.00000000000E+00  0.00000000000E+00  0.41846589022E+04  0.41846589022E+04  0.00000000000E+00 0.  1.
         22   -1    0    0    0    0 -0.00000000000E+00 -0.00000000000E+00 -0.14636093577E+04  0.14636093577E+04  0.00000000000E+00 0.  1.
        -24    2    1    2    0    0 -0.67024498699E+02  0.53675865310E+02 -0.12962126954E+04  0.13015187978E+04  0.80065268903E+02 0.  0.
         25    2    1    2    0    0 -0.16736640676E+03 -0.72567923936E+01 -0.92981092282E+02  0.22881616246E+03  0.12508867868E+03 0.  0.
         24    2    1    2    0    0  0.23439090546E+03 -0.46419072917E+02  0.41102433322E+04  0.41179332996E+04  0.78616687046E+02 0.  0.
        -13    1    5    5    0    0  0.19703738529E+03 -0.42236987257E+02  0.38132673715E+04  0.38185881868E+04  0.00000000000E+00 0.  1.
         14    1    5    5    0    0  0.37353520169E+02 -0.41820856599E+01  0.29697596072E+03  0.29934511280E+03  0.00000000000E+00 0. -1.
         13    1    3    3    0    0 -0.63358000722E+02  0.62636294447E+02 -0.75782838881E+03  0.76304744841E+03  0.00000000000E+00 0. -1.
        -14    1    3    3    0    0 -0.36664979772E+01 -0.89604291364E+01 -0.53838430661E+03  0.53847134937E+03  0.00000000000E+00 0.  1.
          5    1    4    4  501    0 -0.13361418718E+03  0.34512793150E+02 -0.10520945785E+03  0.17358106558E+03  0.41800000000E+01 0. -1.
         -5    1    4    4    0  501 -0.33752219578E+02 -0.41769585544E+02  0.12228365565E+02  0.55235096880E+02  0.41800000000E+01 0. -1.
</event>
<event>
11    1  0.8551154E-009  0.1882633E+03  0.7561462E-02  0.1063148E+00
         22   -1    0    0    0    0  0.00000000000E+00  0.00000000000E+00  0.77979311831E+03  0.77979311831E+03  0.00000000000E+00 0.  1.
         22   -1    0    0    0    0 -0.00000000000E+00 -0.00000000000E+00 -0.47296942848E+03  0.47296942848E+03  0.00000000000E+00 0. -1.
        -24    2    1    2    0    0 -0.42905239503E+01 -0.13897279957E+03 -0.33285100422E+03  0.36963424456E+03  0.80671160429E+02 0.  0.
         25    2    1    2    0    0  0.87767419595E+02  0.14241789559E+03 -0.23197773680E+02  0.21017025441E+03  0.12508965667E+03 0.  0.
         24    2    1    2    0    0 -0.83476895645E+02 -0.34450960283E+01  0.66287246774E+03  0.67295804783E+03  0.80575212429E+02 0.  0.
        -13    1    5    5    0    0 -0.21837044623E+02 -0.30851637048E+02  0.39175907867E+03  0.39357827144E+03  0.00000000000E+00 0.  1.
         14    1    5    5    0    0 -0.61639851022E+02  0.27406541019E+02  0.27111338906E+03  0.27937977639E+03  0.00000000000E+00 0. -1.
         11    1    3    3    0    0 -0.32816754610E+02 -0.47852373099E+02 -0.76053528441E+02  0.95660483914E+02  0.00000000000E+00 0. -1.
        -12    1    3    3    0    0  0.28526230659E+02 -0.91120426467E+02 -0.25679747578E+03  0.27397376064E+03  0.00000000000E+00 0.  1.
          5    1    4    4  501    0  0.48454573383E+02  0.15045236618E+03 -0.44888636005E+02  0.16436612246E+03  0.41800000000E+01 0. -1.
         -5    1    4    4    0  501  0.39312846213E+02 -0.80344705860E+01  0.21690862325E+02  0.45804131946E+02  0.41800000000E+01 0. -1.
</event>
<event>
11    1  0.8551154E-009  0.1367544E+03  0.7561462E-02  0.1111238E+00
         22   -1    0    0    0    0  0.00000000000E+00  0.00000000000E+00  0.91419502651E+03  0.91419502651E+03  0.00000000000E+00 0. -1.
         22   -1    0    0    0    0 -0.00000000000E+00 -0.00000000000E+00 -0.10307767457E+03  0.10307767457E+03  0.00000000000E+00 0.  1.
         24    2    1    2    0    0 -0.13475239554E+02 -0.55570850508E+02 -0.47322219517E+02  0.11937287515E+03  0.93492188730E+02 0.  0.
         25    2    1    2    0    0  0.16285048362E+02  0.38655937334E+02  0.24319172842E+03  0.27667494325E+03  0.12508926078E+03 0.  0.
        -24    2    1    2    0    0 -0.28098088072E+01  0.16914913175E+02  0.61524784304E+03  0.62122488269E+03  0.84240353720E+02 0.  0.
        -11    1    3    3    0    0 -0.24661706948E+02 -0.71306153451E+02 -0.59894865954E+02  0.96333598901E+02  0.00000000000E+00 0.  1.
         12    1    3    3    0    0  0.11186467393E+02  0.15735302943E+02  0.12572646437E+02  0.23039276245E+02  0.00000000000E+00 0. -1.
         11    1    5    5    0    0  0.75257827082E+00 -0.20267609778E+02  0.49254943481E+03  0.49296682252E+03  0.00000000000E+00 0. -1.
        -12    1    5    5    0    0 -0.35623870780E+01  0.37182522952E+02  0.12269840823E+03  0.12825806016E+03  0.00000000000E+00 0.  1.
          5    1    4    4  501    0 -0.39056911508E+02 -0.78799416081E+00  0.21548834345E+02  0.44809462538E+02  0.41800000000E+01 0.  1.
         -5    1    4    4    0  501  0.55341959869E+02  0.39443931494E+02  0.22164289407E+03  0.23186548071E+03  0.41800000000E+01 0.  1.
</event>
<event>
11    1  0.8551154E-009  0.1388316E+03  0.7561462E-02  0.1108870E+00
         22   -1    0    0    0    0  0.00000000000E+00  0.00000000000E+00  0.56395668079E+03  0.56395668079E+03  0.00000000000E+00 0. -1.
         22   -1    0    0    0    0 -0.00000000000E+00 -0.00000000000E+00 -0.34709627382E+03  0.34709627382E+03  0.00000000000E+00 0. -1.
        -24    2    1    2    0    0  0.46334183267E+02  0.27788354282E+02 -0.28103627183E+03  0.29562071914E+03  0.74102458297E+02 0.  0.
         25    2    1    2    0    0  0.17951112725E+02 -0.16060378047E+02  0.23928905466E+02  0.12959382366E+03  0.12506713566E+03 0.  0.
         24    2    1    2    0    0 -0.64285295992E+02 -0.11727976235E+02  0.47396777333E+03  0.48583841181E+03  0.84400044602E+02 0.  0.
        -11    1    5    5    0    0 -0.59713374497E+02  0.28092975954E+02  0.26786125728E+03  0.27587054127E+03  0.00000000000E+00 0.  1.
         12    1    5    5    0    0 -0.45719214959E+01 -0.39820952189E+02  0.20610651605E+03  0.20996787054E+03  0.00000000000E+00 0. -1.
         11    1    3    3    0    0 -0.13130136631E+02 -0.10475163343E+02 -0.97457207508E+02  0.98894068732E+02  0.00000000000E+00 0. -1.
        -12    1    3    3    0    0  0.59464319898E+02  0.38263517626E+02 -0.18357906432E+03  0.19672665041E+03  0.00000000000E+00 0.  1.
          5    1    4    4  501    0 -0.13947776401E+01 -0.43098844586E+02 -0.39005079272E+02  0.58295149184E+02  0.41800000000E+01 0.  1.
         -5    1    4    4    0  501  0.19345890366E+02  0.27038466539E+02  0.62933984738E+02  0.71298674475E+02  0.41800000000E+01 0.  1.
</event>
<event>
11    1  0.8551154E-009  0.1370709E+03  0.7561462E-02  0.1110874E+00
         22   -1    0    0    0    0  0.00000000000E+00  0.00000000000E+00  0.32070018645E+03  0.32070018645E+03  0.00000000000E+00 0. -1.
         22   -1    0    0    0    0 -0.00000000000E+00 -0.00000000000E+00 -0.26287041803E+03  0.26287041803E+03  0.00000000000E+00 0. -1.
        -24    2    1    2    0    0 -0.51321044036E+02 -0.42619691679E+01 -0.13833897464E+03  0.16860607169E+03  0.81475895607E+02 0.  0.
         25    2    1    2    0    0  0.68994454986E+02  0.23565037027E+02 -0.51214811718E+02  0.15358305991E+03  0.12509697663E+03 0.  0.
         24    2    1    2    0    0 -0.17673410950E+02 -0.19303067859E+02  0.24738355478E+03  0.26138147288E+03  0.80229005388E+02 0.  0.
        -11    1    5    5    0    0  0.22914640820E+02  0.99869047350E+01  0.33962083383E+02  0.42169208408E+02  0.00000000000E+00 0.  1.
         12    1    5    5    0    0 -0.40588051770E+02 -0.29289972594E+02  0.21342147140E+03  0.21921226447E+03  0.00000000000E+00 0. -1.
         13    1    3    3    0    0 -0.28926941025E+02 -0.42415858776E+02 -0.63377697075E+02  0.81563505805E+02  0.00000000000E+00 0. -1.
        -14    1    3    3    0    0 -0.22394103011E+02  0.38153889608E+02 -0.74961277568E+02  0.87042565888E+02  0.00000000000E+00 0.  1.
          5    1    4    4  501    0  0.47226221701E+02  0.31554406550E+02  0.33213393125E+02  0.65928737829E+02  0.41800000000E+01 0. -1.
         -5    1    4    4    0  501  0.21768233285E+02 -0.79893695235E+01 -0.84428204843E+02  0.87654322077E+02  0.41800000000E+01 0. -1.
</event>
<event>
11    1  0.8551154E-009  0.2099484E+03  0.7561462E-02  0.1047703E+00
         22   -1    0    0    0    0  0.00000000000E+00  0.00000000000E+00  0.54020910435E+03  0.54020910435E+03  0.00000000000E+00 0.  1.
         22   -1    0    0    0    0 -0.00000000000E+00 -0.00000000000E+00 -0.95185383207E+03  0.95185383207E+03  0.00000000000E+00 0. -1.
         24    2    1    2    0    0 -0.67773751672E+02 -0.13857905680E+02 -0.84270204335E+03  0.84926312020E+03  0.79471947823E+02 0.  0.
         25    2    1    2    0    0  0.21765114380E+03  0.49830134571E+02  0.11195447513E+03  0.27934999513E+03  0.12509017774E+03 0.  0.
        -24    2    1    2    0    0 -0.14987739213E+03 -0.35972228891E+02  0.31910284050E+03  0.36344982110E+03  0.80696441805E+02 0.  0.
        -13    1    3    3    0    0 -0.24705505632E+02  0.22610041614E+02 -0.12706215926E+03  0.13140155366E+03  0.00000000000E+00 0.  1.
         14    1    3    3    0    0 -0.43068246040E+02 -0.36467947294E+02 -0.71563988410E+03  0.71786156653E+03  0.00000000000E+00 0. -1.
         13    1    5    5    0    0 -0.32483606850E+02  0.22475347941E+02  0.47001985679E+02  0.61396356869E+02  0.00000000000E+00 0. -1.
        -14    1    5    5    0    0 -0.11739378528E+03 -0.58447576832E+02  0.27210085482E+03  0.30205346423E+03  0.00000000000E+00 0.  1.
          5    1    4    4  501    0  0.94156248742E+01  0.10071133080E+02  0.59090092621E+02  0.60820992751E+02  0.41800000000E+01 0.  1.
         -5    1    4    4    0  501  0.20823551893E+03  0.39759001491E+02  0.52864382513E+02  0.21852900238E+03  0.41800000000E+01 0.  1.
</event>
<event>
11    1  0.8551154E-009  0.1618993E+03  0.7561462E-02  0.1085304E+00
         22   -1    0    0    0    0  0.00000000000E+00  0.00000000000E+00  0.17053194872E+04  0.17053194872E+04  0.00000000000E+00 0. -1.
         22   -1    0    0    0    0 -0.00000000000E+00 -0.00000000000E+00 -0.10630701562E+04  0.10630701562E+04  0.00000000000E+00 0.  1.
        -24    2    1    2    0    0  0.85093721055E+02  0.15299046702E+02 -0.10047213330E+04  0.10116426608E+04  0.80504124415E+02 0.  0.
         25    2    1    2    0    0 -0.15422619413E+03 -0.86455214402E+02  0.17283089456E+03  0.27709269711E+03  0.12509844773E+03 0.  0.
         24    2    1    2    0    0  0.69132473077E+02  0.71156167700E+02  0.14741397694E+04  0.14796542855E+04  0.80288516069E+02 0.  0.
        -11    1    5    5    0    0  0.32989993953E+02  0.45595559463E+02  0.33806839325E+03  0.34272078031E+03  0.00000000000E+00 0.  1.
         12    1    5    5    0    0  0.36142479124E+02  0.25560608237E+02  0.11360713762E+04  0.11369335052E+04  0.00000000000E+00 0. -1.
         11    1    3    3    0    0  0.87123497878E+01 -0.27308605508E+02 -0.17601975498E+03  0.17833849589E+03  0.00000000000E+00 0. -1.
        -12    1    3    3    0    0  0.76381371267E+02  0.42607652209E+02 -0.82870157802E+03  0.83330416495E+03  0.00000000000E+00 0.  1.
          5    1    4    4  501    0 -0.45140581924E+02 -0.29280622626E+02  0.13928777268E+03  0.14937731761E+03  0.41800000000E+01 0.  1.
         -5    1    4    4    0  501 -0.10908561221E+03 -0.57174591776E+02  0.33543121880E+02  0.12771537950E+03  0.41800000000E+01 0.  1.
</event>
<event>
11    1  0.8551154E-009  0.1648725E+03  0.7561462E-02  0.1082582E+00
         22   -1    0    0    0    0  0.00000000000E+00  0.00000000000E+00  0.65818374292E+03  0.65818374292E+03  0.00000000000E+00 0.  1.
         22   -1    0    0    0    0 -0.00000000000E+00 -0.00000000000E+00 -0.27720433790E+03  0.27720433790E+03  0.00000000000E+00 0. -1.
         24    2    1    2    0    0 -0.69872450597E+02 -0.64021470224E+02 -0.20554848980E+03  0.24090687274E+03  0.82492615872E+02 0.  0.
         25    2    1    2    0    0  0.24272802653E+02  0.15428570845E+03  0.18515546836E+03  0.27262528257E+03  0.12509495775E+03 0.  0.
        -24    2    1    2    0    0  0.45599647945E+02 -0.90264238226E+02  0.40137242646E+03  0.42185592550E+03  0.81459416658E+02 0.  0.
        -11    1    3    3    0    0 -0.19003579023E+02 -0.25302581887E+02 -0.15825213748E+03  0.16138493016E+03  0.00000000000E+00 0.  1.
         12    1    3    3    0    0 -0.50868871575E+02 -0.38718888337E+02 -0.47296352320E+02  0.79521942582E+02  0.00000000000E+00 0. -1.
         13    1    5    5    0    0  0.40864598493E+02 -0.41604705549E+02  0.94004781884E+02  0.11062443650E+03  0.00000000000E+00 0. -1.
        -14    1    5    5    0    0  0.47350494519E+01 -0.48659532678E+02  0.30736764458E+03  0.31123148900E+03  0.00000000000E+00 0.  1.
          5    1    4    4  501    0  0.47182105965E+02  0.14031614625E+03  0.89161695926E+02  0.17286426016E+03  0.41800000000E+01 0. -1.
         -5    1    4    4    0  501 -0.22909303312E+02  0.13969562203E+02  0.95993772435E+02  0.99761022412E+02  0.41800000000E+01 0. -1.
</event>
<event>
11    1  0.8551154E-009  0.1338666E+03  0.7561462E-02  0.1114607E+00
         22   -1    0    0    0    0  0.00000000000E+00  0.00000000000E+00  0.25567765243E+04  0.25567765243E+04  0.00000000000E+00 0.  1.
         22   -1    0    0    0    0 -0.00000000000E+00 -0.00000000000E+00 -0.62420887338E+03  0.62420887338E+03  0.00000000000E+00 0. -1.
         24    2    1    2    0    0  0.14237433680E+02 -0.51863477813E+02 -0.44197015254E+03  0.45302433273E+03  0.83671413669E+02 0.  0.
         25    2    1    2    0    0  0.21328229148E+00  0.23038176804E+02 -0.15300953892E+03  0.19897438894E+03  0.12509230741E+03 0.  0.
        -24    2    1    2    0    0 -0.14450715971E+02  0.28825301009E+02  0.25275473424E+04  0.25289866761E+04  0.78983025818E+02 0.  0.
        -13    1    3    3    0    0 -0.10352139367E+02 -0.41034486978E+02 -0.84107851620E+02  0.94154801338E+02  0.00000000000E+00 0.  1.
         14    1    3    3    0    0  0.24589573047E+02 -0.10828990836E+02 -0.35786230092E+03  0.35886953140E+03  0.00000000000E+00 0. -1.
         11    1    5    5    0    0 -0.17199109633E+02  0.17220638054E+01  0.11556737788E+03  0.11685287205E+03  0.00000000000E+00 0. -1.
        -12    1    5    5    0    0  0.27483936618E+01  0.27103237204E+02  0.24119799645E+04  0.24121338040E+04  0.00000000000E+00 0.  1.
          5    1    4    4  501    0 -0.28555490317E+02  0.44277286233E+02 -0.15414436871E+03  0.16295352991E+03  0.41800000000E+01 0.  1.
         -5    1    4    4    0  501  0.28768772608E+02 -0.21239109429E+02  0.11348297941E+01  0.36020859032E+02  0.41800000000E+01 0.  1.
</event>
<event>
11    1  0.8551154E-009  0.1354138E+03  0.7561462E-02  0.1112791E+00
         22   -1    0    0    0    0  0.00000000000E+00  0.00000000000E+00  0.38332645497E+03  0.38332645497E+03  0.00000000000E+00 0. -1.
         22   -1    0    0    0    0 -0.00000000000E+00 -0.00000000000E+00 -0.77390691049E+03  0.77390691049E+03  0.00000000000E+00 0. -1.
         24    2    1    2    0    0  0.46676527264E+02 -0.48673592699E+01 -0.54061304942E+03  0.54837594703E+03  0.79065293897E+02 0.  0.
         25    2    1    2    0    0 -0.37034554748E+02 -0.46452375353E+02 -0.20154951570E+03  0.24453825766E+03  0.12508945104E+03 0.  0.
        -24    2    1    2    0    0 -0.96419725164E+01  0.51319734623E+02  0.35158210960E+03  0.36431916077E+03  0.79948660527E+02 0.  0.
        -13    1    3    3    0    0  0.31564428021E+02 -0.39423857440E+02 -0.22987531842E+03  0.23535763355E+03  0.00000000000E+00 0.  1.
         14    1    3    3    0    0  0.15112099243E+02  0.34556498170E+02 -0.31073773100E+03  0.31301831348E+03  0.00000000000E+00 0. -1.
         13    1    5    5    0    0 -0.32958017187E+02  0.45464730388E+02  0.31857116322E+03  0.32348239309E+03  0.00000000000E+00 0. -1.
        -14    1    5    5    0    0  0.23316044670E+02  0.58550042348E+01  0.33010946381E+02  0.40836767681E+02  0.00000000000E+00 0.  1.
          5    1    4    4  501    0 -0.78645712964E+02 -0.43569736142E+02 -0.99251139161E+02  0.13398407032E+03  0.41800000000E+01 0. -1.
         -5    1    4    4    0  501  0.41611158216E+02 -0.28826392104E+01 -0.10229837654E+03  0.11055418734E+03  0.41800000000E+01 0. -1.
</event>
<event>
11    1  0.8551154E-009  0.1445130E+03  0.7561462E-02  0.1102621E+00
         22   -1    0    0    0    0  0.00000000000E+00  0.00000000000E+00  0.49364381194E+03  0.49364381194E+03  0.00000000000E+00 0. -1.
         22   -1    0    0    0    0 -0.00000000000E+00 -0.00000000000E+00 -0.24527327991E+03  0.24527327991E+03  0.00000000000E+00 0. -1.
        -24    2    1    2    0    0 -0.16725714490E+02 -0.71448489520E+02 -0.20557476188E+03  0.23218355140E+03  0.79142799043E+02 0.  0.
         25    2    1    2    0    0  0.17641999352E+02  0.51487494583E+02  0.21842309503E+03  0.25752381442E+03  0.12509062439E+03 0.  0.
         24    2    1    2    0    0 -0.91628486147E+00  0.19960994937E+02  0.23552219887E+03  0.24920972603E+03  0.78965185301E+02 0.  0.
        -11    1    5    5    0    0  0.24471452458E+02 -0.14990749458E+02  0.41628048513E+02  0.50561536544E+02  0.00000000000E+00 0.  1.
         12    1    5    5    0    0 -0.25387737320E+02  0.34951744395E+02  0.19389415036E+03  0.19864818949E+03  0.00000000000E+00 0. -1.
         13    1    3    3    0    0 -0.90014125424E+01 -0.36026308422E+02 -0.18847572080E+03  0.19209897881E+03  0.00000000000E+00 0. -1.
        -14    1    3    3    0    0 -0.77243019480E+01 -0.35422181098E+02 -0.17099041071E+02  0.40084572592E+02  0.00000000000E+00 0.  1.
          5    1    4    4  501    0  0.33051848155E+02  0.88802935128E+02  0.16649690376E+03  0.19161700685E+03  0.41800000000E+01 0.  1.
         -5    1    4    4    0  501 -0.15409848803E+02 -0.37315440546E+02  0.51926191273E+02  0.65906807565E+02  0.41800000000E+01 0.  1.
</event>
<event>
11    1  0.8551154E-009  0.1334969E+03  0.7561462E-02  0.1115046E+00
         22   -1    0    0    0    0  0.00000000000E+00  0.00000000000E+00  0.35163449098E+03  0.35163449098E+03  0.00000000000E+00 0.  1.
         22   -1    0    0    0    0 -0.00000000000E+00 -0.00000000000E+00 -0.20173492885E+03  0.20173492885E+03  0.00000000000E+00 0.  1.
         24    2    1    2    0    0  0.13819404619E+02 -0.14346483840E+02 -0.14217982269E+03  0.16376369239E+03  0.78782278604E+02 0.  0.
         25    2    1    2    0    0  0.35589263728E+02  0.10117719832E+02  0.70667007249E+02  0.14836130192E+03  0.12509310951E+03 0.  0.
        -24    2    1    2    0    0 -0.49408668346E+02  0.42287640079E+01  0.22141237758E+03  0.24124442552E+03  0.81953236333E+02 0.  0.
        -13    1    3    3    0    0  0.22895072144E+02  0.26840603913E+02 -0.90020572936E+02  0.96686637643E+02  0.00000000000E+00 0.  1.
         14    1    3    3    0    0 -0.90756675253E+01 -0.41187087753E+02 -0.52159249758E+02  0.67077054749E+02  0.00000000000E+00 0. -1.
         11    1    5    5    0    0  0.21265731368E+02  0.99620563996E+01  0.38855201749E+02  0.45400447148E+02  0.00000000000E+00 0. -1.
        -12    1    5    5    0    0 -0.70674399714E+02 -0.57332923916E+01  0.18255717583E+03  0.19584397837E+03  0.00000000000E+00 0.  1.
          5    1    4    4  501    0  0.50172772232E+02  0.10211376953E+02 -0.20962737879E+02  0.55484124506E+02  0.41800000000E+01 0.  1.
         -5    1    4    4    0  501 -0.14583508505E+02 -0.93657120991E-01  0.91629745128E+02  0.92877177413E+02  0.41800000000E+01 0.  1.
</event>
<event>
11    1  0.8551154E-009  0.1336936E+03  0.7561462E-02  0.1114812E+00
         22   -1    0    0    0    0  0.00000000000E+00  0.00000000000E+00  0.29042681843E+03  0.29042681843E+03  0.00000000000E+00 0.  1.
         22   -1    0    0    0    0 -0.00000000000E+00 -0.00000000000E+00 -0.19704732445E+03  0.19704732445E+03  0.00000000000E+00 0.  1.
         24    2    1    2    0    0  0.17862063364E+02  0.41212522340E+02 -0.80424958910E+02  0.12196958088E+03  0.79942975542E+02 0.  0.
         25    2    1    2    0    0 -0.19205890616E+02 -0.83697307385E+02 -0.17631174306E+02  0.15274964105E+03  0.12508992380E+03 0.  0.
        -24    2    1    2    0    0  0.13438272515E+01  0.42484785045E+02  0.19143562720E+03  0.21275492095E+03  0.82524506642E+02 0.  0.
        -11    1    3    3    0    0 -0.28005612135E+02  0.35590717850E+02 -0.43817255178E+02  0.63015596161E+02  0.00000000000E+00 0.  1.
         12    1    3    3    0    0  0.45867675500E+02  0.56218044901E+01 -0.36607703732E+02  0.58953984717E+02  0.00000000000E+00 0. -1.
         13    1    5    5    0    0  0.12390347265E+02 -0.11690124016E+02  0.42254053939E+01  0.17550890450E+02  0.00000000000E+00 0. -1.
        -14    1    5    5    0    0 -0.11046520013E+02  0.54174909061E+02  0.18721022180E+03  0.19520403050E+03  0.00000000000E+00 0.  1.
          5    1    4    4  501    0 -0.11848837434E+02 -0.94256921974E+02 -0.57174158510E+02  0.11095548247E+03  0.41800000000E+01 0. -1.
         -5    1    4    4    0  501 -0.73570531814E+01  0.10559614589E+02  0.39542984205E+02  0.41794158582E+02  0.41800000000E+01 0. -1.
</event>
<event>
11    1  0.8551154E-009  0.2021256E+03  0.7561462E-02  0.1053031E+00
         22   -1    0    0    0    0  0.00000000000E+00  0.00000000000E+00  0.17817836640E+04  0.17817836640E+04  0.00000000000E+00 0. -1.
         22   -1    0    0    0    0 -0.00000000000E+00 -0.00000000000E+00 -0.12702482420E+03  0.12702482420E+03  0.00000000000E+00 0.  1.
         24    2    1    2    0    0 -0.56661371891E+02  0.11183888204E+02 -0.80708795023E+02  0.12771039983E+03  0.80376900975E+02 0.  0.
         25    2    1    2    0    0 -0.66338361819E+01  0.14491472942E+03  0.58598978379E+03  0.61650373517E+03  0.12509413331E+03 0.  0.
        -24    2    1    2    0    0  0.63295208073E+02 -0.15609861762E+03  0.11494778511E+04  0.11645943532E+04  0.81287241994E+02 0.  0.
        -13    1    3    3    0    0  0.67645151431E+01  0.28049146628E+02 -0.43696905391E+02  0.52363468491E+02  0.00000000000E+00 0.  1.
         14    1    3    3    0    0 -0.63425887034E+02 -0.16865258424E+02 -0.37011889631E+02  0.75346931336E+02  0.00000000000E+00 0. -1.
         13    1    5    5    0    0  0.50697488558E+02 -0.13741690318E+03  0.11056892378E+04  0.11153485245E+04  0.00000000000E+00 0. -1.
        -14    1    5    5    0    0  0.12597719515E+02 -0.18681714441E+02  0.43788613266E+02  0.49245828688E+02  0.00000000000E+00 0.  1.
          5    1    4    4  501    0  0.20821081022E+02  0.12323459522E+03  0.55703927903E+03  0.57090324369E+03  0.41800000000E+01 0. -1.
         -5    1    4    4    0  501 -0.27454917204E+02  0.21680134199E+02  0.28950504761E+02  0.45600491483E+02  0.41800000000E+01 0. -1.
</event>
<event>
11    1  0.8551154E-009  0.1297688E+03  0.7561462E-02  0.1119553E+00
         22   -1    0    0    0    0  0.00000000000E+00  0.00000000000E+00  0.25626130603E+03  0.25626130603E+03  0.00000000000E+00 0.  1.
         22   -1    0    0    0    0 -0.00000000000E+00 -0.00000000000E+00 -0.29444166578E+03  0.29444166578E+03  0.00000000000E+00 0.  1.
        -24    2    1    2    0    0  0.12159977410E+02  0.21047975425E+01 -0.23947122656E+03  0.25307656817E+03  0.80925804177E+02 0.  0.
         25    2    1    2    0    0 -0.42544737629E+02  0.88081771609E+00  0.10418715801E+03  0.16826556562E+03  0.12508999217E+03 0.  0.
         24    2    1    2    0    0  0.30384760219E+02 -0.29856152586E+01  0.97103708805E+02  0.12936083802E+03  0.79830749700E+02 0.  0.
        -13    1    5    5    0    0  0.38258916190E+02 -0.28560309988E+02  0.89669907462E+02  0.10158803216E+03  0.00000000000E+00 0.  1.
         14    1    5    5    0    0 -0.78741559703E+01  0.25574694730E+02  0.74338013438E+01  0.27772805857E+02  0.00000000000E+00 0. -1.
         11    1    3    3    0    0  0.45517619954E+02 -0.82071647819E+01 -0.11988600106E+03  0.12849850010E+03  0.00000000000E+00 0. -1.
        -12    1    3    3    0    0 -0.33357642545E+02  0.10311962324E+02 -0.11958522551E+03  0.12457806806E+03  0.00000000000E+00 0.  1.
          5    1    4    4  501    0 -0.23774238549E+02  0.25049388345E+02  0.12583098644E+03  0.13055112341E+03  0.41800000000E+01 0. -1.
         -5    1    4    4    0  501 -0.18770499080E+02 -0.24168570629E+02 -0.21643828432E+02  0.37714442210E+02  0.41800000000E+01 0. -1.
</event>
<event>
11    1  0.8551154E-009  0.1679268E+03  0.7561462E-02  0.1079850E+00
         22   -1    0    0    0    0  0.00000000000E+00  0.00000000000E+00  0.25738290587E+04  0.25738290587E+04  0.00000000000E+00 0. -1.
         22   -1    0    0    0    0 -0.00000000000E+00 -0.00000000000E+00 -0.87182892065E+03  0.87182892065E+03  0.00000000000E+00 0. -1.
        -24    2    1    2    0    0 -0.66304390779E+01 -0.59889847121E+02 -0.77630990779E+03  0.78275932434E+03  0.80151920810E+02 0.  0.
         25    2    1    2    0    0  0.11816357600E+03  0.49680216833E+02 -0.17926251540E+01  0.17911712159E+03  0.12509586366E+03 0.  0.
         24    2    1    2    0    0 -0.11153313692E+03  0.10209630287E+02  0.24801026709E+04  0.24837815334E+04  0.75614614448E+02 0.  0.
        -11    1    5    5    0    0 -0.55761075315E+01 -0.20237117601E+02  0.66703081099E+03  0.66736102427E+03  0.00000000000E+00 0.  1.
         12    1    5    5    0    0 -0.10595702939E+03  0.30446747889E+02  0.18130718600E+04  0.18164205091E+04  0.00000000000E+00 0. -1.
         11    1    3    3    0    0 -0.12181183345E+02 -0.74513847396E+02 -0.72967761176E+03  0.73357352173E+03  0.00000000000E+00 0. -1.
        -12    1    3    3    0    0  0.55507442669E+01  0.14624000275E+02 -0.46632296026E+02  0.49185802612E+02  0.00000000000E+00 0.  1.
          5    1    4    4  501    0  0.12040662057E+02  0.58535380074E+02 -0.32569972253E+02  0.68188296325E+02  0.41800000000E+01 0.  1.
         -5    1    4    4    0  501  0.10612291394E+03 -0.88551632406E+01  0.30777347099E+02  0.11092882526E+03  0.41800000000E+01 0.  1.
</event>
<event>
11    1  0.8551154E-009  0.2055824E+03  0.7561462E-02  0.1050645E+00
         22   -1    0    0    0    0  0.00000000000E+00  0.00000000000E+00  0.90552282764E+03  0.90552282764E+03  0.00000000000E+00 0.  1.
         22   -1    0    0    0    0 -0.00000000000E+00 -0.00000000000E+00 -0.99835352540E+03  0.99835352540E+03  0.00000000000E+00 0. -1.
        -24    2    1    2    0    0 -0.15460079867E+03 -0.66056160721E+02 -0.88250900324E+03  0.90205743093E+03  0.81367343395E+02 0.  0.
         25    2    1    2    0    0  0.10805047049E+03  0.63915637689E+02 -0.27553579872E+02  0.17934543498E+03  0.12508186267E+03 0.  0.
         24    2    1    2    0    0  0.46550328177E+02  0.21405230328E+01  0.81723188536E+03  0.82247348713E+03  0.80144667321E+02 0.  0.
        -11    1    5    5    0    0  0.10047985520E+02 -0.60565528411E+01  0.68367825269E+03  0.68377890948E+03  0.00000000000E+00 0.  1.
         12    1    5    5    0    0  0.36502342657E+02  0.81970758739E+01  0.13355363266E+03  0.13869457765E+03  0.00000000000E+00 0. -1.
         11    1    3    3    0    0 -0.11270641776E+03 -0.52086012138E+01 -0.54569526280E+03  0.55723710032E+03  0.00000000000E+00 0. -1.
        -12    1    3    3    0    0 -0.41894380903E+02 -0.60847559508E+02 -0.33681374044E+03  0.34482033060E+03  0.00000000000E+00 0.  1.
          5    1    4    4  501    0  0.13173413318E+03  0.36234642700E+02 -0.36742246780E+02  0.14154255994E+03  0.41800000000E+01 0.  1.
         -5    1    4    4    0  501 -0.23683662686E+02  0.27680994988E+02  0.91886669077E+01  0.37802875040E+02  0.41800000000E+01 0.  1.
</event>
<event>
11    1  0.8551154E-009  0.1290605E+03  0.7561462E-02  0.1120429E+00
         22   -1    0    0    0    0  0.00000000000E+00  0.00000000000E+00  0.51247944544E+03  0.51247944544E+03  0.00000000000E+00 0.  1.
         22   -1    0    0    0    0 -0.00000000000E+00 -0.00000000000E+00 -0.23472478638E+03  0.23472478638E+03  0.00000000000E+00 0.  1.
        -24    2    1    2    0    0  0.22427861627E+02  0.23193380810E+02 -0.20403104055E+03  0.22145883496E+03  0.79839890930E+02 0.  0.
         25    2    1    2    0    0 -0.52885185279E+01 -0.16310276986E+02  0.26355518651E+03  0.29223922165E+03  0.12509369597E+03 0.  0.
         24    2    1    2    0    0 -0.17139343099E+02 -0.68831038248E+01  0.21823051309E+03  0.23350617521E+03  0.80990387167E+02 0.  0.
        -13    1    5    5    0    0 -0.54990114246E+01  0.77503738189E+01  0.21415866798E+03  0.21436940662E+03  0.00000000000E+00 0.  1.
         14    1    5    5    0    0 -0.11640331674E+02 -0.14633477644E+02  0.40718451127E+01  0.19136768590E+02  0.00000000000E+00 0. -1.
         11    1    3    3    0    0  0.27878393083E+02  0.50796126692E+02 -0.13443148637E+03  0.14638741686E+03  0.00000000000E+00 0. -1.
        -12    1    3    3    0    0 -0.54505314557E+01 -0.27602745882E+02 -0.69599554183E+02  0.75071418102E+02  0.00000000000E+00 0.  1.
          5    1    4    4  501    0  0.18449261611E+02  0.26979946426E+01 -0.66980781035E+01  0.20248236451E+02  0.41800000000E+01 0. -1.
         -5    1    4    4    0  501 -0.23737780139E+02 -0.19008271628E+02  0.27025326461E+03  0.27199098520E+03  0.41800000000E+01 0. -1.
</event>
<event>
11    1  0.8551154E-009  0.1477211E+03  0.7561462E-02  0.1099230E+00
         22   -1    0    0    0    0  0.00000000000E+00  0.00000000000E+00  0.35342585912E+04  0.35342585912E+04  0.00000000000E+00 0.  1.
         22   -1    0    0    0    0 -0.00000000000E+00 -0.00000000000E+00 -0.15169117081E+03  0.15169117081E+03  0.00000000000E+00 0. -1.
        -24    2    1    2    0    0  0.76737357236E+02 -0.39083386418E+01 -0.11176737105E+03  0.15758016632E+03  0.80222605790E+02 0.  0.
         25    2    1    2    0    0 -0.11207432779E+03 -0.10935383198E+02  0.41605508462E+03  0.44880839823E+03  0.12508759862E+03 0.  0.
         24    2    1    2    0    0  0.35336970554E+02  0.14843721840E+02  0.30782797068E+04  0.30795611975E+04  0.80138492381E+02 0.  0.
        -13    1    5    5    0    0  0.27114503427E+01  0.44124397417E+02  0.17499587362E+04  0.17505170359E+04  0.00000000000E+00 0.  1.
         14    1    5    5    0    0  0.32625520211E+02 -0.29280675578E+02  0.13283209706E+04  0.13290441616E+04  0.00000000000E+00 0. -1.
         11    1    3    3    0    0  0.42378056677E+02 -0.17708106760E+02 -0.11145982656E+03  0.12055193765E+03  0.00000000000E+00 0. -1.
        -12    1    3    3    0    0  0.34359300560E+02  0.13799768119E+02 -0.30754448513E+00  0.37028228673E+02  0.00000000000E+00 0.  1.
          5    1    4    4  501    0 -0.10946515896E+02  0.12428222536E+02  0.26462081804E+03  0.26517152311E+03  0.41800000000E+01 0. -1.
         -5    1    4    4    0  501 -0.10112781189E+03 -0.23363605734E+02  0.15143426658E+03  0.18363687512E+03  0.41800000000E+01 0. -1.
</event>
<event>
11    1  0.8551154E-009  0.1554270E+03  0.7561462E-02  0.1091459E+00
         22   -1    0    0    0    0  0.00000000000E+00  0.00000000000E+00  0.70108444786E+03  0.70108444786E+03  0.00000000000E+00 0. -1.
         22   -1    0    0    0    0 -0.00000000000E+00 -0.00000000000E+00 -0.68797884745E+03  0.68797884745E+03  0.00000000000E+00 0.  1.
        -24    2    1    2    0    0  0.74160162277E+02 -0.55733841814E+02 -0.62794547450E+03  0.63967287840E+03  0.79119413720E+02 0.  0.
         25    2    1    2    0    0 -0.74404338309E+02  0.38189313767E+02  0.59349616761E+02  0.16175375936E+03  0.12508985735E+03 0.  0.
         24    2    1    2    0    0  0.24417603108E+00  0.17544528047E+02  0.58170145815E+03  0.58763665755E+03  0.81439454811E+02 0.  0.
        -11    1    5    5    0    0  0.38508930923E+01  0.40415133191E+02  0.15251008143E+03  0.15782121944E+03  0.00000000000E+00 0.  1.
         12    1    5    5    0    0 -0.36067170612E+01 -0.22870605144E+02  0.42919137671E+03  0.42981543810E+03  0.00000000000E+00 0. -1.
         11    1    3    3    0    0  0.44858554797E+02 -0.71650957155E+02 -0.51556869444E+03  0.52245308716E+03  0.00000000000E+00 0. -1.
        -12    1    3    3    0    0  0.29301607480E+02  0.15917115341E+02 -0.11237678006E+03  0.11721979124E+03  0.00000000000E+00 0.  1.
          5    1    4    4  501    0 -0.37751115275E+02  0.46837721677E+02  0.93158296219E+02  0.11097233633E+03  0.41800000000E+01 0. -1.
         -5    1    4    4    0  501 -0.36653223034E+02 -0.86484079108E+01 -0.33808679457E+02  0.50781423028E+02  0.41800000000E+01 0. -1.
</event>
<event>
11    1  0.8551154E-009  0.1946275E+03  0.7561462E-02  0.1058389E+00
         22   -1    0    0    0    0  0.00000000000E+00  0.00000000000E+00  0.13083821935E+04  0.13083821935E+04  0.00000000000E+00 0.  1.
         22   -1    0    0    0    0 -0.00000000000E+00 -0.00000000000E+00 -0.31981326277E+03  0.31981326277E+03  0.00000000000E+00 0.  1.
         24    2    1    2    0    0  0.39515193354E+02 -0.76695016833E+02 -0.27276789960E+03  0.29719584187E+03  0.80495125659E+02 0.  0.
         25    2    1    2    0    0 -0.15983843062E+03  0.13362814394E+03  0.52099765955E+03  0.57488339332E+03  0.12509016707E+03 0.  0.
        -24    2    1    2    0    0  0.12032323727E+03 -0.56933127102E+02  0.74033917079E+03  0.75611622109E+03  0.76750176570E+02 0.  0.
        -11    1    3    3    0    0  0.17135759486E+02 -0.86244923809E+02 -0.16778063696E+03  0.18942587805E+03  0.00000000000E+00 0.  1.
         12    1    3    3    0    0  0.22379433869E+02  0.95499069754E+01 -0.10498726264E+03  0.10776996382E+03  0.00000000000E+00 0. -1.
         13    1    5    5    0    0 -0.23841436853E+01  0.23724427172E+00 -0.94292159136E+00  0.25747868036E+01  0.00000000000E+00 0. -1.
        -14    1    5    5    0    0  0.12270738095E+03 -0.57170371373E+02  0.74128209238E+03  0.75354143429E+03  0.00000000000E+00 0.  1.
          5    1    4    4  501    0 -0.99104833058E+02  0.37664140448E+02  0.13053020433E+03  0.16821403643E+03  0.41800000000E+01 0. -1.
         -5    1    4    4    0  501 -0.60733597561E+02  0.95964003487E+02  0.39046745523E+03  0.40666935689E+03  0.41800000000E+01 0. -1.
</event>
<event>
11    1  0.8551154E-009  0.2308855E+03  0.7561462E-02  0.1034605E+00
         22   -1    0    0    0    0  0.00000000000E+00  0.00000000000E+00  0.72802583142E+03  0.72802583142E+03  0.00000000000E+00 0. -1.
         22   -1    0    0    0    0 -0.00000000000E+00 -0.00000000000E+00 -0.33536995637E+03  0.33536995637E+03  0.00000000000E+00 0. -1.
        -24    2    1    2    0    0 -0.18741001070E+03 -0.42857776536E+02 -0.25121296552E+03  0.32647593537E+03  0.80742065926E+02 0.  0.
         25    2    1    2    0    0  0.21748832819E+03  0.44886060219E+01  0.36272338084E+03  0.44106379640E+03  0.12509077104E+03 0.  0.
         24    2    1    2    0    0 -0.30078317496E+02  0.38369170514E+02  0.28114545972E+03  0.29585605603E+03  0.78173767581E+02 0.  0.
        -13    1    5    5    0    0  0.20516712716E+02 -0.39764242114E+01  0.32767574658E+02  0.38864654882E+02  0.00000000000E+00 0.  1.
         14    1    5    5    0    0 -0.50595030211E+02  0.42345594726E+02  0.24837788506E+03  0.25699140114E+03  0.00000000000E+00 0. -1.
         13    1    3    3    0    0 -0.18189794875E+03 -0.27939616261E+02 -0.19530384788E+03  0.26834880084E+03  0.00000000000E+00 0. -1.
        -14    1    3    3    0    0 -0.55120619457E+01 -0.14918160275E+02 -0.55909117639E+02  0.58127134524E+02  0.00000000000E+00 0.  1.
          5    1    4    4  501    0  0.11610757659E+03  0.64648649090E+02  0.19477936218E+03  0.23583233345E+03  0.41800000000E+01 0. -1.
         -5    1    4    4    0  501  0.10138075161E+03 -0.60160043068E+02  0.16794401866E+03  0.20523146295E+03  0.41800000000E+01 0. -1.
</event>
<event>
11    1  0.8551154E-009  0.1680078E+03  0.7561462E-02  0.1079778E+00
         22   -1    0    0    0    0  0.00000000000E+00  0.00000000000E+00  0.74307840225E+03  0.74307840225E+03  0.00000000000E+00 0.  1.
         22   -1    0    0    0    0 -0.00000000000E+00 -0.00000000000E+00 -0.15008259754E+04  0.15008259754E+04  0.00000000000E+00 0. -1.
        -24    2    1    2    0    0 -0.24905509601E+02 -0.10862132331E+03 -0.14299799316E+04  0.14365042106E+04  0.79264532174E+02 0.  0.
         25    2    1    2    0    0  0.10779744123E+03  0.13026079091E+03  0.11855557928E+03  0.24143700681E+03  0.12509292904E+03 0.  0.
         24    2    1    2    0    0 -0.82891931632E+02 -0.21639467599E+02  0.55367677917E+03  0.56596316024E+03  0.80106080101E+02 0.  0.
        -11    1    5    5    0    0 -0.48499230799E+02 -0.41169595651E+02  0.45854926187E+03  0.46294118045E+03  0.00000000000E+00 0.  1.
         12    1    5    5    0    0 -0.34392700833E+02  0.19530128052E+02  0.95127517294E+02  0.10302197978E+03  0.00000000000E+00 0. -1.
         11    1    3    3    0    0  0.22774903325E+01 -0.34678445527E+02 -0.90296041357E+03  0.90362895594E+03  0.00000000000E+00 0. -1.
        -12    1    3    3    0    0 -0.27182999933E+02 -0.73942877780E+02 -0.52701951804E+03  0.53287525469E+03  0.00000000000E+00 0.  1.
          5    1    4    4  501    0  0.69429272937E+02  0.10598161733E+02  0.86841680489E+02  0.11176625091E+03  0.41800000000E+01 0. -1.
         -5    1    4    4    0  501  0.38368168296E+02  0.11966262917E+03  0.31713898790E+02  0.12967075590E+03  0.41800000000E+01 0. -1.
</event>
<event>
11    1  0.8551154E-009  0.1348107E+03  0.7561462E-02  0.1113496E+00
         22   -1    0    0    0    0  0.00000000000E+00  0.00000000000E+00  0.12526457894E+04  0.12526457894E+04  0.00000000000E+00 0.  1.
         22   -1    0    0    0    0 -0.00000000000E+00 -0.00000000000E+00 -0.51861955942E+03  0.51861955942E+03  0.00000000000E+00 0.  1.
        -24    2    1    2    0    0 -0.55415499179E+02  0.38565301251E+01 -0.41918057820E+03  0.42975682903E+03  0.76764735318E+02 0.  0.
         25    2    1    2    0    0  0.60509756723E+02 -0.53584178233E+02 -0.31813947865E+02  0.15230686432E+03  0.12511018673E+03 0.  0.
         24    2    1    2    0    0 -0.50942575440E+01  0.49727648108E+02  0.11850207560E+04  0.11892016555E+04  0.86183494275E+02 0.  0.
        -11    1    5    5    0    0  0.30672681725E+02  0.51886039419E+02  0.88470087215E+03  0.88675171704E+03  0.00000000000E+00 0.  1.
         12    1    5    5    0    0 -0.35766939269E+02 -0.21583913114E+01  0.30031988390E+03  0.30244993844E+03  0.00000000000E+00 0. -1.
         11    1    3    3    0    0 -0.76624838473E+01  0.85192948067E+01 -0.45008017574E+01  0.12310534480E+02  0.00000000000E+00 0. -1.
        -12    1    3    3    0    0 -0.47753015332E+02 -0.46627646817E+01 -0.41467977644E+03  0.41744629455E+03  0.00000000000E+00 0.  1.
          5    1    4    4  501    0  0.58419767856E+02 -0.55540923220E+02 -0.74187892008E+02  0.10963110484E+03  0.41800000000E+01 0. -1.
         -5    1    4    4    0  501  0.20899888667E+01  0.19567449870E+01  0.42373944143E+02  0.42675759474E+02  0.41800000000E+01 0. -1.
</event>
<event>
11    1  0.8551154E-009  0.1338026E+03  0.7561462E-02  0.1114683E+00
         22   -1    0    0    0    0  0.00000000000E+00  0.00000000000E+00  0.41051139028E+02  0.41051139028E+02  0.00000000000E+00 0.  1.
         22   -1    0    0    0    0 -0.00000000000E+00 -0.00000000000E+00 -0.14628139195E+04  0.14628139195E+04  0.00000000000E+00 0.  1.
        -24    2    1    2    0    0  0.12455265251E+02 -0.13652623854E+02 -0.84208092433E+03  0.84610573338E+03  0.80331196776E+02 0.  0.
         25    2    1    2    0    0 -0.51352138958E+01 -0.34954473210E+02 -0.54325804821E+03  0.55859260507E+03  0.12509278904E+03 0.  0.
         24    2    1    2    0    0 -0.73200513549E+01  0.48607097064E+02 -0.36423807885E+02  0.99166720031E+02  0.78045573507E+02 0.  0.
        -13    1    5    5    0    0 -0.16765439833E+02  0.16901848822E+02  0.21748698237E+02  0.32245284018E+02  0.00000000000E+00 0.  1.
         14    1    5    5    0    0  0.94453884777E+01  0.31705248242E+02 -0.58172506122E+02  0.66921436013E+02  0.00000000000E+00 0. -1.
         13    1    3    3    0    0  0.20759848035E+02  0.64183918051E+00 -0.54077483890E+02  0.57928900489E+02  0.00000000000E+00 0. -1.
        -14    1    3    3    0    0 -0.83045827840E+01 -0.14294463034E+02 -0.78800344044E+03  0.78817683289E+03  0.00000000000E+00 0.  1.
          5    1    4    4  501    0 -0.10459892267E+02 -0.54256541381E+02 -0.95835513875E+02  0.11070275402E+03  0.41800000000E+01 0. -1.
         -5    1    4    4    0  501  0.53246783715E+01  0.19302068171E+02 -0.44742253434E+03  0.44788985104E+03  0.41800000000E+01 0. -1.
</event>
<event>
11    1  0.8551154E-009  0.4341053E+03  0.7561462E-02  0.9554164E-01
         22   -1    0    0    0    0  0.00000000000E+00  0.00000000000E+00  0.10705525112E+04  0.10705525112E+04  0.00000000000E+00 0. -1.
         22   -1    0    0    0    0 -0.00000000000E+00 -0.00000000000E+00 -0.60037675707E+03  0.60037675707E+03  0.00000000000E+00 0. -1.
        -24    2    1    2    0    0  0.45309109171E+02  0.86290256041E+02 -0.27422157438E+03  0.30164555348E+03  0.79332492807E+02 0.  0.
         25    2    1    2    0    0  0.33514558833E+03 -0.25560041164E+03 -0.74557244633E+02  0.44593911723E+03  0.12509507478E+03 0.  0.
         24    2    1    2    0    0 -0.38045469750E+03  0.16931015560E+03  0.81895457313E+03  0.92334459755E+03  0.92016016754E+02 0.  0.
        -13    1    5    5    0    0 -0.20541989050E+03  0.42650161400E+02  0.37867537090E+03  0.43291038819E+03  0.00000000000E+00 0.  1.
         14    1    5    5    0    0 -0.17503480701E+03  0.12665999420E+03  0.44027920223E+03  0.49043420936E+03  0.00000000000E+00 0. -1.
         13    1    3    3    0    0  0.10782256113E+02  0.42875674238E+02 -0.21884167133E+03  0.22326275462E+03  0.00000000000E+00 0. -1.
        -14    1    3    3    0    0  0.34526853058E+02  0.43414581803E+02 -0.55379903048E+02  0.78382798858E+02  0.00000000000E+00 0.  1.
          5    1    4    4  501    0  0.22015483305E+03 -0.22311492267E+03 -0.18866870033E+02  0.31404116039E+03  0.41800000000E+01 0.  1.
         -5    1    4    4    0  501  0.11499075528E+03 -0.32485488970E+02 -0.55690374600E+02  0.13189795683E+03  0.41800000000E+01 0.  1.
</event>
<event>
11    1  0.8551154E-009  0.1295635E+03  0.7561462E-02  0.1119806E+00
         22   -1    0    0    0    0  0.00000000000E+00  0.00000000000E+00  0.15651392192E+04  0.15651392192E+04  0.00000000000E+00 0. -1.
         22   -1    0    0    0    0 -0.00000000000E+00 -0.00000000000E+00 -0.10217176182E+03  0.10217176182E+03  0.00000000000E+00 0.  1.
        -24    2    1    2    0    0 -0.22544222287E+02  0.25857675248E+02 -0.70885503475E+02  0.11236264630E+03  0.80148289769E+02 0.  0.
         25    2    1    2    0    0 -0.53470888399E+01 -0.31879318212E+02  0.46398863321E+03  0.48164145393E+03  0.12509259013E+03 0.  0.
         24    2    1    2    0    0  0.27891311127E+02  0.60216429636E+01  0.10698643277E+04  0.10733068808E+04  0.81017253614E+02 0.  0.
        -11    1    5    5    0    0  0.17851540058E+02 -0.24335360317E+02  0.15653151853E+03  0.15941456501E+03  0.00000000000E+00 0.  1.
         12    1    5    5    0    0  0.10039771068E+02  0.30357003281E+02  0.91333280913E+03  0.91389231580E+03  0.00000000000E+00 0. -1.
         11    1    3    3    0    0 -0.39074685567E+02 -0.13890661549E+02 -0.21044350673E+02  0.46504260296E+02  0.00000000000E+00 0. -1.
        -12    1    3    3    0    0  0.16530463281E+02  0.39748336797E+02 -0.49841152802E+02  0.65858386004E+02  0.00000000000E+00 0.  1.
          5    1    4    4  501    0 -0.36501744399E+02  0.28197978805E+02  0.86565102134E+02  0.98175825234E+02  0.41800000000E+01 0.  1.
         -5    1    4    4    0  501  0.31154655559E+02 -0.60077297017E+02  0.37742353108E+03  0.38346562870E+03  0.41800000000E+01 0.  1.
</event>
<event>
11    1  0.8551154E-009  0.2482955E+03  0.7561462E-02  0.1024811E+00
         22   -1    0    0    0    0  0.00000000000E+00  0.00000000000E+00  0.50633986566E+03  0.50633986566E+03  0.00000000000E+00 0.  1.
         22   -1    0    0    0    0 -0.00000000000E+00 -0.00000000000E+00 -0.15830047437E+03  0.15830047437E+03  0.00000000000E+00 0. -1.
        -24    2    1    2    0    0  0.16648799414E+03  0.13174956977E+03  0.96187417023E+02  0.24620448617E+03  0.79299612168E+02 0.  0.
         25    2    1    2    0    0 -0.15693318141E+03 -0.15170672067E+03  0.18616049357E+03  0.31296477640E+03  0.12509304288E+03 0.  0.
         24    2    1    2    0    0 -0.95548127292E+01  0.19957150898E+02  0.65691480690E+02  0.10547107746E+03  0.79493365935E+02 0.  0.
        -11    1    5    5    0    0  0.12988695752E+02 -0.21711722197E+02  0.10431810412E+01  0.25321795450E+02  0.00000000000E+00 0.  1.
         12    1    5    5    0    0 -0.22543508481E+02  0.41668873095E+02  0.64648299649E+02  0.80149282013E+02  0.00000000000E+00 0. -1.
         11    1    3    3    0    0  0.55068458570E+02  0.49821277977E+02 -0.56212042971E+01  0.74473436917E+02  0.00000000000E+00 0. -1.
        -12    1    3    3    0    0  0.11141953557E+03  0.81928291793E+02  0.10180862132E+03  0.17173104925E+03  0.00000000000E+00 0.  1.
          5    1    4    4  501    0 -0.43717918956E+02 -0.95782957898E+02  0.25203209691E+02  0.10834346146E+03  0.41800000000E+01 0.  1.
         -5    1    4    4    0  501 -0.11321526245E+03 -0.55923762770E+02  0.16095728388E+03  0.20462131494E+03  0.41800000000E+01 0.  1.
</event>
<event>
11    1  0.8551154E-009  0.1386624E+03  0.7561462E-02  0.1109061E+00
         22   -1    0    0    0    0  0.00000000000E+00  0.00000000000E+00  0.31473289860E+02  0.31473289860E+02  0.00000000000E+00 0.  1.
         22   -1    0    0    0    0 -0.00000000000E+00 -0.00000000000E+00 -0.34711068152E+04  0.34711068152E+04  0.00000000000E+00 0.  1.
         24    2    1    2    0    0  0.19169105723E+02 -0.17908319033E+02 -0.25610477636E+04  0.25624473318E+04  0.80514087290E+02 0.  0.
         25    2    1    2    0    0 -0.34489072891E+01  0.74086930157E+02 -0.79579096667E+03  0.80897021152E+03  0.12509505310E+03 0.  0.
        -24    2    1    2    0    0 -0.15720198434E+02 -0.56178611124E+02 -0.82794795018E+02  0.13116256170E+03  0.83339537571E+02 0.  0.
        -13    1    3    3    0    0  0.58251911980E+00  0.10427672438E+02 -0.21438740370E+04  0.21438994758E+04  0.00000000000E+00 0.  1.
         14    1    3    3    0    0  0.18586586603E+02 -0.28335991470E+02 -0.41717372660E+03  0.41854785602E+03  0.00000000000E+00 0. -1.
         11    1    5    5    0    0  0.28156078550E+02 -0.12907301879E+02 -0.55937169483E+02  0.63940051070E+02  0.00000000000E+00 0. -1.
        -12    1    5    5    0    0 -0.43876276983E+02 -0.43271309246E+02 -0.26857625534E+02  0.67222510628E+02  0.00000000000E+00 0.  1.
          5    1    4    4  501    0  0.24094860950E+02 -0.27182200487E+02 -0.13410764578E+03  0.13900276042E+03  0.41800000000E+01 0.  1.
         -5    1    4    4    0  501 -0.27543768239E+02  0.10126913064E+03 -0.66168332089E+03  0.66996745110E+03  0.41800000000E+01 0.  1.
</event>
<event>
11    1  0.8551154E-009  0.1742039E+03  0.7561462E-02  0.1074430E+00
         22   -1    0    0    0    0  0.00000000000E+00  0.00000000000E+00  0.57375841564E+03  0.57375841564E+03  0.00000000000E+00 0.  1.
         22   -1    0    0    0    0 -0.00000000000E+00 -0.00000000000E+00 -0.10506927381E+04  0.10506927381E+04  0.00000000000E+00 0.  1.
        -24    2    1    2    0    0  0.11229662397E+03  0.40631549412E+02 -0.93461462911E+03  0.94563623852E+03  0.80386168565E+02 0.  0.
         25    2    1    2    0    0 -0.13495852379E+03 -0.69225312619E+02 -0.15718290876E+02  0.19725582475E+03  0.12512732986E+03 0.  0.
         24    2    1    2    0    0  0.22661899817E+02  0.28593763207E+02  0.47339859752E+03  0.48155909047E+03  0.80385076202E+02 0.  0.
        -11    1    5    5    0    0  0.76804139112E+01  0.29703299900E+02  0.46116790284E+03  0.46218730985E+03  0.00000000000E+00 0.  1.
         12    1    5    5    0    0  0.14981485906E+02 -0.11095366933E+01  0.12230694689E+02  0.19371780615E+02  0.00000000000E+00 0. -1.
         13    1    3    3    0    0 -0.11955267924E+02 -0.22377321770E+01 -0.99619537091E+02  0.10035929477E+03  0.00000000000E+00 0. -1.
        -14    1    3    3    0    0  0.12425189190E+03  0.42869281589E+02 -0.83499509202E+03  0.84527694375E+03  0.00000000000E+00 0.  1.
          5    1    4    4  501    0  0.14270549134E+02 -0.29735803948E+02 -0.26416141588E+02  0.42463531947E+02  0.41800000000E+01 0.  1.
         -5    1    4    4    0  501 -0.14922907293E+03 -0.39489508671E+02  0.10697850712E+02  0.15479229280E+03  0.41800000000E+01 0.  1.
</event>
<event>
11    1  0.8551154E-009  0.2399400E+03  0.7561462E-02  0.1029399E+00
         22   -1    0    0    0    0  0.00000000000E+00  0.00000000000E+00  0.15861689228E+04  0.15861689228E+04  0.00000000000E+00 0.  1.
         22   -1    0    0    0    0 -0.00000000000E+00 -0.00000000000E+00 -0.63611980404E+02  0.63611980404E+02  0.00000000000E+00 0. -1.
         24    2    1    2    0    0  0.95264164966E+02 -0.12934870494E+02  0.13898507858E+03  0.18850599751E+03  0.83516986460E+02 0.  0.
         25    2    1    2    0    0 -0.36770494757E+01 -0.19200576496E+03  0.60119906516E+03  0.64340310411E+03  0.12508998343E+03 0.  0.
        -24    2    1    2    0    0 -0.91587115491E+02  0.20494063545E+03  0.78237279861E+03  0.81787180154E+03  0.80113818832E+02 0.  0.
        -13    1    3    3    0    0  0.37196669175E+02  0.33844419339E+02  0.38287333950E+02  0.63205671099E+02  0.00000000000E+00 0.  1.
         14    1    3    3    0    0  0.58067495791E+02 -0.46779289833E+02  0.10069774463E+03  0.12530032641E+03  0.00000000000E+00 0. -1.
         13    1    5    5    0    0 -0.28953369695E+02  0.15356759710E+03  0.47758152216E+03  0.50249916896E+03  0.00000000000E+00 0. -1.
        -14    1    5    5    0    0 -0.62633745795E+02  0.51373038355E+02  0.30479127645E+03  0.31537263259E+03  0.00000000000E+00 0.  1.
          5    1    4    4  501    0 -0.31629995973E+02 -0.67338388083E+02  0.38578684746E+03  0.39291714041E+03  0.41800000000E+01 0. -1.
         -5    1    4    4    0  501  0.27952946498E+02 -0.12466737688E+03  0.21541221771E+03  0.25048596370E+03  0.41800000000E+01 0. -1.
</event>
<event>
11    1  0.8551154E-009  0.1552426E+03  0.7561462E-02  0.1091639E+00
         22   -1    0    0    0    0  0.00000000000E+00  0.00000000000E+00  0.43235006505E+03  0.43235006505E+03  0.00000000000E+00 0.  1.
         22   -1    0    0    0    0 -0.00000000000E+00 -0.00000000000E+00 -0.29602373701E+04  0.29602373701E+04  0.00000000000E+00 0.  1.
         24    2    1    2    0    0 -0.24113438144E+02 -0.22548410861E+02 -0.25979488774E+04  0.25994607720E+04  0.82268141209E+02 0.  0.
         25    2    1    2    0    0 -0.92715072610E+01  0.10788144874E+03 -0.33307683106E+03  0.37190302030E+03  0.12508922133E+03 0.  0.
        -24    2    1    2    0    0  0.33384945405E+02 -0.85333037881E+02  0.40313840337E+03  0.42122364285E+03  0.80700081062E+02 0.  0.
        -11    1    3    3    0    0  0.93171132169E+01 -0.30310519060E+01 -0.20954899736E+04  0.20955128789E+04  0.00000000000E+00 0.  1.
         12    1    3    3    0    0 -0.33430551361E+02 -0.19517358955E+02 -0.50245890376E+03  0.50394789317E+03  0.00000000000E+00 0. -1.
         13    1    5    5    0    0 -0.54533448986E+01  0.12954557227E+02  0.25980515898E+02  0.29538901974E+02  0.00000000000E+00 0. -1.
        -14    1    5    5    0    0  0.38838290304E+02 -0.98287595108E+02  0.37715788748E+03  0.39168474087E+03  0.00000000000E+00 0.  1.
          5    1    4    4  501    0  0.48189717598E+02  0.85861000989E+02 -0.15731773010E+03  0.18563593666E+03  0.41800000000E+01 0.  1.
         -5    1    4    4    0  501 -0.57461224859E+02  0.22020447753E+02 -0.17575910096E+03  0.18626708365E+03  0.41800000000E+01 0.  1.
</event>
<event>
11    1  0.8551154E-009  0.1656221E+03  0.7561462E-02  0.1081906E+00
         22   -1    0    0    0    0  0.00000000000E+00  0.00000000000E+00  0.91747848782E+03  0.91747848782E+03  0.00000000000E+00 0. -1.
         22   -1    0    0    0    0 -0.00000000000E+00 -0.00000000000E+00 -0.42452539349E+02  0.42452539349E+02  0.00000000000E+00 0. -1.
        -24    2    1    2    0    0  0.11672507942E+03 -0.30042773322E+01  0.18574000491E+03  0.23304218390E+03  0.78584605380E+02 0.  0.
         25    2    1    2    0    0 -0.93027272348E+02 -0.13174741232E+02  0.37984357041E+03  0.41079955790E+03  0.12508993398E+03 0.  0.
         24    2    1    2    0    0 -0.23697807077E+02  0.16179018564E+02  0.30944237316E+03  0.31608928537E+03  0.57745193066E+02 0.  0.
        -13    1    5    5    0    0 -0.21886705218E+02 -0.81926103945E+00  0.36181266657E+02  0.42294007978E+02  0.00000000000E+00 0.  1.
         14    1    5    5    0    0 -0.18111018584E+01  0.16998279604E+02  0.27326110650E+03  0.27379527740E+03  0.00000000000E+00 0. -1.
         11    1    3    3    0    0  0.72700936726E+02  0.35906981361E+02  0.94481636206E+02  0.12450508862E+03  0.00000000000E+00 0. -1.
        -12    1    3    3    0    0  0.44024142698E+02 -0.38911258693E+02  0.91258368701E+02  0.10853709528E+03  0.00000000000E+00 0.  1.
          5    1    4    4  501    0 -0.56499356230E+02 -0.25152594534E+02  0.52648619795E+02  0.81327608058E+02  0.41800000000E+01 0. -1.
         -5    1    4    4    0  501 -0.36527916118E+02  0.11977853302E+02  0.32719495062E+03  0.32947194984E+03  0.41800000000E+01 0. -1.
</event>
<event>
11    1  0.8551154E-009  0.1628367E+03  0.7561462E-02  0.1084439E+00
         22   -1    0    0    0    0  0.00000000000E+00  0.00000000000E+00  0.39848694873E+04  0.39848694873E+04  0.00000000000E+00 0.  1.
         22   -1    0    0    0    0 -0.00000000000E+00 -0.00000000000E+00 -0.50473700211E+03  0.50473700211E+03  0.00000000000E+00 0.  1.
         24    2    1    2    0    0 -0.19861955438E+02  0.74983972676E+02 -0.47885691006E+03  0.49144337852E+03  0.78711883125E+02 0.  0.
         25    2    1    2    0    0 -0.69698742300E+02 -0.14948333988E+02  0.26371305229E+03  0.30045467025E+03  0.12508823911E+03 0.  0.
        -24    2    1    2    0    0  0.89560697739E+02 -0.60035638688E+02  0.36952763429E+04  0.36977084406E+04  0.79718659485E+02 0.  0.
        -11    1    3    3    0    0 -0.31781851359E+02  0.33854835822E+02 -0.39055878455E+03  0.39330954752E+03  0.00000000000E+00 0.  1.
         12    1    3    3    0    0  0.11919895921E+02  0.41129136854E+02 -0.88298125513E+02  0.98133830997E+02  0.00000000000E+00 0. -1.
         13    1    5    5    0    0  0.74717543054E+02 -0.44778008060E+02  0.16325399963E+04  0.16348622635E+04  0.00000000000E+00 0. -1.
        -14    1    5    5    0    0  0.14843154685E+02 -0.15257630629E+02  0.20627363466E+04  0.20628461771E+04  0.00000000000E+00 0.  1.
          5    1    4    4  501    0 -0.18442660466E+02 -0.67620414556E+02  0.13548498625E+03  0.15259851273E+03  0.41800000000E+01 0. -1.
         -5    1    4    4    0  501 -0.51256081834E+02  0.52672080568E+02  0.12822806604E+03  0.14785615752E+03  0.41800000000E+01 0. -1.
</event>
<event>
11    1  0.8551154E-009  0.1846058E+03  0.7561462E-02  0.1065977E+00
         22   -1    0    0    0    0  0.00000000000E+00  0.00000000000E+00  0.82265695592E+03  0.82265695592E+03  0.00000000000E+00 0.  1.
         22   -1    0    0    0    0 -0.00000000000E+00 -0.00000000000E+00 -0.48382991437E+03  0.48382991437E+03  0.00000000000E+00 0.  1.
        -24    2    1    2    0    0  0.14172136190E+02 -0.45139207270E+02 -0.41766113033E+03  0.42386366880E+03  0.54600297255E+02 0.  0.
         25    2    1    2    0    0 -0.12378691411E+03  0.11521492115E+03  0.15394119904E+03  0.26066025665E+03  0.12509275948E+03 0.  0.
         24    2    1    2    0    0  0.10961477792E+03 -0.70075713879E+02  0.60254697283E+03  0.62196294484E+03  0.82758957606E+02 0.  0.
        -11    1    5    5    0    0  0.27431070884E+02 -0.59876325922E+02  0.35127364603E+03  0.35739447736E+03  0.00000000000E+00 0.  1.
         12    1    5    5    0    0  0.82183707038E+02 -0.10199387957E+02  0.25127332680E+03  0.26456846747E+03  0.00000000000E+00 0. -1.
         11    1    3    3    0    0 -0.13604100965E+02 -0.27035493457E+02 -0.10007033437E+03  0.10454693343E+03  0.00000000000E+00 0. -1.
        -12    1    3    3    0    0  0.27776237155E+02 -0.18103713812E+02 -0.31759079596E+03  0.31931673536E+03  0.00000000000E+00 0.  1.
          5    1    4    4  501    0  0.12734761541E+02 -0.67789915973E+01  0.45301543127E+02  0.47726628712E+02  0.41800000000E+01 0.  1.
         -5    1    4    4    0  501 -0.13652167565E+03  0.12199391275E+03  0.10863965591E+03  0.21293362794E+03  0.41800000000E+01 0.  1.
</event>
<event>
11    1  0.8551154E-009  0.3593998E+03  0.7561462E-02  0.9777783E-01
         22   -1    0    0    0    0  0.00000000000E+00  0.00000000000E+00  0.36311711847E+02  0.36311711847E+02  0.00000000000E+00 0. -1.
         22   -1    0    0    0    0 -0.00000000000E+00 -0.00000000000E+00 -0.28298326539E+04  0.28298326539E+04  0.00000000000E+00 0. -1.
         24    2    1    2    0    0  0.14497040720E+03 -0.53800989572E+02 -0.95240730794E+03  0.96820787976E+03  0.80223766805E+02 0.  0.
         25    2    1    2    0    0  0.11951236076E+03  0.59707205785E+02 -0.79860394342E+03  0.81930676714E+03  0.12508863036E+03 0.  0.
        -24    2    1    2    0    0 -0.26448276797E+03 -0.59062162132E+01 -0.10425096907E+04  0.10786297188E+04  0.81422338753E+02 0.  0.
        -13    1    3    3    0    0  0.14231643065E+03 -0.68984038698E+02 -0.88866618505E+03  0.90262968734E+03  0.00000000000E+00 0.  1.
         14    1    3    3    0    0  0.26539765471E+01  0.15183049126E+02 -0.63741122894E+02  0.65578192412E+02  0.00000000000E+00 0. -1.
         11    1    5    5    0    0 -0.26828068034E+03 -0.77530768775E+01 -0.10390985101E+04  0.10732009818E+04  0.00000000000E+00 0. -1.
        -12    1    5    5    0    0  0.37979123725E+01  0.18468606642E+01 -0.34111805451E+01  0.54287369999E+01  0.00000000000E+00 0.  1.
          5    1    4    4  501    0  0.22304059495E+02  0.18288313727E+02 -0.24676239275E+02  0.38187991224E+02  0.41800000000E+01 0.  1.
         -5    1    4    4    0  501  0.97208301269E+02  0.41418892058E+02 -0.77392770414E+03  0.78111877592E+03  0.41800000000E+01 0.  1.
</event>
<event>
11    1  0.8551154E-009  0.3198130E+03  0.7561462E-02  0.9921379E-01
         22   -1    0    0    0    0  0.00000000000E+00  0.00000000000E+00  0.92266133044E+03  0.92266133044E+03  0.00000000000E+00 0. -1.
         22   -1    0    0    0    0 -0.00000000000E+00 -0.00000000000E+00 -0.50894263112E+03  0.50894263112E+03  0.00000000000E+00 0.  1.
        -24    2    1    2    0    0  0.91125974007E+01 -0.72383024471E+02 -0.69206422362E+02  0.13232248022E+03  0.86007954353E+02 0.  0.
         25    2    1    2    0    0 -0.18360577754E+03 -0.16925007998E+03 -0.32821278617E+03  0.43096122373E+03  0.12508905721E+03 0.  0.
         24    2    1    2    0    0  0.17449318014E+03  0.24163310445E+03  0.81113790785E+03  0.86832025761E+03  0.84858335756E+02 0.  0.
        -13    1    5    5    0    0  0.93657974541E+02  0.95345442238E+02  0.25915602431E+03  0.29158946224E+03  0.00000000000E+00 0.  1.
         14    1    5    5    0    0  0.80835205598E+02  0.14628766221E+03  0.55198188353E+03  0.57673079537E+03  0.00000000000E+00 0. -1.
         13    1    3    3    0    0  0.74572080204E+01 -0.51510278333E+02 -0.89262626285E+02  0.10332828837E+03  0.00000000000E+00 0. -1.
        -14    1    3    3    0    0  0.16553893803E+01 -0.20872746138E+02  0.20056203923E+02  0.28994191852E+02  0.00000000000E+00 0.  1.
          5    1    4    4  501    0 -0.98655997203E+02 -0.72510438270E+02 -0.66803565387E+02  0.13953837533E+03  0.41800000000E+01 0.  1.
         -5    1    4    4    0  501 -0.84949780336E+02 -0.96739641706E+02 -0.26140922078E+03  0.29142284840E+03  0.41800000000E+01 0.  1.
</event>
<event>
11    1  0.8551154E-009  0.1522844E+03  0.7561462E-02  0.1094567E+00
         22   -1    0    0    0    0  0.00000000000E+00  0.00000000000E+00  0.87330215037E+02  0.87330215037E+02  0.00000000000E+00 0. -1.
         22   -1    0    0    0    0 -0.00000000000E+00 -0.00000000000E+00 -0.96037400279E+03  0.96037400279E+03  0.00000000000E+00 0.  1.
         24    2    1    2    0    0 -0.13714230415E+01 -0.50505841205E+02 -0.37461664555E+03  0.38653479697E+03  0.80739069553E+02 0.  0.
         25    2    1    2    0    0  0.13801526456E+02  0.13209833794E+03 -0.51419064079E+03  0.54560053196E+03  0.12508985723E+03 0.  0.
        -24    2    1    2    0    0 -0.12430103414E+02 -0.81592496734E+02  0.15763498586E+02  0.11556888889E+03  0.79346311813E+02 0.  0.
        -13    1    3    3    0    0  0.16262613524E+02 -0.23284422902E+02 -0.33081565323E+03  0.33203257878E+03  0.00000000000E+00 0.  1.
         14    1    3    3    0    0 -0.17634036565E+02 -0.27221418302E+02 -0.43800992316E+02  0.54502218192E+02  0.00000000000E+00 0. -1.
         11    1    5    5    0    0  0.26426780491E+02 -0.46793095718E+02  0.29936920282E+02  0.61515751885E+02  0.00000000000E+00 0. -1.
        -12    1    5    5    0    0 -0.38856883905E+02 -0.34799401015E+02 -0.14173421696E+02  0.54053137008E+02  0.00000000000E+00 0.  1.
          5    1    4    4  501    0  0.67341397747E+02  0.59094073565E+02 -0.21422664374E+03  0.23224448469E+03  0.41800000000E+01 0.  1.
         -5    1    4    4    0  501 -0.53539871291E+02  0.73004264373E+02 -0.29996399705E+03  0.31335604727E+03  0.41800000000E+01 0.  1.
</event>
<event>
11    1  0.8551154E-009  0.1979662E+03  0.7561462E-02  0.1055971E+00
         22   -1    0    0    0    0  0.00000000000E+00  0.00000000000E+00  0.75146191022E+03  0.75146191022E+03  0.00000000000E+00 0.  1.
         22   -1    0    0    0    0 -0.00000000000E+00 -0.00000000000E+00 -0.52223260249E+03  0.52223260249E+03  0.00000000000E+00 0.  1.
         24    2    1    2    0    0  0.14985949384E+03  0.22332910112E+02 -0.45970938833E+03  0.49060095491E+03  0.79999677961E+02 0.  0.
         25    2    1    2    0    0 -0.18815461225E+03 -0.69879574276E+02  0.30699301808E+03  0.38752813099E+03  0.12509207067E+03 0.  0.
        -24    2    1    2    0    0  0.38295118406E+02  0.47546664164E+02  0.38194567798E+03  0.39556542682E+03  0.82839028264E+02 0.  0.
        -13    1    3    3    0    0  0.10593276188E+03 -0.20518862787E+02 -0.32811133166E+03  0.34539805983E+03  0.00000000000E+00 0.  1.
         14    1    3    3    0    0  0.43926731966E+02  0.42851772900E+02 -0.13159805667E+03  0.14520289508E+03  0.00000000000E+00 0. -1.
         13    1    5    5    0    0  0.94578582338E+01 -0.23064265148E+02  0.66196006169E+02  0.70734168843E+02  0.00000000000E+00 0. -1.
        -14    1    5    5    0    0  0.28837260172E+02  0.70610929312E+02  0.31574967181E+03  0.32483125798E+03  0.00000000000E+00 0.  1.
          5    1    4    4  501    0  0.88224093634E+00 -0.40030183912E+02  0.87316574105E+02  0.96150145535E+02  0.41800000000E+01 0.  1.
         -5    1    4    4    0  501 -0.18903685318E+03 -0.29849390364E+02  0.21967644398E+03  0.29137798545E+03  0.41800000000E+01 0.  1.
</event>
<event>
11    1  0.8551154E-009  0.1466285E+03  0.7561462E-02  0.1100374E+00
         22   -1    0    0    0    0  0.00000000000E+00  0.00000000000E+00  0.39892876671E+03  0.39892876671E+03  0.00000000000E+00 0. -1.
         22   -1    0    0    0    0 -0.00000000000E+00 -0.00000000000E+00 -0.40025054009E+03  0.40025054009E+03  0.00000000000E+00 0. -1.
        -24    2    1    2    0    0  0.75375501261E+02 -0.21867551715E+02 -0.21697450340E+03  0.24415326955E+03  0.79832499016E+02 0.  0.
         25    2    1    2    0    0 -0.76072874902E+02 -0.12550336810E+02 -0.13106990519E+03  0.19690632494E+03  0.12509271564E+03 0.  0.
         24    2    1    2    0    0  0.69737364111E+00  0.34417888525E+02  0.34672263521E+03  0.35811971231E+03  0.82753037386E+02 0.  0.
        -13    1    5    5    0    0  0.74625051427E+01 -0.20585728909E+02  0.33426025574E+02  0.39959484524E+02  0.00000000000E+00 0.  1.
         14    1    5    5    0    0 -0.67651315016E+01  0.55003617434E+02  0.31329660964E+03  0.31816022779E+03  0.00000000000E+00 0. -1.
         11    1    3    3    0    0  0.82175858031E+02  0.35074675812E+01 -0.13510836549E+03  0.15817535964E+03  0.00000000000E+00 0. -1.
        -12    1    3    3    0    0 -0.68003567708E+01 -0.25375019296E+02 -0.81866137912E+02  0.85977909914E+02  0.00000000000E+00 0.  1.
          5    1    4    4  501    0  0.72972430057E+01 -0.86484010013E+01  0.20523248337E+02  0.23805896699E+02  0.41800000000E+01 0. -1.
         -5    1    4    4    0  501 -0.83370117907E+02 -0.39019358088E+01 -0.15159315353E+03  0.17310042825E+03  0.41800000000E+01 0. -1.
</event>
<event>
11    1  0.8551154E-009  0.1687937E+03  0.7561462E-02  0.1079086E+00
         22   -1    0    0    0    0  0.00000000000E+00  0.00000000000E+00  0.35720814141E+03  0.35720814141E+03  0.00000000000E+00 0.  1.
         22   -1    0    0    0    0 -0.00000000000E+00 -0.00000000000E+00 -0.22143413623E+03  0.22143413623E+03  0.00000000000E+00 0. -1.
        -24    2    1    2    0    0  0.45422511684E+00  0.15261695422E+01 -0.11974847171E+03  0.14479903400E+03  0.81391205029E+02 0.  0.
         25    2    1    2    0    0 -0.59255143054E+02 -0.98007916038E+02  0.35563738255E+02  0.17328357985E+03  0.12508275653E+03 0.  0.
         24    2    1    2    0    0  0.58800917937E+02  0.96481746496E+02  0.21995873864E+03  0.26055966379E+03  0.82117089162E+02 0.  0.
        -11    1    5    5    0    0  0.78213784241E+02  0.83862990151E+02  0.16513483462E+03  0.20104703621E+03  0.00000000000E+00 0.  1.
         12    1    5    5    0    0 -0.19412866303E+02  0.12618756345E+02  0.54823904020E+02  0.59512627583E+02  0.00000000000E+00 0. -1.
         11    1    3    3    0    0  0.22561245741E+02 -0.20824203061E+02 -0.10623201433E+03  0.11057982687E+03  0.00000000000E+00 0. -1.
        -12    1    3    3    0    0 -0.22107020624E+02  0.22350372604E+02 -0.13516457385E+02  0.34219207131E+02  0.00000000000E+00 0.  1.
          5    1    4    4  501    0 -0.75097013668E+02 -0.11944427676E+03  0.38043622638E+02  0.14618921416E+03  0.41800000000E+01 0. -1.
         -5    1    4    4    0  501  0.15841870613E+02  0.21436360722E+02 -0.24798843827E+01  0.27094365689E+02  0.41800000000E+01 0. -1.
</event>
<event>
11    1  0.8551154E-009  0.1358852E+03  0.7561462E-02  0.1112242E+00
         22   -1    0    0    0    0  0.00000000000E+00  0.00000000000E+00  0.10289622009E+04  0.10289622009E+04  0.00000000000E+00 0.  1.
         22   -1    0    0    0    0 -0.00000000000E+00 -0.00000000000E+00 -0.95335914215E+02  0.95335914215E+02  0.00000000000E+00 0. -1.
         24    2    1    2    0    0  0.44323353619E+01 -0.18483903014E+02 -0.24532937813E+02  0.79762029887E+02  0.73476636467E+02 0.  0.
         25    2    1    2    0    0 -0.44527085637E+02  0.51795516059E+02  0.84879710910E+02  0.16588378793E+03  0.12508968356E+03 0.  0.
        -24    2    1    2    0    0  0.40094750275E+02 -0.33311613044E+02  0.87327951357E+03  0.87865229729E+03  0.81826023595E+02 0.  0.
        -13    1    3    3    0    0 -0.25994389196E+02 -0.18068198685E+01  0.12597852600E+02  0.28942680558E+02  0.00000000000E+00 0.  1.
         14    1    3    3    0    0  0.30426724558E+02 -0.16677083146E+02 -0.37130790413E+02  0.50819349330E+02  0.00000000000E+00 0. -1.
         13    1    5    5    0    0 -0.44079709693E+01  0.10640653416E+02  0.19968995502E+02  0.23052429255E+02  0.00000000000E+00 0. -1.
        -14    1    5    5    0    0  0.44502721244E+02 -0.43952266460E+02  0.85331051807E+03  0.85559986803E+03  0.00000000000E+00 0.  1.
          5    1    4    4  501    0 -0.88435594805E+01 -0.39161638014E+01 -0.30801843762E+02  0.32554122048E+02  0.41800000000E+01 0. -1.
         -5    1    4    4    0  501 -0.35683526156E+02  0.55711679860E+02  0.11568155467E+03  0.13332966588E+03  0.41800000000E+01 0. -1.
</event>
<event>
11    1  0.8551154E-009  0.1410187E+03  0.7561462E-02  0.1106426E+00
         22   -1    0    0    0    0  0.00000000000E+00  0.00000000000E+00  0.86385312825E+03  0.86385312825E+03  0.00000000000E+00 0. -1.
         22   -1    0    0    0    0 -0.00000000000E+00 -0.00000000000E+00 -0.12247455037E+04  0.12247455037E+04  0.00000000000E+00 0. -1.
        -24    2    1    2    0    0 -0.30969936475E+02 -0.10768332633E+02 -0.11734174713E+04  0.11767802788E+04  0.82632733294E+02 0.  0.
         25    2    1    2    0    0  0.85995881835E+02 -0.20916093247E+02  0.81742970175E+02  0.17366936513E+03  0.12508541307E+03 0.  0.
         24    2    1    2    0    0 -0.55025945360E+02  0.31684425880E+02  0.73078212568E+03  0.73814898804E+03  0.82399367897E+02 0.  0.
        -11    1    5    5    0    0  0.12302478613E+02  0.32039595371E+02  0.17771322417E+03  0.18099689693E+03  0.00000000000E+00 0.  1.
         12    1    5    5    0    0 -0.67328423973E+02 -0.35516949058E+00  0.55306890150E+03  0.55715209111E+03  0.00000000000E+00 0. -1.
         11    1    3    3    0    0 -0.14660604776E+02 -0.46963447521E+02 -0.65316844827E+03  0.65501871771E+03  0.00000000000E+00 0. -1.
        -12    1    3    3    0    0 -0.16309331699E+02  0.36195114888E+02 -0.52024902307E+03  0.52176156111E+03  0.00000000000E+00 0.  1.
          5    1    4    4  501    0  0.11754215695E+03 -0.15910360612E+02  0.51138409765E+02  0.12923586031E+03  0.41800000000E+01 0.  1.
         -5    1    4    4    0  501 -0.31546275117E+02 -0.50057326356E+01  0.30604560410E+02  0.44433504823E+02  0.41800000000E+01 0.  1.
</event>
<event>
11    1  0.8551154E-009  0.1505999E+03  0.7561462E-02  0.1096267E+00
         22   -1    0    0    0    0  0.00000000000E+00  0.00000000000E+00  0.23558917609E+03  0.23558917609E+03  0.00000000000E+00 0. -1.
         22   -1    0    0    0    0 -0.00000000000E+00 -0.00000000000E+00 -0.11838215625E+04  0.11838215625E+04  0.00000000000E+00 0. -1.
        -24    2    1    2    0    0  0.20844465007E+02  0.12803302623E+02 -0.98789683360E+03  0.99141075788E+03  0.79729045670E+02 0.  0.
         25    2    1    2    0    0  0.59188850519E+02 -0.41871047233E+02 -0.14828644520E+03  0.20710158068E+03  0.12508273370E+03 0.  0.
         24    2    1    2    0    0 -0.80033315526E+02  0.29067744610E+02  0.18795089238E+03  0.22089840003E+03  0.78868877370E+02 0.  0.
        -11    1    5    5    0    0 -0.51181926012E+01  0.24297667420E+02  0.82777077631E+01  0.26174280952E+02  0.00000000000E+00 0.  1.
         12    1    5    5    0    0 -0.74915122924E+02  0.47700771896E+01  0.17967318462E+03  0.19472411908E+03  0.00000000000E+00 0. -1.
         13    1    3    3    0    0 -0.20255962803E+02  0.21641600380E+02 -0.68137027675E+03  0.68201474833E+03  0.00000000000E+00 0. -1.
        -14    1    3    3    0    0  0.41100427810E+02 -0.88382977562E+01 -0.30652655685E+03  0.30939600955E+03  0.00000000000E+00 0.  1.
          5    1    4    4  501    0  0.65958018790E+02  0.23029720987E+02 -0.11268619416E+03  0.13265172085E+03  0.41800000000E+01 0. -1.
         -5    1    4    4    0  501 -0.67691682711E+01 -0.64900768220E+02 -0.35600251044E+02  0.74449859832E+02  0.41800000000E+01 0. -1.
</event>
<event>
11    1  0.8551154E-009  0.1585626E+03  0.7561462E-02  0.1088437E+00
         22   -1    0    0    0    0  0.00000000000E+00  0.00000000000E+00  0.78626390698E+03  0.78626390698E+03  0.00000000000E+00 0.  1.
         22   -1    0    0    0    0 -0.00000000000E+00 -0.00000000000E+00 -0.29296982283E+04  0.29296982283E+04  0.00000000000E+00 0. -1.
        -24    2    1    2    0    0 -0.88840675278E+02  0.39059998188E+02 -0.27820109413E+04  0.27848166063E+04  0.78742011662E+02 0.  0.
         25    2    1    2    0    0  0.92350828032E+02 -0.66604087680E+02 -0.94031909541E+02  0.19352990886E+03  0.12508815163E+03 0.  0.
         24    2    1    2    0    0 -0.35101527545E+01  0.27544089492E+02  0.73260852951E+03  0.73761562008E+03  0.81182186748E+02 0.  0.
        -11    1    5    5    0    0  0.12304856266E+02  0.53490521907E+02  0.43120759683E+03  0.43468682633E+03  0.00000000000E+00 0.  1.
         12    1    5    5    0    0 -0.15815009020E+02 -0.25946432415E+02  0.30140093268E+03  0.30292879375E+03  0.00000000000E+00 0. -1.
         11    1    3    3    0    0 -0.38405470098E+02  0.57981353487E+02 -0.17809089649E+04  0.17822664107E+04  0.00000000000E+00 0. -1.
        -12    1    3    3    0    0 -0.50435205180E+02 -0.18921355299E+02 -0.10011019763E+04  0.10025501956E+04  0.00000000000E+00 0.  1.
          5    1    4    4  501    0 -0.10817887915E+02 -0.64284202531E+02 -0.44090508427E+02  0.78809458363E+02  0.41800000000E+01 0. -1.
         -5    1    4    4    0  501  0.10316871595E+03 -0.23198851484E+01 -0.49941401113E+02  0.11472045050E+03  0.41800000000E+01 0. -1.
</event>
<event>
11    1  0.8551154E-009  0.1636820E+03  0.7561462E-02  0.1083664E+00
         22   -1    0    0    0    0  0.00000000000E+00  0.00000000000E+00  0.23294361664E+04  0.23294361664E+04  0.00000000000E+00 0. -1.
         22   -1    0    0    0    0 -0.00000000000E+00 -0.00000000000E+00 -0.15371529483E+04  0.15371529483E+04  0.00000000000E+00 0.  1.
        -24    2    1    2    0    0 -0.85042043726E+02  0.65969171765E+02 -0.11994227755E+04  0.12069823930E+04  0.81286049691E+02 0.  0.
         25    2    1    2    0    0  0.45202153790E+02 -0.93614036711E+02 -0.31313668350E+03  0.35285868458E+03  0.12509135122E+03 0.  0.
         24    2    1    2    0    0  0.39839889936E+02  0.27644864946E+02  0.23048426771E+04  0.23067480370E+04  0.80220227150E+02 0.  0.
        -13    1    5    5    0    0  0.21213611453E+02 -0.37272407376E+01  0.14441756075E+03  0.14601486735E+03  0.00000000000E+00 0.  1.
         14    1    5    5    0    0  0.18626278484E+02  0.31372105683E+02  0.21604251163E+04  0.21607331697E+04  0.00000000000E+00 0. -1.
         11    1    3    3    0    0 -0.44249690716E+02 -0.10813820566E+02 -0.31152627538E+03  0.31483899710E+03  0.00000000000E+00 0. -1.
        -12    1    3    3    0    0 -0.40792353010E+02  0.76782992332E+02 -0.88789650013E+03  0.89214339594E+03  0.00000000000E+00 0.  1.
          5    1    4    4  501    0  0.17372025247E+02 -0.20723539046E+02 -0.25244041041E+03  0.25391905312E+03  0.41800000000E+01 0. -1.
         -5    1    4    4    0  501  0.27830128543E+02 -0.72890497665E+02 -0.60696273095E+02  0.98939631454E+02  0.41800000000E+01 0. -1.
</event>
<event>
11    1  0.8551154E-009  0.1418703E+03  0.7561462E-02  0.1105488E+00
         22   -1    0    0    0    0  0.00000000000E+00  0.00000000000E+00  0.13672335737E+04  0.13672335737E+04  0.00000000000E+00 0.  1.
         22   -1    0    0    0    0 -0.00000000000E+00 -0.00000000000E+00 -0.17629851184E+03  0.17629851184E+03  0.00000000000E+00 0.  1.
        -24    2    1    2    0    0  0.37408487389E+01 -0.58817526258E+02 -0.95131575515E+02  0.13730756605E+03  0.79560390216E+02 0.  0.
         25    2    1    2    0    0 -0.68519749394E+02  0.40357431824E+02  0.37035484292E+02  0.15278296654E+03  0.12508928574E+03 0.  0.
         24    2    1    2    0    0  0.64778900655E+02  0.18460094434E+02  0.12490311530E+04  0.12534415529E+04  0.80621487509E+02 0.  0.
        -13    1    5    5    0    0  0.32312620188E+02 -0.25713988308E+02  0.80183040067E+03  0.80289308508E+03  0.00000000000E+00 0.  1.
         14    1    5    5    0    0  0.32466280467E+02  0.44174082742E+02  0.44720075237E+03  0.45054846784E+03  0.00000000000E+00 0. -1.
         11    1    3    3    0    0  0.27901872848E+02 -0.48548497048E+02 -0.22978202194E+02  0.60526596221E+02  0.00000000000E+00 0. -1.
        -12    1    3    3    0    0 -0.24161024109E+02 -0.10269029211E+02 -0.72153373321E+02  0.76780969833E+02  0.00000000000E+00 0.  1.
          5    1    4    4  501    0 -0.48335001633E+02  0.19715277138E+02 -0.42896232452E+02  0.67694340192E+02  0.41800000000E+01 0.  1.
         -5    1    4    4    0  501 -0.20184747761E+02  0.20642154686E+02  0.79931716743E+02  0.85088626348E+02  0.41800000000E+01 0.  1.
</event>
<event>
11    1  0.8551154E-009  0.1476868E+03  0.7561462E-02  0.1099266E+00
         22   -1    0    0    0    0  0.00000000000E+00  0.00000000000E+00  0.40767170197E+03  0.40767170197E+03  0.00000000000E+00 0.  1.
         22   -1    0    0    0    0 -0.00000000000E+00 -0.00000000000E+00 -0.45562012529E+03  0.45562012529E+03  0.00000000000E+00 0.  1.
        -24    2    1    2    0    0 -0.11774344146E+02  0.37439091494E+02 -0.40490348562E+03  0.41435141212E+03  0.78739693331E+02 0.  0.
         25    2    1    2    0    0  0.85578709316E+02 -0.42310901239E+02  0.15254901607E+03  0.21915342705E+03  0.12507235678E+03 0.  0.
         24    2    1    2    0    0 -0.73804365170E+02  0.48718097447E+01  0.20440604622E+03  0.22978698810E+03  0.74494357631E+02 0.  0.
        -13    1    5    5    0    0 -0.41704808520E+02 -0.25628668054E+02  0.15900173060E+03  0.16636607231E+03  0.00000000000E+00 0.  1.
         14    1    5    5    0    0 -0.32099556650E+02  0.30500477799E+02  0.45404315620E+02  0.63420915793E+02  0.00000000000E+00 0. -1.
         11    1    3    3    0    0 -0.11814327623E+01 -0.13634006699E+02 -0.12621184067E+02  0.18616557396E+02  0.00000000000E+00 0. -1.
        -12    1    3    3    0    0 -0.10592911384E+02  0.51073098193E+02 -0.39228230155E+03  0.39573485472E+03  0.00000000000E+00 0.  1.
          5    1    4    4  501    0 -0.23469895027E+02 -0.19618537317E+02  0.82209043274E+00  0.30884805516E+02  0.41800000000E+01 0. -1.
         -5    1    4    4    0  501  0.10904860434E+03 -0.22692363921E+02  0.15172692564E+03  0.18826862153E+03  0.41800000000E+01 0. -1.
</event>
<event>
11    1  0.8551154E-009  0.1628790E+03  0.7561462E-02  0.1084400E+00
         22   -1    0    0    0    0  0.00000000000E+00  0.00000000000E+00  0.43261168021E+03  0.43261168021E+03  0.00000000000E+00 0. -1.
         22   -1    0    0    0    0 -0.00000000000E+00 -0.00000000000E+00 -0.14715995396E+04  0.14715995396E+04  0.00000000000E+00 0. -1.
         24    2    1    2    0    0 -0.57358988486E+02 -0.26374660063E+02 -0.13528238077E+04  0.13567803745E+04  0.82067373271E+02 0.  0.
         25    2    1    2    0    0  0.14006352800E+03 -0.30512159267E+02 -0.16000611884E+02  0.19096302422E+03  0.12514820534E+03 0.  0.
        -24    2    1    2    0    0 -0.82704539512E+02  0.56886819330E+02  0.32983656024E+03  0.35646782103E+03  0.90559372168E+02 0.  0.
        -13    1    3    3    0    0 -0.31769594400E+02 -0.94535588899E+01 -0.15232485865E+03  0.15588951045E+03  0.00000000000E+00 0.  1.
         14    1    3    3    0    0 -0.25589394086E+02 -0.16921101173E+02 -0.12004989491E+04  0.12008908641E+04  0.00000000000E+00 0. -1.
         13    1    5    5    0    0 -0.22976385806E+01  0.11893995857E+01  0.16337506980E+03  0.16339555455E+03  0.00000000000E+00 0. -1.
        -14    1    5    5    0    0 -0.80406900931E+02  0.55697419744E+02  0.16646149045E+03  0.19307226648E+03  0.00000000000E+00 0.  1.
          5    1    4    4  501    0  0.12281143149E+03  0.42893734202E+00  0.35869043588E+02  0.12801129786E+03  0.41800000000E+01 0.  1.
         -5    1    4    4    0  501  0.17252096512E+02 -0.30941096609E+02 -0.51869655472E+02  0.62951726364E+02  0.41800000000E+01 0.  1.
</event>
<event>
11    1  0.8551154E-009  0.1830127E+03  0.7561462E-02  0.1067232E+00
         22   -1    0    0    0    0  0.00000000000E+00  0.00000000000E+00  0.49542561698E+03  0.49542561698E+03  0.00000000000E+00 0. -1.
         22   -1    0    0    0    0 -0.00000000000E+00 -0.00000000000E+00 -0.25135192464E+03  0.25135192464E+03  0.00000000000E+00 0.  1.
        -24    2    1    2    0    0 -0.17557271797E+02  0.75792552121E+02 -0.91489039050E+02  0.14442238063E+03  0.80217273762E+02 0.  0.
         25    2    1    2    0    0  0.90735295088E+02  0.43500431753E+02 -0.62942694085E+02  0.17244432432E+03  0.12510028343E+03 0.  0.
         24    2    1    2    0    0 -0.73178023291E+02 -0.11929298387E+03  0.39850542548E+03  0.42991083667E+03  0.80192981323E+02 0.  0.
        -11    1    5    5    0    0 -0.31966147361E+02 -0.33441742056E+02  0.47860756574E+02  0.66564530409E+02  0.00000000000E+00 0.  1.
         12    1    5    5    0    0 -0.41211875930E+02 -0.85851241818E+02  0.35064466891E+03  0.36334630626E+03  0.00000000000E+00 0. -1.
         13    1    3    3    0    0 -0.10016651480E+02  0.92391840107E+02 -0.70686426012E+02  0.11676110760E+03  0.00000000000E+00 0. -1.
        -14    1    3    3    0    0 -0.75406203170E+01 -0.16599287986E+02 -0.20802613038E+02  0.27661273029E+02  0.00000000000E+00 0.  1.
          5    1    4    4  501    0  0.47268796991E+02  0.86867778181E+02 -0.37491336133E+02  0.10584622213E+03  0.41800000000E+01 0. -1.
         -5    1    4    4    0  501  0.43466498097E+02 -0.43367346428E+02 -0.25451357952E+02  0.66598102185E+02  0.41800000000E+01 0. -1.
</event>
<event>
11    1  0.8551154E-009  0.1477734E+03  0.7561462E-02  0.1099176E+00
         22   -1    0    0    0    0  0.00000000000E+00  0.00000000000E+00  0.10540785171E+04  0.10540785171E+04  0.00000000000E+00 0. -1.
         22   -1    0    0    0    0 -0.00000000000E+00 -0.00000000000E+00 -0.22791788808E+03  0.22791788808E+03  0.00000000000E+00 0.  1.
         24    2    1    2    0    0  0.68334640393E+02 -0.27107162563E+02 -0.17246097800E+03  0.20449497675E+03  0.81676099598E+02 0.  0.
         25    2    1    2    0    0 -0.86101844485E+02 -0.50327449565E+02  0.14377159389E+03  0.21508572032E+03  0.12508083816E+03 0.  0.
        -24    2    1    2    0    0  0.17767204091E+02  0.77434612128E+02  0.85485001314E+03  0.86241570813E+03  0.81734423369E+02 0.  0.
        -13    1    3    3    0    0  0.39077264248E+02  0.23224159034E+02 -0.43118827384E+02  0.62654827578E+02  0.00000000000E+00 0.  1.
         14    1    3    3    0    0  0.29257376146E+02 -0.50331321597E+02 -0.12934215061E+03  0.14184014917E+03  0.00000000000E+00 0. -1.
         11    1    5    5    0    0  0.24489711519E+02  0.61034079420E+02  0.82559465301E+03  0.82820977771E+03  0.00000000000E+00 0. -1.
        -12    1    5    5    0    0 -0.67225074275E+01  0.16400532709E+02  0.29255360133E+02  0.34205930418E+02  0.00000000000E+00 0.  1.
          5    1    4    4  501    0 -0.42560015367E+02 -0.39922217727E+02 -0.59062266098E+01  0.58800461640E+02  0.41800000000E+01 0. -1.
         -5    1    4    4    0  501 -0.43541829118E+02 -0.10405231838E+02  0.14967782050E+03  0.15628525868E+03  0.41800000000E+01 0. -1.
</event>
<event>
11    1  0.8551154E-009  0.1470681E+03  0.7561462E-02  0.1099913E+00
         22   -1    0    0    0    0  0.00000000000E+00  0.00000000000E+00  0.92467772919E+03  0.92467772919E+03  0.00000000000E+00 0.  1.
         22   -1    0    0    0    0 -0.00000000000E+00 -0.00000000000E+00 -0.22649237526E+04  0.22649237526E+04  0.00000000000E+00 0.  1.
        -24    2    1    2    0    0  0.22606194076E+01  0.42629771311E+02 -0.20881010944E+04  0.20900445041E+04  0.79356415639E+02 0.  0.
         25    2    1    2    0    0  0.38301083091E+02 -0.10765312548E+03 -0.13069844445E+03  0.21397704892E+03  0.12509166914E+03 0.  0.
         24    2    1    2    0    0 -0.40561702498E+02  0.65023354172E+02  0.87855351544E+03  0.88557992881E+03  0.80760401849E+02 0.  0.
        -11    1    5    5    0    0 -0.49934680906E+02  0.76932243403E+02  0.63913808161E+03  0.64568531793E+03  0.00000000000E+00 0.  1.
         12    1    5    5    0    0  0.93729784079E+01 -0.11908889231E+02  0.23941543384E+03  0.23989461088E+03  0.00000000000E+00 0. -1.
         13    1    3    3    0    0 -0.31069152469E+00 -0.17156942394E+02 -0.14342195098E+03  0.14444484492E+03  0.00000000000E+00 0. -1.
        -14    1    3    3    0    0  0.25713109323E+01  0.59786713704E+02 -0.19446791434E+04  0.19455996592E+04  0.00000000000E+00 0.  1.
          5    1    4    4  501    0 -0.30043446914E+01 -0.12417806387E+03 -0.89061977841E+02  0.15290103313E+03  0.41800000000E+01 0. -1.
         -5    1    4    4    0  501  0.41305427782E+02  0.16524938389E+02 -0.41636466609E+02  0.61076015789E+02  0.41800000000E+01 0. -1.
</event>
<event>
11    1  0.8551154E-009  0.5615491E+03  0.7561462E-02  0.9265615E-01
         22   -1    0    0    0    0  0.00000000000E+00  0.00000000000E+00  0.42771145373E+03  0.42771145373E+03  0.00000000000E+00 0. -1.
         22   -1    0    0    0    0 -0.00000000000E+00 -0.00000000000E+00 -0.19745278842E+04  0.19745278842E+04  0.00000000000E+00 0.  1.
        -24    2    1    2    0    0 -0.87546029717E+02  0.65062150778E+02 -0.99988862789E+03  0.10089346028E+04  0.79210944197E+02 0.  0.
         25    2    1    2    0    0 -0.21892222539E+03  0.41926883876E+03 -0.64160564331E+03  0.80685771534E+03  0.12509305080E+03 0.  0.
         24    2    1    2    0    0  0.30646825511E+03 -0.48433098954E+03  0.94677840772E+02  0.58644701979E+03  0.80354929319E+02 0.  0.
        -13    1    5    5    0    0  0.36564996084E+02 -0.23486095491E+02  0.17433984430E+02  0.46824560149E+02  0.00000000000E+00 0.  1.
         14    1    5    5    0    0  0.26990325902E+03 -0.46084489405E+03  0.77243856342E+02  0.53962245964E+03  0.00000000000E+00 0. -1.
         13    1    3    3    0    0 -0.33034237620E+02  0.72609191883E+02 -0.59065565047E+03  0.59601799724E+03  0.00000000000E+00 0. -1.
        -14    1    3    3    0    0 -0.54511792097E+02 -0.75470411053E+01 -0.40923297742E+03  0.41291660552E+03  0.00000000000E+00 0.  1.
          5    1    4    4  501    0 -0.10003393568E+03  0.25689112929E+03 -0.27974167448E+03  0.39277565790E+03  0.41800000000E+01 0.  1.
         -5    1    4    4    0  501 -0.11888828971E+03  0.16237770947E+03 -0.36186396882E+03  0.41408205744E+03  0.41800000000E+01 0.  1.
</event>
<event>
11    1  0.8551154E-009  0.1354544E+03  0.7561462E-02  0.1112743E+00
         22   -1    0    0    0    0  0.00000000000E+00  0.00000000000E+00  0.96140934398E+03  0.96140934398E+03  0.00000000000E+00 0. -1.
         22   -1    0    0    0    0 -0.00000000000E+00 -0.00000000000E+00 -0.63486111537E+03  0.63486111537E+03  0.00000000000E+00 0. -1.
        -24    2    1    2    0    0  0.76881773371E+01 -0.50752694311E+02 -0.57600166716E+03  0.58395201172E+03  0.81160873361E+02 0.  0.
         25    2    1    2    0    0 -0.15477121001E+01  0.68368543094E+02  0.43106239195E+02  0.14892911508E+03  0.12508029566E+03 0.  0.
         24    2    1    2    0    0 -0.61404652370E+01 -0.17615848783E+02  0.85944365658E+03  0.86338933256E+03  0.80310131991E+02 0.  0.
        -11    1    5    5    0    0  0.35149918153E+02  0.43125873502E+01  0.40621926075E+03  0.40775998205E+03  0.00000000000E+00 0.  1.
         12    1    5    5    0    0 -0.41290383391E+02 -0.21928436133E+02  0.45322439583E+03  0.45562935051E+03  0.00000000000E+00 0. -1.
         11    1    3    3    0    0 -0.93471176667E+01 -0.40229743895E+02 -0.54785579321E+03  0.54941038492E+03  0.00000000000E+00 0. -1.
        -12    1    3    3    0    0  0.17035295004E+02 -0.10522950417E+02 -0.28145873947E+02  0.34541626794E+02  0.00000000000E+00 0.  1.
          5    1    4    4  501    0 -0.57310465451E+02  0.15900272066E+02 -0.25668016786E+01  0.59677206477E+02  0.41800000000E+01 0. -1.
         -5    1    4    4    0  501  0.55762753351E+02  0.52468271028E+02  0.45673040873E+02  0.89251908599E+02  0.41800000000E+01 0. -1.
</event>
<event>
11    1  0.8551154E-009  0.1499883E+03  0.7561462E-02  0.1096891E+00
         22   -1    0    0    0    0  0.00000000000E+00  0.00000000000E+00  0.10154258408E+03  0.10154258408E+03  0.00000000000E+00 0.  1.
         22   -1    0    0    0    0 -0.00000000000E+00 -0.00000000000E+00 -0.21584258587E+04  0.21584258587E+04  0.00000000000E+00 0. -1.
         24    2    1    2    0    0  0.51962729145E+02 -0.67667636731E+02 -0.19488864978E+04  0.19530440670E+04  0.94570143927E+02 0.  0.
         25    2    1    2    0    0  0.23181123861E+02  0.69859968673E+02 -0.12895322225E+03  0.19415000045E+03  0.12509000528E+03 0.  0.
        -24    2    1    2    0    0 -0.75143853006E+02 -0.21923319417E+01  0.20956445389E+02  0.11277437536E+03  0.81409349407E+02 0.  0.
        -11    1    3    3    0    0  0.69458222655E+01  0.12519779851E+02 -0.52151100337E+02  0.54080741497E+02  0.00000000000E+00 0.  1.
         12    1    3    3    0    0  0.45016906879E+02 -0.80187416582E+02 -0.18967353974E+04  0.18989633255E+04  0.00000000000E+00 0. -1.
         13    1    5    5    0    0 -0.17300958152E+02 -0.57334786069E+00 -0.30675432385E+02  0.35222635233E+02  0.00000000000E+00 0. -1.
        -14    1    5    5    0    0 -0.57842894854E+02 -0.16189840811E+01  0.51631877774E+02  0.77551740129E+02  0.00000000000E+00 0.  1.
          5    1    4    4  501    0 -0.50011408633E+01  0.63260967969E+01 -0.12401330745E+03  0.12434550146E+03  0.41800000000E+01 0. -1.
         -5    1    4    4    0  501  0.28182264724E+02  0.63533871876E+02 -0.49399148031E+01  0.69804498987E+02  0.41800000000E+01 0. -1.
</event>
<event>
11    1  0.8551154E-009  0.1775212E+03  0.7561462E-02  0.1071666E+00
         22   -1    0    0    0    0  0.00000000000E+00  0.00000000000E+00  0.17165073541E+04  0.17165073541E+04  0.00000000000E+00 0.  1.
         22   -1    0    0    0    0 -0.00000000000E+00 -0.00000000000E+00 -0.50887918770E+03  0.50887918770E+03  0.00000000000E+00 0. -1.
         24    2    1    2    0    0  0.33679318037E+02  0.46359351622E+02 -0.36053312752E+03  0.37405743695E+03  0.81555773251E+02 0.  0.
         25    2    1    2    0    0  0.87160258622E+02 -0.83274341277E+02 -0.84129981756E+02  0.19302070439E+03  0.12509041488E+03 0.  0.
        -24    2    1    2    0    0 -0.12083957666E+03  0.36914989655E+02  0.16522912757E+04  0.16583084005E+04  0.62891745184E+02 0.  0.
        -13    1    3    3    0    0  0.33688559343E+02 -0.10005571134E+02 -0.21746883171E+03  0.22029008886E+03  0.00000000000E+00 0.  1.
         14    1    3    3    0    0 -0.92413062286E-02  0.56364922756E+02 -0.14306429581E+03  0.15376734809E+03  0.00000000000E+00 0. -1.
         13    1    5    5    0    0 -0.45069303311E+02  0.32965419843E+02  0.42177374571E+03  0.42545393826E+03  0.00000000000E+00 0. -1.
        -14    1    5    5    0    0 -0.75770273348E+02  0.39495698121E+01  0.12305175300E+04  0.12328544622E+04  0.00000000000E+00 0.  1.
          5    1    4    4  501    0  0.75536832684E+02  0.11079067232E+02 -0.22705480933E+02  0.79759451397E+02  0.41800000000E+01 0.  1.
         -5    1    4    4    0  501  0.11623425938E+02 -0.94353408509E+02 -0.61424500823E+02  0.11326125299E+03  0.41800000000E+01 0.  1.
</event>
<event>
11    1  0.8551154E-009  0.1533235E+03  0.7561462E-02  0.1093530E+00
         22   -1    0    0    0    0  0.00000000000E+00  0.00000000000E+00  0.11401567506E+03  0.11401567506E+03  0.00000000000E+00 0. -1.
         22   -1    0    0    0    0 -0.00000000000E+00 -0.00000000000E+00 -0.23099073972E+04  0.23099073972E+04  0.00000000000E+00 0. -1.
        -24    2    1    2    0    0 -0.58955896878E+02  0.31625448796E+02 -0.18082333651E+04  0.18112962671E+04  0.81303739143E+02 0.  0.
         25    2    1    2    0    0 -0.14801068647E+02 -0.84403424745E+02 -0.45143523559E+03  0.47621923000E+03  0.12509185963E+03 0.  0.
         24    2    1    2    0    0  0.73756965525E+02  0.52777975949E+02  0.63776878522E+02  0.13640757511E+03  0.79460251736E+02 0.  0.
        -13    1    5    5    0    0  0.16124579977E+02 -0.14620778415E+02 -0.70882018591E+01  0.22891305042E+02  0.00000000000E+00 0.  1.
         14    1    5    5    0    0  0.57632385547E+02  0.67398754364E+02  0.70865080382E+02  0.11351627007E+03  0.00000000000E+00 0. -1.
         13    1    3    3    0    0 -0.54641201139E+02 -0.15775321846E+02 -0.87065988706E+03  0.87251542139E+03  0.00000000000E+00 0. -1.
        -14    1    3    3    0    0 -0.43146957383E+01  0.47400770641E+02 -0.93757347803E+03  0.93878084576E+03  0.00000000000E+00 0.  1.
          5    1    4    4  501    0  0.37358356526E+02 -0.29589006211E+02 -0.32732451004E+03  0.33080200024E+03  0.41800000000E+01 0.  1.
         -5    1    4    4    0  501 -0.52159425173E+02 -0.54814418533E+02 -0.12411072555E+03  0.14541722976E+03  0.41800000000E+01 0.  1.
</event>
<event>
11    1  0.8551154E-009  0.7157091E+03  0.7561462E-02  0.9009470E-01
         22   -1    0    0    0    0  0.00000000000E+00  0.00000000000E+00  0.51729362921E+03  0.51729362921E+03  0.00000000000E+00 0. -1.
         22   -1    0    0    0    0 -0.00000000000E+00 -0.00000000000E+00 -0.18804487186E+04  0.18804487186E+04  0.00000000000E+00 0. -1.
         24    2    1    2    0    0  0.79391987275E+03 -0.53830123021E+02 -0.93623293133E+03  0.12313547157E+04  0.80597069331E+02 0.  0.
         25    2    1    2    0    0 -0.61878939603E+03 -0.10400039041E+03 -0.58861399547E+03  0.86938567229E+03  0.12509441904E+03 0.  0.
        -24    2    1    2    0    0 -0.17513047672E+03  0.15783051343E+03  0.16169183736E+03  0.29700195991E+03  0.80528001804E+02 0.  0.
        -13    1    3    3    0    0  0.44903097401E+03 -0.41077631478E+02 -0.58902368494E+03  0.74179855005E+03  0.00000000000E+00 0.  1.
         14    1    3    3    0    0  0.34488889874E+03 -0.12752491543E+02 -0.34720924639E+03  0.48955616562E+03  0.00000000000E+00 0. -1.
         11    1    5    5    0    0 -0.16070689515E+03  0.10424957190E+03  0.10857925207E+03  0.22019112918E+03  0.00000000000E+00 0. -1.
        -12    1    5    5    0    0 -0.14423581567E+02  0.53580941524E+02  0.53112585293E+02  0.76810830723E+02  0.00000000000E+00 0.  1.
          5    1    4    4  501    0 -0.33315851210E+03 -0.63795090701E+01 -0.36109768649E+03  0.49136982397E+03  0.41800000000E+01 0.  1.
         -5    1    4    4    0  501 -0.28563088393E+03 -0.97620881337E+02 -0.22751630897E+03  0.37801584832E+03  0.41800000000E+01 0.  1.
</event>
<event>
11    1  0.8551154E-009  0.1531798E+03  0.7561462E-02  0.1093673E+00
         22   -1    0    0    0    0  0.00000000000E+00  0.00000000000E+00  0.28086450528E+03  0.28086450528E+03  0.00000000000E+00 0.  1.
         22   -1    0    0    0    0 -0.00000000000E+00 -0.00000000000E+00 -0.15948531914E+04  0.15948531914E+04  0.00000000000E+00 0. -1.
        -24    2    1    2    0    0 -0.20568233627E+02  0.84134365546E+02 -0.13356680039E+04  0.13407280986E+04  0.77724988880E+02 0.  0.
         25    2    1    2    0    0  0.63084952060E+02 -0.95595299506E+02 -0.21934911367E+03  0.27728452666E+03  0.12511795473E+03 0.  0.
         24    2    1    2    0    0 -0.42516718433E+02  0.11460933961E+02  0.24102843144E+03  0.25770507147E+03  0.79863475647E+02 0.  0.
        -13    1    5    5    0    0 -0.57064199488E+02  0.25195968517E+02  0.12216282513E+03  0.13716747259E+03  0.00000000000E+00 0.  1.
         14    1    5    5    0    0  0.14547481055E+02 -0.13735034556E+02  0.11886560631E+03  0.12053759887E+03  0.00000000000E+00 0. -1.
         13    1    3    3    0    0 -0.38528542347E+02  0.10329320729E+02 -0.52227894169E+03  0.52379999653E+03  0.00000000000E+00 0. -1.
        -14    1    3    3    0    0  0.17960308721E+02  0.73805044816E+02 -0.81338906223E+03  0.81692810203E+03  0.00000000000E+00 0.  1.
          5    1    4    4  501    0 -0.26248196175E+00 -0.61481518714E+02 -0.18951664527E+03  0.19928391123E+03  0.41800000000E+01 0. -1.
         -5    1    4    4    0  501  0.63347434022E+02 -0.34113780792E+02 -0.29832468395E+02  0.78000615431E+02  0.41800000000E+01 0. -1.
</event>
<event>
11    1  0.8551154E-009  0.1326986E+03  0.7561462E-02  0.1115997E+00
         22   -1    0    0    0    0  0.00000000000E+00  0.00000000000E+00  0.91825082029E+03  0.91825082029E+03  0.00000000000E+00 0. -1.
         22   -1    0    0    0    0 -0.00000000000E+00 -0.00000000000E+00 -0.89144612226E+03  0.89144612226E+03  0.00000000000E+00 0. -1.
        -24    2    1    2    0    0  0.32258688586E+02  0.30384554496E+02 -0.87416428674E+03  0.87872793018E+03  0.77689966776E+02 0.  0.
         25    2    1    2    0    0 -0.44213408049E+02 -0.66813172027E+01  0.36810969606E+03  0.39134799962E+03  0.12509613512E+03 0.  0.
         24    2    1    2    0    0  0.11954719462E+02 -0.23703237293E+02  0.53285928871E+03  0.53962101276E+03  0.80913886777E+02 0.  0.
        -13    1    5    5    0    0 -0.24533117824E+01  0.24766239736E+02  0.75982485113E+02  0.79954508399E+02  0.00000000000E+00 0.  1.
         14    1    5    5    0    0  0.14408031245E+02 -0.48469477029E+02  0.45687680360E+03  0.45966650436E+03  0.00000000000E+00 0. -1.
         11    1    3    3    0    0  0.52785821350E+02  0.40161257607E+02 -0.68438788531E+03  0.68759439141E+03  0.00000000000E+00 0. -1.
        -12    1    3    3    0    0 -0.20527132763E+02 -0.97767031115E+01 -0.18977640143E+03  0.19113353877E+03  0.00000000000E+00 0.  1.
          5    1    4    4  501    0 -0.64221679420E+02 -0.23417321420E+02  0.35556971515E+03  0.36210508113E+03  0.41800000000E+01 0.  1.
         -5    1    4    4    0  501  0.20008271371E+02  0.16736004217E+02  0.12539980912E+02  0.29242918488E+02  0.41800000000E+01 0.  1.
</event>
<event>
11    1  0.8551154E-009  0.1670685E+03  0.7561462E-02  0.1080611E+00
         22   -1    0    0    0    0  0.00000000000E+00  0.00000000000E+00  0.41882831662E+03  0.41882831662E+03  0.00000000000E+00 0.  1.
         22   -1    0    0    0    0 -0.00000000000E+00 -0.00000000000E+00 -0.23283765414E+04  0.23283765414E+04  0.00000000000E+00 0.  1.
        -24    2    1    2    0    0 -0.30048566590E+02  0.10880594526E+03 -0.22449983936E+04  0.22492537042E+04  0.79892354477E+02 0.  0.
         25    2    1    2    0    0  0.10338661339E+01 -0.50791600701E+02 -0.13133152957E+02  0.13565071132E+03  0.12509108759E+03 0.  0.
         24    2    1    2    0    0  0.29014700456E+02 -0.58014344558E+02  0.34858332178E+03  0.36230044255E+03  0.74456439850E+02 0.  0.
        -11    1    5    5    0    0  0.27880094794E+02 -0.19988679248E+02  0.29266294987E+03  0.29466667476E+03  0.00000000000E+00 0.  1.
         12    1    5    5    0    0  0.11346056621E+01 -0.38025665310E+02  0.55920371904E+02  0.67633767795E+02  0.00000000000E+00 0. -1.
         11    1    3    3    0    0  0.26436471097E+01  0.66472411070E+01 -0.88601291645E+03  0.88604179518E+03  0.00000000000E+00 0. -1.
        -12    1    3    3    0    0 -0.32692213699E+02  0.10215870415E+03 -0.13589854772E+04  0.13632119090E+04  0.00000000000E+00 0.  1.
          5    1    4    4  501    0  0.27451007683E+02 -0.60652898511E+02  0.38246293969E+02  0.76893324307E+02  0.41800000000E+01 0. -1.
         -5    1    4    4    0  501 -0.26417141549E+02  0.98612978100E+01 -0.51379446927E+02  0.58757387013E+02  0.41800000000E+01 0. -1.
</event>
<event>
11    1  0.8551154E-009  0.1758859E+03  0.7561462E-02  0.1073020E+00
         22   -1    0    0    0    0  0.00000000000E+00  0.00000000000E+00  0.48220251123E+03  0.48220251123E+03  0.00000000000E+00 0. -1.
         22   -1    0    0    0    0 -0.00000000000E+00 -0.00000000000E+00 -0.95372043321E+03  0.95372043321E+03  0.00000000000E+00 0.  1.
         24    2    1    2    0    0 -0.22990406467E+01  0.11789645809E+03 -0.78131776564E+03  0.79422915816E+03  0.80234932213E+02 0.  0.
         25    2    1    2    0    0 -0.25983497132E+02 -0.21053297115E+03 -0.57870822427E+02  0.25297315604E+03  0.12508841482E+03 0.  0.
        -24    2    1    2    0    0  0.28282537778E+02  0.92636513061E+02  0.36767066608E+03  0.38872063024E+03  0.80873878255E+02 0.  0.
        -11    1    3    3    0    0  0.25124240952E+01  0.82067346180E+02 -0.70519235832E+03  0.70995607175E+03  0.00000000000E+00 0.  1.
         12    1    3    3    0    0 -0.48114647420E+01  0.35829111908E+02 -0.76125407326E+02  0.84273086413E+02  0.00000000000E+00 0. -1.
         13    1    5    5    0    0  0.87540380811E+01  0.80297448767E+02  0.35115170543E+03  0.36032184736E+03  0.00000000000E+00 0. -1.
        -14    1    5    5    0    0  0.19528499697E+02  0.12339064294E+02  0.16518960656E+02  0.28398782883E+02  0.00000000000E+00 0.  1.
          5    1    4    4  501    0 -0.23041423489E+02 -0.19921281994E+03 -0.89011036342E+02  0.21944724153E+03  0.41800000000E+01 0. -1.
         -5    1    4    4    0  501 -0.29420736425E+01 -0.11320151207E+02  0.31140213915E+02  0.33525914504E+02  0.41800000000E+01 0. -1.
</event>
<event>
11    1  0.8551154E-009  0.1643809E+03  0.7561462E-02  0.1083028E+00
         22   -1    0    0    0    0  0.00000000000E+00  0.00000000000E+00  0.15881416146E+04  0.15881416146E+04  0.00000000000E+00 0. -1.
         22   -1    0    0    0    0 -0.00000000000E+00 -0.00000000000E+00 -0.62728572635E+02  0.62728572635E+02  0.00000000000E+00 0.  1.
        -24    2    1    2    0    0  0.85600960097E+01  0.10545274178E+03  0.40879401927E+02  0.13945931195E+03  0.81143195614E+02 0.  0.
         25    2    1    2    0    0  0.28337603295E+02 -0.11478005173E+03  0.65837191698E+03  0.68049955904E+03  0.12509431942E+03 0.  0.
         24    2    1    2    0    0 -0.36897699305E+02  0.93273099454E+01  0.82616172301E+03  0.83091131620E+03  0.80137281530E+02 0.  0.
        -13    1    5    5    0    0 -0.36756290435E+02 -0.24528224868E+02  0.25920591251E+03  0.26294555288E+03  0.00000000000E+00 0.  1.
         14    1    5    5    0    0 -0.14140886991E+00  0.33855534814E+02  0.56695581050E+03  0.56796576331E+03  0.00000000000E+00 0. -1.
         11    1    3    3    0    0 -0.31976525000E+02  0.17604015308E+02  0.13377244423E+02  0.38876087436E+02  0.00000000000E+00 0. -1.
        -12    1    3    3    0    0  0.40536621009E+02  0.87848726476E+02  0.27502157505E+02  0.10058322451E+03  0.00000000000E+00 0.  1.
          5    1    4    4  501    0 -0.35888033738E+02  0.27343665386E+01  0.18583229469E+03  0.18933183007E+03  0.41800000000E+01 0. -1.
         -5    1    4    4    0  501  0.64225637033E+02 -0.11751441827E+03  0.47253962229E+03  0.49116772898E+03  0.41800000000E+01 0. -1.
</event>
<event>
11    1  0.8551154E-009  0.1922919E+03  0.7561462E-02  0.1060112E+00
         22   -1    0    0    0    0  0.00000000000E+00  0.00000000000E+00  0.83849498755E+03  0.83849498755E+03  0.00000000000E+00 0.  1.
         22   -1    0    0    0    0 -0.00000000000E+00 -0.00000000000E+00 -0.42363938849E+03  0.42363938849E+03  0.00000000000E+00 0.  1.
        -24    2    1    2    0    0 -0.29377806990E+02 -0.13788031763E+03 -0.33685018427E+03  0.37395076517E+03  0.80604532110E+02 0.  0.
         25    2    1    2    0    0  0.10769797855E+03  0.25543284861E+03  0.41375048960E+03  0.51350044222E+03  0.12509373202E+03 0.  0.
         24    2    1    2    0    0 -0.78320171556E+02 -0.11755253098E+03  0.33795529373E+03  0.37468316864E+03  0.78873629902E+02 0.  0.
        -13    1    5    5    0    0 -0.58364029601E+02 -0.11738901711E+03  0.32611311340E+03  0.35147731651E+03  0.00000000000E+00 0.  1.
         14    1    5    5    0    0 -0.19956141955E+02 -0.16351387640E+00  0.11842180330E+02  0.23205852138E+02  0.00000000000E+00 0. -1.
         11    1    3    3    0    0  0.93337213981E+01 -0.29329328256E+02 -0.19782945847E+02  0.36588151053E+02  0.00000000000E+00 0. -1.
        -12    1    3    3    0    0 -0.38711528388E+02 -0.10855098938E+03 -0.31706723842E+03  0.33736261412E+03  0.00000000000E+00 0.  1.
          5    1    4    4  501    0  0.68756326525E+02  0.76965572361E+02  0.71789487959E+02  0.12578686238E+03  0.41800000000E+01 0.  1.
         -5    1    4    4    0  501  0.38941652021E+02  0.17846727625E+03  0.34196100164E+03  0.38771357984E+03  0.41800000000E+01 0.  1.
</event>
<event>
11    1  0.8551154E-009  0.1277930E+03  0.7561462E-02  0.1122011E+00
         22   -1    0    0    0    0  0.00000000000E+00  0.00000000000E+00  0.19224319341E+04  0.19224319341E+04  0.00000000000E+00 0.  1.
         22   -1    0    0    0    0 -0.00000000000E+00 -0.00000000000E+00 -0.16031161493E+03  0.16031161493E+03  0.00000000000E+00 0. -1.
        -24    2    1    2    0    0 -0.10233220895E+02 -0.24062231722E+02 -0.13269760770E+03  0.15698071257E+03  0.79690521558E+02 0.  0.
         25    2    1    2    0    0  0.11672074410E+02  0.23046320210E+02  0.26605115936E+03  0.29512493528E+03  0.12509251708E+03 0.  0.
         24    2    1    2    0    0 -0.14388535156E+01  0.10159115118E+01  0.16287667675E+04  0.16306379011E+04  0.78074832428E+02 0.  0.
        -13    1    5    5    0    0  0.91637664074E+01 -0.40377178307E+00  0.15986750112E+04  0.15987013258E+04  0.00000000000E+00 0.  1.
         14    1    5    5    0    0 -0.10602619923E+02  0.14196832949E+01  0.30091756245E+02  0.31936575330E+02  0.00000000000E+00 0. -1.
         13    1    3    3    0    0 -0.42719219959E+02 -0.27753772344E+02 -0.86444446869E+02  0.10033865670E+03  0.00000000000E+00 0. -1.
        -14    1    3    3    0    0  0.32485999064E+02  0.36915406218E+01 -0.46253160828E+02  0.56642055877E+02  0.00000000000E+00 0.  1.
          5    1    4    4  501    0 -0.56407493982E+02  0.17439073155E+02  0.11744151926E+03  0.13151391369E+03  0.41800000000E+01 0.  1.
         -5    1    4    4    0  501  0.68079568393E+02  0.56072470549E+01  0.14860964011E+03  0.16361102159E+03  0.41800000000E+01 0.  1.
</event>
<event>
11    1  0.8551154E-009  0.1353418E+03  0.7561462E-02  0.1112874E+00
         22   -1    0    0    0    0  0.00000000000E+00  0.00000000000E+00  0.28112641695E+04  0.28112641695E+04  0.00000000000E+00 0. -1.
         22   -1    0    0    0    0 -0.00000000000E+00 -0.00000000000E+00 -0.17685718368E+03  0.17685718368E+03  0.00000000000E+00 0.  1.
        -24    2    1    2    0    0 -0.30261757876E+02  0.11695142307E+02 -0.15284768177E+03  0.17564190694E+03  0.80219170453E+02 0.  0.
         25    2    1    2    0    0  0.77478544046E+02  0.37988836786E+01  0.45398880670E+03  0.47725345113E+03  0.12509062193E+03 0.  0.
         24    2    1    2    0    0 -0.47216786169E+02 -0.15494025985E+02  0.23332658609E+04  0.23352259951E+04  0.81739714871E+02 0.  0.
        -13    1    5    5    0    0 -0.35467893579E+02  0.14336118842E+02  0.43218982392E+03  0.43387963731E+03  0.00000000000E+00 0.  1.
         14    1    5    5    0    0 -0.11748892590E+02 -0.29830144827E+02  0.19010760370E+04  0.19013463578E+04  0.00000000000E+00 0. -1.
         13    1    3    3    0    0  0.27268661855E+02  0.49589270253E+01 -0.38234022500E+02  0.47222996021E+02  0.00000000000E+00 0. -1.
        -14    1    3    3    0    0 -0.57530419732E+02  0.67362152813E+01 -0.11461365927E+03  0.12841891092E+03  0.00000000000E+00 0.  1.
          5    1    4    4  501    0  0.73757589693E+02  0.54808349937E+02  0.23569834721E+03  0.25301249088E+03  0.41800000000E+01 0. -1.
         -5    1    4    4    0  501  0.37209543533E+01 -0.51009466258E+02  0.21829045949E+03  0.22424096025E+03  0.41800000000E+01 0. -1.
</event>
<event>
11    1  0.8551154E-009  0.1647287E+03  0.7561462E-02  0.1082712E+00
         22   -1    0    0    0    0  0.00000000000E+00  0.00000000000E+00  0.33784688203E+02  0.33784688203E+02  0.00000000000E+00 0. -1.
         22   -1    0    0    0    0 -0.00000000000E+00 -0.00000000000E+00 -0.22207979246E+04  0.22207979246E+04  0.00000000000E+00 0. -1.
        -24    2    1    2    0    0 -0.93859376705E+02 -0.40403847266E+02 -0.13092427924E+04  0.13156821203E+04  0.80378470923E+02 0.  0.
         25    2    1    2    0    0  0.89832205845E+02  0.95837094992E+02 -0.77392955207E+03  0.79490243653E+03  0.12509339731E+03 0.  0.
         24    2    1    2    0    0  0.40271708598E+01 -0.55433247726E+02 -0.10384089188E+03  0.14399805599E+03  0.82845918693E+02 0.  0.
        -13    1    5    5    0    0  0.24646990958E+02  0.13177179145E+02 -0.25421198583E+02  0.37780279921E+02  0.00000000000E+00 0.  1.
         14    1    5    5    0    0 -0.20619820098E+02 -0.68610426871E+02 -0.78419693296E+02  0.10621777607E+03  0.00000000000E+00 0. -1.
         11    1    3    3    0    0 -0.97537003225E+02 -0.93226056908E+01 -0.92869312982E+03  0.93384758251E+03  0.00000000000E+00 0. -1.
        -12    1    3    3    0    0  0.36776265200E+01 -0.31081241575E+02 -0.38054966259E+03  0.38183453775E+03  0.00000000000E+00 0.  1.
          5    1    4    4  501    0  0.54460906763E+02 -0.21506005968E+02 -0.26017670471E+03  0.26671686998E+03  0.41800000000E+01 0.  1.
         -5    1    4    4    0  501  0.35371299082E+02  0.11734310096E+03 -0.51375284736E+03  0.52818556655E+03  0.41800000000E+01 0.  1.
</event>
<event>
11    1  0.8551154E-009  0.1363072E+03  0.7561462E-02  0.1111753E+00
         22   -1    0    0    0    0  0.00000000000E+00  0.00000000000E+00  0.10257289203E+04  0.10257289203E+04  0.00000000000E+00 0. -1.
         22   -1    0    0    0    0 -0.00000000000E+00 -0.00000000000E+00 -0.61543257389E+03  0.61543257389E+03  0.00000000000E+00 0. -1.
        -24    2    1    2    0    0  0.26813909387E+02 -0.47817140984E+01 -0.48126896902E+03  0.48870471921E+03  0.80440235666E+02 0.  0.
         25    2    1    2    0    0 -0.33513904615E+02 -0.48992013989E+02 -0.90633482443E+02  0.16547981582E+03  0.12508294076E+03 0.  0.
         24    2    1    2    0    0  0.66999952281E+01  0.53773728088E+02  0.98219879786E+03  0.98697695915E+03  0.80452070268E+02 0.  0.
        -13    1    5    5    0    0 -0.13715175131E+02 -0.97403388362E+00  0.30154855210E+02  0.33141666578E+02  0.00000000000E+00 0.  1.
         14    1    5    5    0    0  0.20415170359E+02  0.54747761971E+02  0.95204394265E+03  0.95383529257E+03  0.00000000000E+00 0. -1.
         11    1    3    3    0    0  0.12114329284E+02  0.96489039180E+01 -0.45527510823E+03  0.45553845336E+03  0.00000000000E+00 0. -1.
        -12    1    3    3    0    0  0.14699580103E+02 -0.14430618016E+02 -0.25993860789E+02  0.33166265848E+02  0.00000000000E+00 0.  1.
          5    1    4    4  501    0 -0.51561198968E+02 -0.73847765304E+02 -0.26065796363E+02  0.93855995117E+02  0.41800000000E+01 0.  1.
         -5    1    4    4    0  501  0.18047294353E+02  0.24855751315E+02 -0.64567686079E+02  0.71623820706E+02  0.41800000000E+01 0.  1.
</event>
<event>
11    1  0.8551154E-009  0.2174237E+03  0.7561462E-02  0.1042843E+00
         22   -1    0    0    0    0  0.00000000000E+00  0.00000000000E+00  0.46467334923E+02  0.46467334923E+02  0.00000000000E+00 0. -1.
         22   -1    0    0    0    0 -0.00000000000E+00 -0.00000000000E+00 -0.14452755141E+04  0.14452755141E+04  0.00000000000E+00 0. -1.
         24    2    1    2    0    0 -0.18822411094E+03  0.29382641244E+02 -0.77932273615E+03  0.80653152986E+03  0.82810180770E+02 0.  0.
         25    2    1    2    0    0  0.15494812059E+03 -0.10014311491E+02 -0.37763244176E+03  0.42703954752E+03  0.12508919846E+03 0.  0.
        -24    2    1    2    0    0  0.33275990352E+02 -0.19368329753E+02 -0.24185300128E+03  0.25817177165E+03  0.81715149849E+02 0.  0.
        -11    1    3    3    0    0 -0.34277123110E+02 -0.26036801836E+02 -0.19778050912E+03  0.20241039006E+03  0.00000000000E+00 0.  1.
         12    1    3    3    0    0 -0.15394698783E+03  0.55419443080E+02 -0.58154222703E+03  0.60412113980E+03  0.00000000000E+00 0. -1.
         11    1    5    5    0    0  0.30701294639E+02 -0.49616101873E+02 -0.18091542610E+03  0.19009134241E+03  0.00000000000E+00 0. -1.
        -12    1    5    5    0    0  0.25746957126E+01  0.30247772120E+02 -0.60937575182E+02  0.68080429238E+02  0.00000000000E+00 0.  1.
          5    1    4    4  501    0  0.94074848645E+01 -0.36235622807E+02 -0.15658656552E+03  0.16105386066E+03  0.41800000000E+01 0. -1.
         -5    1    4    4    0  501  0.14554063573E+03  0.26221311317E+02 -0.22104587623E+03  0.26598568686E+03  0.41800000000E+01 0. -1.
</event>
<event>
11    1  0.8551154E-009  0.1365507E+03  0.7561462E-02  0.1111472E+00
         22   -1    0    0    0    0  0.00000000000E+00  0.00000000000E+00  0.27159507614E+04  0.27159507614E+04  0.00000000000E+00 0. -1.
         22   -1    0    0    0    0 -0.00000000000E+00 -0.00000000000E+00 -0.40004540692E+03  0.40004540692E+03  0.00000000000E+00 0. -1.
        -24    2    1    2    0    0  0.47374538081E+02  0.27341764182E+02 -0.37504430442E+03  0.38749928673E+03  0.80656977409E+02 0.  0.
         25    2    1    2    0    0 -0.43391076269E+02 -0.39438742712E+02  0.24597380387E+03  0.28211496424E+03  0.12509013123E+03 0.  0.
         24    2    1    2    0    0 -0.39834618119E+01  0.12096978530E+02  0.24449758551E+04  0.24463819174E+04  0.81947233112E+02 0.  0.
        -11    1    5    5    0    0  0.84513964380E+01 -0.31366931153E+02  0.14695455661E+04  0.14699045824E+04  0.00000000000E+00 0.  1.
         12    1    5    5    0    0 -0.12434858250E+02  0.43463909683E+02  0.97543028896E+03  0.97647733499E+03  0.00000000000E+00 0. -1.
         11    1    3    3    0    0  0.10658563418E+02  0.19734021568E+02 -0.32065063617E+03  0.32143407887E+03  0.00000000000E+00 0. -1.
        -12    1    3    3    0    0  0.36715974663E+02  0.76077426139E+01 -0.54393668256E+02  0.66065207859E+02  0.00000000000E+00 0.  1.
          5    1    4    4  501    0 -0.25240473904E+02 -0.50977956526E+02  0.25280868595E+03  0.25916314874E+03  0.41800000000E+01 0.  1.
         -5    1    4    4    0  501 -0.18150602365E+02  0.11539213813E+02 -0.68348820770E+01  0.22951815498E+02  0.41800000000E+01 0.  1.
</event>
<event>
11    1  0.8551154E-009  0.1293702E+03  0.7561462E-02  0.1120045E+00
         22   -1    0    0    0    0  0.00000000000E+00  0.00000000000E+00  0.99586435004E+02  0.99586435004E+02  0.00000000000E+00 0.  1.
         22   -1    0    0    0    0 -0.00000000000E+00 -0.00000000000E+00 -0.63180237291E+03  0.63180237291E+03  0.00000000000E+00 0. -1.
         24    2    1    2    0    0  0.33438909457E+02 -0.39606881291E+02 -0.49692276197E+03  0.50236518948E+03  0.52456520349E+02 0.  0.
         25    2    1    2    0    0 -0.21214819962E+02  0.60064503459E+02 -0.35651137507E+02  0.14481859520E+03  0.12507441284E+03 0.  0.
        -24    2    1    2    0    0 -0.12224089495E+02 -0.20457622167E+02  0.35796156843E+00  0.84205023236E+02  0.80761470597E+02 0.  0.
        -11    1    3    3    0    0  0.26127523418E+02 -0.18483825542E+02 -0.10414090612E+03  0.10894782060E+03  0.00000000000E+00 0.  1.
         12    1    3    3    0    0  0.73113860386E+01 -0.21123055749E+02 -0.39278185585E+03  0.39341736888E+03  0.00000000000E+00 0. -1.
         11    1    5    5    0    0  0.18968010269E+02  0.23087794510E+02 -0.52852767903E+01  0.30344123314E+02  0.00000000000E+00 0. -1.
        -12    1    5    5    0    0 -0.31192099764E+02 -0.43545416678E+02  0.56432383587E+01  0.53860899923E+02  0.00000000000E+00 0.  1.
          5    1    4    4  501    0 -0.30057630215E+02  0.43455078865E+02 -0.80283728577E+02  0.96201634537E+02  0.41800000000E+01 0.  1.
         -5    1    4    4    0  501  0.88428102535E+01  0.16609424594E+02  0.44632591070E+02  0.48616960663E+02  0.41800000000E+01 0.  1.
</event>
<event>
11    1  0.8551154E-009  0.1410864E+03  0.7561462E-02  0.1106351E+00
         22   -1    0    0    0    0  0.00000000000E+00  0.00000000000E+00  0.54433617904E+03  0.54433617904E+03  0.00000000000E+00 0. -1.
         22   -1    0    0    0    0 -0.00000000000E+00 -0.00000000000E+00 -0.10328529347E+04  0.10328529347E+04  0.00000000000E+00 0. -1.
        -24    2    1    2    0    0 -0.18780792628E+02  0.21993376817E+02 -0.98612971964E+03  0.98970009378E+03  0.78854453726E+02 0.  0.
         25    2    1    2    0    0 -0.45882435801E+02 -0.39380332829E+02  0.87497697109E+02  0.16419386305E+03  0.12509104338E+03 0.  0.
         24    2    1    2    0    0  0.64663228429E+02  0.17386956011E+02  0.41011526690E+03  0.42329515689E+03  0.80626412235E+02 0.  0.
        -11    1    5    5    0    0 -0.14050902236E+02  0.21584340315E+02  0.11339710520E+03  0.11628505952E+03  0.00000000000E+00 0.  1.
         12    1    5    5    0    0  0.78714130666E+02 -0.41973843035E+01  0.29671816170E+03  0.30701009737E+03  0.00000000000E+00 0. -1.
         11    1    3    3    0    0  0.10818738504E+02  0.45138100748E+02 -0.54604110254E+03  0.54801038211E+03  0.00000000000E+00 0. -1.
        -12    1    3    3    0    0 -0.29599531132E+02 -0.23144723930E+02 -0.44008861710E+03  0.44168971167E+03  0.00000000000E+00 0.  1.
          5    1    4    4  501    0 -0.40704846553E+02  0.39465573795E+02  0.53527694929E+02  0.78083945675E+02  0.41800000000E+01 0.  1.
         -5    1    4    4    0  501 -0.51775892477E+01 -0.78845906624E+02  0.33970002180E+02  0.86109917372E+02  0.41800000000E+01 0.  1.
</event>
<event>
11    1  0.2749544E-008  0.1912051E+03  0.7561462E-02  0.1060923E+00
         22   -1    0    0    0    0  0.00000000000E+00  0.00000000000E+00  0.11578388626E+04  0.11578388626E+04  0.00000000000E+00 0.  1.
         22   -1    0    0    0    0 -0.00000000000E+00 -0.00000000000E+00 -0.49986448396E+03  0.49986448396E+03  0.00000000000E+00 0.  1.
         24    2    1    2    0    0  0.33565714314E+02 -0.61932557115E+02 -0.33342482562E+03  0.34812290737E+03  0.71099546327E+02 0.  0.
         25    2    1    2    0    0 -0.14941096132E+03 -0.25267081788E+02 -0.89620667661E+02  0.21596609947E+03  0.12508969286E+03 0.  0.
        -24    2    1    2    0    0  0.11584524701E+03  0.87199638902E+02  0.10810198719E+04  0.10936143397E+04  0.79777580100E+02 0.  0.
        -13    1    3    3    0    0  0.53334354851E+02 -0.47355512121E+02 -0.28545333009E+03  0.29422899517E+03  0.00000000000E+00 0.  1.
         14    1    3    3    0    0 -0.19768640538E+02 -0.14577044994E+02 -0.47971495525E+02  0.53893912202E+02  0.00000000000E+00 0. -1.
         11    1    5    5    0    0 -0.12008739330E+02  0.12546177535E+02  0.10385170819E+03  0.10529384448E+03  0.00000000000E+00 0. -1.
        -12    1    5    5    0    0  0.12785398634E+03  0.74653461367E+02  0.97716816373E+03  0.98832049525E+03  0.00000000000E+00 0.  1.
          5    1    4    4  501    0 -0.16696533780E+01 -0.46869581925E+02 -0.19700063534E+02  0.51040281694E+02  0.41800000000E+01 0. -1.
         -5    1    4    4    0  501 -0.14774130795E+03  0.21602500137E+02 -0.69920604127E+02  0.16492581777E+03  0.41800000000E+01 0. -1.
</event>
<event>
11    1  0.8551154E-009  0.1456969E+03  0.7561462E-02  0.1101359E+00
         22   -1    0    0    0    0  0.00000000000E+00  0.00000000000E+00  0.23302055630E+03  0.23302055630E+03  0.00000000000E+00 0. -1.
         22   -1    0    0    0    0 -0.00000000000E+00 -0.00000000000E+00 -0.60569901909E+03  0.60569901909E+03  0.00000000000E+00 0. -1.
         24    2    1    2    0    0  0.16032223297E+02  0.66177970595E+02 -0.41346506334E+03  0.42649614726E+03  0.79429522493E+02 0.  0.
         25    2    1    2    0    0 -0.30964326224E+02 -0.11439534346E+03 -0.13009412223E+03  0.21589751504E+03  0.12506867017E+03 0.  0.
        -24    2    1    2    0    0  0.14932102927E+02  0.48217372863E+02  0.17088072279E+03  0.19632591310E+03  0.82436399667E+02 0.  0.
        -11    1    3    3    0    0  0.20210862075E+02  0.25561880074E+02 -0.43849003694E+02  0.54631710422E+02  0.00000000000E+00 0.  1.
         12    1    3    3    0    0 -0.41786387782E+01  0.40616090521E+02 -0.36961605965E+03  0.37186443684E+03  0.00000000000E+00 0. -1.
         11    1    5    5    0    0 -0.97225622949E+00  0.69369642853E+02  0.11160402254E+03  0.13140985686E+03  0.00000000000E+00 0. -1.
        -12    1    5    5    0    0  0.15904359157E+02 -0.21152269990E+02  0.59276700246E+02  0.64916056242E+02  0.00000000000E+00 0.  1.
          5    1    4    4  501    0 -0.20737524015E+02 -0.48612691699E+02 -0.13884453708E+03  0.14862205952E+03  0.41800000000E+01 0. -1.
         -5    1    4    4    0  501 -0.10226802209E+02 -0.65782651759E+02  0.87504148550E+01  0.67275455524E+02  0.41800000000E+01 0. -1.
</event>
<event>
11    1  0.8551154E-009  0.1607922E+03  0.7561462E-02  0.1086335E+00
         22   -1    0    0    0    0  0.00000000000E+00  0.00000000000E+00  0.47426146104E+03  0.47426146104E+03  0.00000000000E+00 0.  1.
         22   -1    0    0    0    0 -0.00000000000E+00 -0.00000000000E+00 -0.70289091627E+03  0.70289091627E+03  0.00000000000E+00 0.  1.
        -24    2    1    2    0    0  0.64143884981E+02  0.17529523815E+02 -0.64034753578E+03  0.64820551750E+03  0.75522871784E+02 0.  0.
         25    2    1    2    0    0 -0.13113737340E+03 -0.72912269021E+02  0.16608279352E+03  0.25640676187E+03  0.12509086119E+03 0.  0.
         24    2    1    2    0    0  0.66993488419E+02  0.55382745206E+02  0.24563528703E+03  0.27254009794E+03  0.79912669802E+02 0.  0.
        -11    1    5    5    0    0  0.66592762218E+02  0.73727907244E+02  0.21469393578E+03  0.23656687500E+03  0.00000000000E+00 0.  1.
         12    1    5    5    0    0  0.40072620064E+00 -0.18345162038E+02  0.30941351246E+02  0.35973222939E+02  0.00000000000E+00 0. -1.
         13    1    3    3    0    0 -0.11313940067E+02 -0.47688290406E+01 -0.25047025118E+02  0.27894451733E+02  0.00000000000E+00 0. -1.
        -14    1    3    3    0    0  0.75457825048E+02  0.22298352855E+02 -0.61530051066E+03  0.62031106577E+03  0.00000000000E+00 0.  1.
          5    1    4    4  501    0  0.20421030907E+02 -0.21364826121E+02  0.51398980999E+02  0.59437378359E+02  0.41800000000E+01 0. -1.
         -5    1    4    4    0  501 -0.15155840431E+03 -0.51547442899E+02  0.11468381252E+03  0.19696938351E+03  0.41800000000E+01 0. -1.
</event>
<event>
11    1  0.8551154E-009  0.2612905E+03  0.7561462E-02  0.1018051E+00
         22   -1    0    0    0    0  0.00000000000E+00  0.00000000000E+00  0.15558110732E+04  0.15558110732E+04  0.00000000000E+00 0. -1.
         22   -1    0    0    0    0 -0.00000000000E+00 -0.00000000000E+00 -0.12533646800E+04  0.12533646800E+04  0.00000000000E+00 0. -1.
         24    2    1    2    0    0 -0.56061406208E+02 -0.21820241403E+03 -0.91620639833E+03  0.94686015597E+03  0.79717099016E+02 0.  0.
         25    2    1    2    0    0  0.82652879807E+02  0.23185824276E+03 -0.26111245685E+03  0.38002236274E+03  0.12509011865E+03 0.  0.
        -24    2    1    2    0    0 -0.26591473599E+02 -0.13655828729E+02  0.14797652484E+04  0.14822932345E+04  0.81206245978E+02 0.  0.
        -11    1    3    3    0    0 -0.12618079264E+02 -0.10036229667E+03 -0.26491257715E+03  0.28356741712E+03  0.00000000000E+00 0.  1.
         12    1    3    3    0    0 -0.43443326944E+02 -0.11784011736E+03 -0.65129382118E+03  0.66329273886E+03  0.00000000000E+00 0. -1.
         13    1    5    5    0    0 -0.33614566862E+02  0.18107595735E+02  0.12056539013E+04  0.12062583279E+04  0.00000000000E+00 0. -1.
        -14    1    5    5    0    0  0.70230932630E+01 -0.31763424465E+02  0.27411134716E+03  0.27603490652E+03  0.00000000000E+00 0.  1.
          5    1    4    4  501    0  0.52763586607E+02  0.56604214624E+02 -0.15406033815E+03  0.17245316285E+03  0.41800000000E+01 0. -1.
         -5    1    4    4    0  501  0.29889293201E+02  0.17525402814E+03 -0.10705211870E+03  0.20756919989E+03  0.41800000000E+01 0. -1.
</event>
<event>
11    1  0.8551154E-009  0.2469547E+03  0.7561462E-02  0.1025534E+00
         22   -1    0    0    0    0  0.00000000000E+00  0.00000000000E+00  0.24753393781E+04  0.24753393781E+04  0.00000000000E+00 0.  1.
         22   -1    0    0    0    0 -0.00000000000E+00 -0.00000000000E+00 -0.29301929956E+03  0.29301929956E+03  0.00000000000E+00 0. -1.
         24    2    1    2    0    0  0.71966671325E+02 -0.19557533020E+03 -0.19430617619E+03  0.29916486880E+03  0.91191101861E+02 0.  0.
         25    2    1    2    0    0 -0.83991914985E+02  0.23593904940E+03  0.38815637172E+03  0.47857451333E+03  0.12508524729E+03 0.  0.
        -24    2    1    2    0    0  0.12025243660E+02 -0.40363719200E+02  0.19884698830E+04  0.19906192955E+04  0.82333880114E+02 0.  0.
        -13    1    3    3    0    0 -0.17028382495E+02 -0.43527109458E+02 -0.18480474711E+02  0.50260352304E+02  0.00000000000E+00 0.  1.
         14    1    3    3    0    0  0.88995053820E+02 -0.15204822074E+03 -0.17582570148E+03  0.24890451650E+03  0.00000000000E+00 0. -1.
         11    1    5    5    0    0 -0.39792621724E+01 -0.55963985721E+02  0.81147958255E+03  0.81341681512E+03  0.00000000000E+00 0. -1.
        -12    1    5    5    0    0  0.16004505832E+02  0.15600266521E+02  0.11769903004E+04  0.11772024804E+04  0.00000000000E+00 0.  1.
          5    1    4    4  501    0 -0.11192203272E+03  0.15572809846E+03  0.23454557230E+03  0.30299650154E+03  0.41800000000E+01 0.  1.
         -5    1    4    4    0  501  0.27930117736E+02  0.80210950935E+02  0.15361079942E+03  0.17557801180E+03  0.41800000000E+01 0.  1.
</event>
<event>
11    1  0.8551154E-009  0.2223583E+03  0.7561462E-02  0.1039750E+00
         22   -1    0    0    0    0  0.00000000000E+00  0.00000000000E+00  0.66092033767E+03  0.66092033767E+03  0.00000000000E+00 0.  1.
         22   -1    0    0    0    0 -0.00000000000E+00 -0.00000000000E+00 -0.10382801014E+04  0.10382801014E+04  0.00000000000E+00 0. -1.
         24    2    1    2    0    0  0.66498733680E+02  0.16354508594E+03 -0.81438128185E+03  0.83713712497E+03  0.80078817774E+02 0.  0.
         25    2    1    2    0    0 -0.11350334792E+03 -0.21422724949E+03 -0.11591707675E+03  0.29643152397E+03  0.12513414926E+03 0.  0.
        -24    2    1    2    0    0  0.47004614237E+02  0.50682163543E+02  0.55293859484E+03  0.56563179018E+03  0.97057286885E+02 0.  0.
        -11    1    3    3    0    0  0.51014378717E+02  0.38293431498E+02 -0.19994333875E+03  0.20987184766E+03  0.00000000000E+00 0.  1.
         12    1    3    3    0    0  0.15484354962E+02  0.12525165444E+03 -0.61443794310E+03  0.62726527731E+03  0.00000000000E+00 0. -1.
         13    1    5    5    0    0  0.12811853295E+02  0.16662515813E+02  0.46383391591E+03  0.46430990143E+03  0.00000000000E+00 0. -1.
        -14    1    5    5    0    0  0.34192760942E+02  0.34019647730E+02  0.89104678929E+02  0.10132188875E+03  0.00000000000E+00 0.  1.
          5    1    4    4  501    0 -0.53300218448E+02 -0.20088544571E+03 -0.10758202294E+03  0.23406674186E+03  0.41800000000E+01 0. -1.
         -5    1    4    4    0  501 -0.60203129469E+02 -0.13341803777E+02 -0.83350538116E+01  0.62364782113E+02  0.41800000000E+01 0. -1.
</event>
<event>
11    1  0.8551154E-009  0.1526108E+03  0.7561462E-02  0.1094241E+00
         22   -1    0    0    0    0  0.00000000000E+00  0.00000000000E+00  0.36314148488E+03  0.36314148488E+03  0.00000000000E+00 0.  1.
         22   -1    0    0    0    0 -0.00000000000E+00 -0.00000000000E+00 -0.21620706769E+04  0.21620706769E+04  0.00000000000E+00 0.  1.
        -24    2    1    2    0    0 -0.75241695690E+01  0.70182845991E+02 -0.20343298817E+04  0.20371898921E+04  0.81623180065E+02 0.  0.
         25    2    1    2    0    0 -0.69670869580E+02 -0.21336370454E+02 -0.68846702972E+02  0.16030026533E+03  0.12508811208E+03 0.  0.
         24    2    1    2    0    0  0.77195039149E+02 -0.48846475538E+02  0.30424739274E+03  0.32772200436E+03  0.80561677709E+02 0.  0.
        -11    1    5    5    0    0  0.77377319989E+02 -0.26574955488E+02  0.28991249660E+03  0.30123534586E+03  0.00000000000E+00 0.  1.
         12    1    5    5    0    0 -0.18228083964E+00 -0.22271520050E+02  0.14334896135E+02  0.26486658506E+02  0.00000000000E+00 0. -1.
         13    1    3    3    0    0 -0.18683467972E+02  0.58554844938E+02 -0.19669245207E+04  0.19678846033E+04  0.00000000000E+00 0. -1.
        -14    1    3    3    0    0  0.11159298403E+02  0.11628001054E+02 -0.67405361087E+02  0.69305288778E+02  0.00000000000E+00 0.  1.
          5    1    4    4  501    0  0.31030954722E+02  0.18465802436E+02 -0.19116953699E+02  0.41071113076E+02  0.41800000000E+01 0. -1.
         -5    1    4    4    0  501 -0.10070182430E+03 -0.39802172890E+02 -0.49729749273E+02  0.11922915225E+03  0.41800000000E+01 0. -1.
</event>
<event>
11    1  0.8551154E-009  0.7135479E+03  0.7561462E-02  0.9012575E-01
         22   -1    0    0    0    0  0.00000000000E+00  0.00000000000E+00  0.66919857029E+03  0.66919857029E+03  0.00000000000E+00 0.  1.
         22   -1    0    0    0    0 -0.00000000000E+00 -0.00000000000E+00 -0.17282304386E+04  0.17282304386E+04  0.00000000000E+00 0.  1.
        -24    2    1    2    0    0  0.60638451191E+03 -0.35940019505E+03 -0.13315689003E+04  0.15085411119E+04  0.75827922512E+02 0.  0.
         25    2    1    2    0    0 -0.53515121901E+03  0.44597921043E+03  0.24393877435E+03  0.74862400885E+03  0.12508995823E+03 0.  0.
         24    2    1    2    0    0 -0.71233292896E+02 -0.86579015374E+02  0.28598257563E+02  0.14026388812E+03  0.79284235849E+02 0.  0.
        -11    1    5    5    0    0 -0.64640093310E+02 -0.97149660225E+02  0.40021008159E+02  0.12336157927E+03  0.00000000000E+00 0.  1.
         12    1    5    5    0    0 -0.65931995857E+01  0.10570644851E+02 -0.11422750596E+02  0.16902308851E+02  0.00000000000E+00 0. -1.
         11    1    3    3    0    0  0.27174090535E+03 -0.20508161858E+03 -0.63728541509E+03  0.72251940472E+03  0.00000000000E+00 0. -1.
        -12    1    3    3    0    0  0.33464360656E+03 -0.15431857648E+03 -0.69428348516E+03  0.78602170722E+03  0.00000000000E+00 0.  1.
          5    1    4    4  501    0 -0.12907869880E+03  0.17667287984E+03  0.52208083941E+02  0.22498394028E+03  0.41800000000E+01 0.  1.
         -5    1    4    4    0  501 -0.40607252021E+03  0.26930633058E+03  0.19173069041E+03  0.52364006857E+03  0.41800000000E+01 0.  1.
</event>
<event>
11    1  0.8551154E-009  0.1404567E+03  0.7561462E-02  0.1107049E+00
         22   -1    0    0    0    0  0.00000000000E+00  0.00000000000E+00  0.19183779430E+03  0.19183779430E+03  0.00000000000E+00 0.  1.
         22   -1    0    0    0    0 -0.00000000000E+00 -0.00000000000E+00 -0.12712306046E+04  0.12712306046E+04  0.00000000000E+00 0.  1.
        -24    2    1    2    0    0 -0.11351982582E+02 -0.66041654287E+01 -0.51547064441E+03  0.52179957394E+03  0.79952033161E+02 0.  0.
         25    2    1    2    0    0 -0.52618197398E+02  0.10515091503E+02 -0.73150382920E+03  0.74405995494E+03  0.12509245603E+03 0.  0.
         24    2    1    2    0    0  0.63970179980E+02 -0.39109260744E+01  0.16758166335E+03  0.19720886998E+03  0.81855025726E+02 0.  0.
        -11    1    5    5    0    0 -0.85926706651E+01 -0.55117292050E+01  0.91470332499E+02  0.92038225078E+02  0.00000000000E+00 0.  1.
         12    1    5    5    0    0  0.72562850645E+02  0.16008031306E+01  0.76111330852E+02  0.10517064490E+03  0.00000000000E+00 0. -1.
         13    1    3    3    0    0 -0.32412761232E+02  0.12634322356E+02 -0.11098657187E+03  0.11631092953E+03  0.00000000000E+00 0. -1.
        -14    1    3    3    0    0  0.21060778650E+02 -0.19238487785E+02 -0.40448407254E+03  0.40548864441E+03  0.00000000000E+00 0.  1.
          5    1    4    4  501    0 -0.83060065777E+02  0.35576748138E+02 -0.39482673673E+03  0.40505592697E+03  0.41800000000E+01 0. -1.
         -5    1    4    4    0  501  0.30441868378E+02 -0.25061656635E+02 -0.33667709247E+03  0.33900402796E+03  0.41800000000E+01 0. -1.
</event>
<event>
11    1  0.8551154E-009  0.4386870E+03  0.7561462E-02  0.9542037E-01
         22   -1    0    0    0    0  0.00000000000E+00  0.00000000000E+00  0.13353704643E+04  0.13353704643E+04  0.00000000000E+00 0. -1.
         22   -1    0    0    0    0 -0.00000000000E+00 -0.00000000000E+00 -0.22462647347E+03  0.22462647347E+03  0.00000000000E+00 0. -1.
         24    2    1    2    0    0  0.70448727540E+01 -0.19610856751E+02  0.69445098369E+02  0.10871398646E+03  0.81005513572E+02 0.  0.
         25    2    1    2    0    0 -0.41835539902E+03 -0.64040190841E+02  0.15565175848E+03  0.46797301571E+03  0.12509551382E+03 0.  0.
        -24    2    1    2    0    0  0.41131052627E+03  0.83651047592E+02  0.88564713403E+03  0.98330993566E+03  0.79710330373E+02 0.  0.
        -13    1    3    3    0    0  0.34664991888E+02 -0.34051862088E+01  0.68301284674E+02  0.76670218755E+02  0.00000000000E+00 0.  1.
         14    1    3    3    0    0 -0.27620119134E+02 -0.16205670542E+02  0.11438136943E+01  0.32043767701E+02  0.00000000000E+00 0. -1.
         11    1    5    5    0    0  0.40913203471E+03  0.86137854509E+02  0.84751364043E+03  0.94503339757E+03  0.00000000000E+00 0. -1.
        -12    1    5    5    0    0  0.21784915584E+01 -0.24868069171E+01  0.38133493592E+02  0.38276538083E+02  0.00000000000E+00 0.  1.
          5    1    4    4  501    0 -0.43116339134E+02  0.97729147383E+01  0.58369195349E+02  0.73341420279E+02  0.41800000000E+01 0.  1.
         -5    1    4    4    0  501 -0.37523905989E+03 -0.73813105579E+02  0.97282563131E+02  0.39463159543E+03  0.41800000000E+01 0.  1.
</event>
<event>
11    1  0.8551154E-009  0.1399636E+03  0.7561462E-02  0.1107599E+00
         22   -1    0    0    0    0  0.00000000000E+00  0.00000000000E+00  0.22263033523E+03  0.22263033523E+03  0.00000000000E+00 0.  1.
         22   -1    0    0    0    0 -0.00000000000E+00 -0.00000000000E+00 -0.51922361312E+03  0.51922361312E+03  0.00000000000E+00 0.  1.
        -24    2    1    2    0    0 -0.47085701290E+02 -0.43268466603E+02 -0.43308873989E+03  0.44528695734E+03  0.81396525042E+02 0.  0.
         25    2    1    2    0    0  0.17076099868E+01  0.67790195357E+02  0.15679286023E+02  0.14312507251E+03  0.12506206400E+03 0.  0.
         24    2    1    2    0    0  0.45378091303E+02 -0.24521728754E+02  0.12081617597E+03  0.15344191850E+03  0.79293049029E+02 0.  0.
        -11    1    5    5    0    0  0.59047755582E+01 -0.45119875589E+02  0.84546328093E+02  0.96014327793E+02  0.00000000000E+00 0.  1.
         12    1    5    5    0    0  0.39473315744E+02  0.20598146836E+02  0.36269847880E+02  0.57427590705E+02  0.00000000000E+00 0. -1.
         11    1    3    3    0    0 -0.12390010616E+02 -0.12315258021E+02 -0.10998011532E+02  0.20643018211E+02  0.00000000000E+00 0. -1.
        -12    1    3    3    0    0 -0.34695690674E+02 -0.30953208582E+02 -0.42209072836E+03  0.42464393913E+03  0.00000000000E+00 0.  1.
          5    1    4    4  501    0  0.37052710403E+02 -0.90217602370E+01 -0.28350697261E+02  0.47702515040E+02  0.41800000000E+01 0. -1.
         -5    1    4    4    0  501 -0.35345100416E+02  0.76811955594E+02  0.44029983284E+02  0.95422557467E+02  0.41800000000E+01 0. -1.
</event>
<event>
11    1  0.8551154E-009  0.2335270E+03  0.7561462E-02  0.1033060E+00
         22   -1    0    0    0    0  0.00000000000E+00  0.00000000000E+00  0.12901010877E+04  0.12901010877E+04  0.00000000000E+00 0.  1.
         22   -1    0    0    0    0 -0.00000000000E+00 -0.00000000000E+00 -0.10157552030E+04  0.10157552030E+04  0.00000000000E+00 0.  1.
        -24    2    1    2    0    0  0.16111701208E+03  0.91667753399E+02 -0.61751856008E+03  0.64991838937E+03  0.81872292027E+02 0.  0.
         25    2    1    2    0    0 -0.21249628846E+03 -0.91569028428E+02 -0.33469490106E+03  0.42568636883E+03  0.12509455719E+03 0.  0.
         24    2    1    2    0    0  0.51379276386E+02 -0.98724970169E-01  0.12265593458E+04  0.12302515325E+04  0.80194542756E+02 0.  0.
        -11    1    5    5    0    0  0.68012693839E+02 -0.52142786338E+01  0.11353265946E+04  0.11373739014E+04  0.00000000000E+00 0.  1.
         12    1    5    5    0    0 -0.16633417453E+02  0.51155536637E+01  0.91232751143E+02  0.92877631034E+02  0.00000000000E+00 0. -1.
         13    1    3    3    0    0  0.45806099782E+02  0.10701960946E+02 -0.68414903296E+02  0.83026078663E+02  0.00000000000E+00 0. -1.
        -14    1    3    3    0    0  0.11531091229E+03  0.80965792452E+02 -0.54910365678E+03  0.56689231070E+03  0.00000000000E+00 0.  1.
          5    1    4    4  501    0  0.42943424449E+01 -0.25497070376E+02 -0.67855081271E+01  0.27056561040E+02  0.41800000000E+01 0. -1.
         -5    1    4    4    0  501 -0.21679063091E+03 -0.66071958053E+02 -0.32790939293E+03  0.39862980779E+03  0.41800000000E+01 0. -1.
</event>
<event>
11    1  0.8551154E-009  0.1970592E+03  0.7561462E-02  0.1056623E+00
         22   -1    0    0    0    0  0.00000000000E+00  0.00000000000E+00  0.22716609867E+04  0.22716609867E+04  0.00000000000E+00 0.  1.
         22   -1    0    0    0    0 -0.00000000000E+00 -0.00000000000E+00 -0.66673564394E+02  0.66673564394E+02  0.00000000000E+00 0.  1.
        -24    2    1    2    0    0 -0.52133953473E+02  0.46448179267E+02  0.15784516787E+02  0.10694862931E+03  0.79457384043E+02 0.  0.
         25    2    1    2    0    0  0.17061558162E+03 -0.11513547823E+03  0.86913161144E+03  0.90188802366E+03  0.12508554739E+03 0.  0.
         24    2    1    2    0    0 -0.11848162815E+03  0.68687298964E+02  0.13200712940E+04  0.13294978981E+04  0.78870770480E+02 0.  0.
        -13    1    5    5    0    0 -0.11876003183E+03  0.51611489173E+02  0.12702032057E+04  0.12767865424E+04  0.00000000000E+00 0.  1.
         14    1    5    5    0    0  0.27840367730E+00  0.17075809792E+02  0.49868088317E+02  0.52711355713E+02  0.00000000000E+00 0. -1.
         11    1    3    3    0    0  0.14363313761E+02 -0.10498220380E+02 -0.94423048149E+00  0.17815975543E+02  0.00000000000E+00 0. -1.
        -12    1    3    3    0    0 -0.66497267233E+02  0.56946399647E+02  0.16728747269E+02  0.89132653766E+02  0.00000000000E+00 0.  1.
          5    1    4    4  501    0  0.16747924717E+03 -0.12178892142E+03  0.86908774950E+03  0.89342757308E+03  0.41800000000E+01 0. -1.
         -5    1    4    4    0  501  0.31363344486E+01  0.66534431899E+01  0.43861944006E-01  0.84604505746E+01  0.41800000000E+01 0. -1.
</event>
<event>
11    1  0.8551154E-009  0.1410066E+03  0.7561462E-02  0.1106440E+00
         22   -1    0    0    0    0  0.00000000000E+00  0.00000000000E+00  0.11669360617E+04  0.11669360617E+04  0.00000000000E+00 0. -1.
         22   -1    0    0    0    0 -0.00000000000E+00 -0.00000000000E+00 -0.31346301518E+03  0.31346301518E+03  0.00000000000E+00 0.  1.
         24    2    1    2    0    0 -0.52278544550E+02  0.36712615688E+02 -0.22410535153E+03  0.24629930950E+03  0.79745087016E+02 0.  0.
         25    2    1    2    0    0  0.42273571269E+02 -0.64244831677E+02 -0.60003354773E+01  0.14698267856E+03  0.12511375043E+03 0.  0.
        -24    2    1    2    0    0  0.10004973281E+02  0.27532215989E+02  0.10835787335E+04  0.10871170889E+04  0.82598853918E+02 0.  0.
        -11    1    3    3    0    0 -0.45945803500E+02  0.55409426939E+02 -0.21011947997E+03  0.22210677008E+03  0.00000000000E+00 0.  1.
         12    1    3    3    0    0 -0.63327410499E+01 -0.18696811251E+02 -0.13985871565E+02  0.24192539420E+02  0.00000000000E+00 0. -1.
         11    1    5    5    0    0  0.28921111752E+02 -0.20326703336E+02  0.51640679875E+03  0.51761528897E+03  0.00000000000E+00 0. -1.
        -12    1    5    5    0    0 -0.18916138471E+02  0.47858919325E+02  0.56717193480E+03  0.56950179989E+03  0.00000000000E+00 0.  1.
          5    1    4    4  501    0  0.23122232963E+02 -0.10135418008E+03 -0.11414406792E+02  0.10466646339E+03  0.41800000000E+01 0. -1.
         -5    1    4    4    0  501  0.19151338306E+02  0.37109348403E+02  0.54140713147E+01  0.42316215166E+02  0.41800000000E+01 0. -1.
</event>
<event>
11    1  0.8551154E-009  0.1786390E+03  0.7561462E-02  0.1070749E+00
         22   -1    0    0    0    0  0.00000000000E+00  0.00000000000E+00  0.56848765502E+03  0.56848765502E+03  0.00000000000E+00 0. -1.
         22   -1    0    0    0    0 -0.00000000000E+00 -0.00000000000E+00 -0.82795091532E+03  0.82795091532E+03  0.00000000000E+00 0.  1.
        -24    2    1    2    0    0  0.32133443570E+02 -0.32692714031E+02 -0.39162151161E+03  0.40342959414E+03  0.85361919609E+02 0.  0.
         25    2    1    2    0    0 -0.13528658076E+03 -0.42016402318E+02 -0.39890216049E+03  0.44140437024E+03  0.12508815861E+03 0.  0.
         24    2    1    2    0    0  0.10315313719E+03  0.74709116349E+02  0.53106041181E+03  0.55160460595E+03  0.77591613846E+02 0.  0.
        -11    1    5    5    0    0 -0.67974999023E+01  0.28991249468E+02  0.93195950258E+02  0.97837537250E+02  0.00000000000E+00 0.  1.
         12    1    5    5    0    0  0.10995063710E+03  0.45717866881E+02  0.43786446155E+03  0.45376706870E+03  0.00000000000E+00 0. -1.
         11    1    3    3    0    0 -0.27235504978E+02 -0.23612124135E+02 -0.12282490160E+03  0.12800492800E+03  0.00000000000E+00 0. -1.
        -12    1    3    3    0    0  0.59368948548E+02 -0.90805898962E+01 -0.26879661001E+03  0.27542466614E+03  0.00000000000E+00 0.  1.
          5    1    4    4  501    0 -0.97523869592E+02  0.27345988633E+01 -0.11215469381E+03  0.14870955220E+03  0.41800000000E+01 0.  1.
         -5    1    4    4    0  501 -0.37762711171E+02 -0.44751001182E+02 -0.28674746668E+03  0.29269481804E+03  0.41800000000E+01 0.  1.
</event>
<event>
11    1  0.9756809E-009  0.1690216E+03  0.7561462E-02  0.1078886E+00
         22   -1    0    0    0    0  0.00000000000E+00  0.00000000000E+00  0.11700195351E+04  0.11700195351E+04  0.00000000000E+00 0. -1.
         22   -1    0    0    0    0 -0.00000000000E+00 -0.00000000000E+00 -0.33412451052E+03  0.33412451052E+03  0.00000000000E+00 0.  1.
        -24    2    1    2    0    0  0.11538577824E+02  0.23412586594E+02 -0.21589392714E+03  0.23090618496E+03  0.77628541714E+02 0.  0.
         25    2    1    2    0    0  0.81867704104E+02 -0.87913778728E+02 -0.35411932347E+02  0.17700829151E+03  0.12508707706E+03 0.  0.
         24    2    1    2    0    0 -0.93406281928E+02  0.64501192135E+02  0.10872008840E+04  0.10962295691E+04  0.82633943804E+02 0.  0.
        -11    1    5    5    0    0 -0.13847221129E+02 -0.12495258432E+02  0.54345057896E+02  0.57456612622E+02  0.00000000000E+00 0.  1.
         12    1    5    5    0    0 -0.79559060799E+02  0.76996450567E+02  0.10328558261E+04  0.10387729565E+04  0.00000000000E+00 0. -1.
         11    1    3    3    0    0  0.15828294179E+02 -0.26431875401E+02 -0.64929982265E+02  0.71868501660E+02  0.00000000000E+00 0. -1.
        -12    1    3    3    0    0 -0.42897163552E+01  0.49844461995E+02 -0.15096394488E+03  0.15903768330E+03  0.00000000000E+00 0.  1.
          5    1    4    4  501    0  0.24782640298E+02 -0.31759393359E+02 -0.76761176626E+02  0.86790488901E+02  0.41800000000E+01 0.  1.
         -5    1    4    4    0  501  0.57085063806E+02 -0.56154385369E+02  0.41349244279E+02  0.90217802613E+02  0.41800000000E+01 0.  1.
</event>
<event>
11    1  0.8551154E-009  0.1483756E+03  0.7561462E-02  0.1098550E+00
         22   -1    0    0    0    0  0.00000000000E+00  0.00000000000E+00  0.38114007050E+03  0.38114007050E+03  0.00000000000E+00 0. -1.
         22   -1    0    0    0    0 -0.00000000000E+00 -0.00000000000E+00 -0.16880280666E+04  0.16880280666E+04  0.00000000000E+00 0. -1.
        -24    2    1    2    0    0  0.18724689543E+02 -0.44857259986E+02 -0.14037366806E+04  0.14069285142E+04  0.81291990535E+02 0.  0.
         25    2    1    2    0    0 -0.41092617003E+00 -0.34316662004E+02 -0.25841506360E+03  0.28915515700E+03  0.12511817442E+03 0.  0.
         24    2    1    2    0    0 -0.18313763373E+02  0.79173921991E+02  0.35526374815E+03  0.37308446589E+03  0.79848507089E+02 0.  0.
        -13    1    5    5    0    0 -0.11360290721E+02 -0.80853886477E+00  0.29857603555E+01  0.11773899323E+02  0.00000000000E+00 0.  1.
         14    1    5    5    0    0 -0.69534726519E+01  0.79982460856E+02  0.35227798780E+03  0.36131056657E+03  0.00000000000E+00 0. -1.
         13    1    3    3    0    0  0.27394405857E+02 -0.49081690256E+02 -0.13820680907E+04  0.13832106395E+04  0.00000000000E+00 0. -1.
        -14    1    3    3    0    0 -0.86697163138E+01  0.42244302697E+01 -0.21668589926E+02  0.23717874724E+02  0.00000000000E+00 0.  1.
          5    1    4    4  501    0 -0.14582777838E+02 -0.72909883289E+02 -0.95631026677E+02  0.12120756641E+03  0.41800000000E+01 0.  1.
         -5    1    4    4    0  501  0.14171851668E+02  0.38593221284E+02 -0.16278403692E+03  0.16794759059E+03  0.41800000000E+01 0.  1.
</event>
<event>
11    1  0.8551154E-009  0.1347678E+03  0.7561462E-02  0.1113546E+00
         22   -1    0    0    0    0  0.00000000000E+00  0.00000000000E+00  0.49982454751E+02  0.49982454751E+02  0.00000000000E+00 0. -1.
         22   -1    0    0    0    0 -0.00000000000E+00 -0.00000000000E+00 -0.35295562075E+04  0.35295562075E+04  0.00000000000E+00 0. -1.
         24    2    1    2    0    0 -0.16993495705E+02 -0.41062157821E+02 -0.25684569440E+04  0.25700851569E+04  0.79948487779E+02 0.  0.
         25    2    1    2    0    0  0.58610774035E+02  0.65567449551E+02 -0.90376742329E+03  0.91661091940E+03  0.12508280814E+03 0.  0.
        -24    2    1    2    0    0 -0.41617278330E+02 -0.24505291730E+02 -0.73493854902E+01  0.92842586006E+02  0.78950776632E+02 0.  0.
        -11    1    3    3    0    0  0.24980314125E+02 -0.35146588801E+02 -0.17501238895E+04  0.17506549995E+04  0.00000000000E+00 0.  1.
         12    1    3    3    0    0 -0.41973809830E+02 -0.59155690197E+01 -0.81833305451E+03  0.81943015735E+03  0.00000000000E+00 0. -1.
         11    1    5    5    0    0 -0.60893979421E+02 -0.21861273092E+02 -0.22160895438E+02  0.68389306749E+02  0.00000000000E+00 0. -1.
        -12    1    5    5    0    0  0.19276701091E+02 -0.26440186378E+01  0.14811509948E+02  0.24453279257E+02  0.00000000000E+00 0.  1.
          5    1    4    4  501    0 -0.23538478214E+02 -0.22079018026E+02 -0.17574894512E+03  0.17873641796E+03  0.41800000000E+01 0. -1.
         -5    1    4    4    0  501  0.82149252249E+02  0.87646467577E+02 -0.72801847816E+03  0.73787450144E+03  0.41800000000E+01 0. -1.
</event>
<event>
11    1  0.8551154E-009  0.1440359E+03  0.7561462E-02  0.1103134E+00
         22   -1    0    0    0    0  0.00000000000E+00  0.00000000000E+00  0.11487081128E+04  0.11487081128E+04  0.00000000000E+00 0. -1.
         22   -1    0    0    0    0 -0.00000000000E+00 -0.00000000000E+00 -0.20868342152E+03  0.20868342152E+03  0.00000000000E+00 0.  1.
        -24    2    1    2    0    0  0.55103206626E+01  0.10190735045E+02 -0.10990493995E+03  0.13526391110E+03  0.77993686317E+02 0.  0.
         25    2    1    2    0    0 -0.73652040707E+02 -0.30680177038E+02 -0.17427358890E+02  0.14938595989E+03  0.12508619353E+03 0.  0.
         24    2    1    2    0    0  0.68141720044E+02  0.20489441994E+02  0.10673569901E+04  0.10727416633E+04  0.80377986128E+02 0.  0.
        -13    1    5    5    0    0  0.52026170803E+02 -0.25288312692E+02  0.65125948823E+03  0.65382347940E+03  0.00000000000E+00 0.  1.
         14    1    5    5    0    0  0.16115549242E+02  0.45777754685E+02  0.41609750187E+03  0.41891818392E+03  0.00000000000E+00 0. -1.
         13    1    3    3    0    0  0.27319717121E+02  0.19411071677E+01 -0.50533589450E+01  0.27850875700E+02  0.00000000000E+00 0. -1.
        -14    1    3    3    0    0 -0.21809396459E+02  0.82496278769E+01 -0.10485158100E+03  0.10741303539E+03  0.00000000000E+00 0.  1.
          5    1    4    4  501    0 -0.24126085719E+02  0.23148747708E+02 -0.56926204588E+02  0.66151324260E+02  0.41800000000E+01 0.  1.
         -5    1    4    4    0  501 -0.49525954988E+02 -0.53828924746E+02  0.39498845698E+02  0.83234635628E+02  0.41800000000E+01 0.  1.
</event>
<event>
11    1  0.8551154E-009  0.1869189E+03  0.7561462E-02  0.1064180E+00
         22   -1    0    0    0    0  0.00000000000E+00  0.00000000000E+00  0.23704676573E+03  0.23704676573E+03  0.00000000000E+00 0. -1.
         22   -1    0    0    0    0 -0.00000000000E+00 -0.00000000000E+00 -0.46692643131E+03  0.46692643131E+03  0.00000000000E+00 0.  1.
        -24    2    1    2    0    0  0.12135453233E+03  0.55580299125E+02 -0.20594077421E+03  0.25828545613E+03  0.80521315193E+02 0.  0.
         25    2    1    2    0    0 -0.13539927360E+03 -0.58500958047E+02 -0.18387962414E+03  0.26686084223E+03  0.12509063737E+03 0.  0.
         24    2    1    2    0    0  0.14044741269E+02  0.29206589221E+01  0.15994073277E+03  0.17882689868E+03  0.78690766212E+02 0.  0.
        -11    1    5    5    0    0  0.21477808987E+02 -0.29991535255E+02  0.40815412960E+02  0.55015328782E+02  0.00000000000E+00 0.  1.
         12    1    5    5    0    0 -0.74330677175E+01  0.32912194177E+02  0.11912531981E+03  0.12381156990E+03  0.00000000000E+00 0. -1.
         11    1    3    3    0    0 -0.65847949347E+01  0.54054190261E+01  0.22645566889E+01  0.88151174795E+01  0.00000000000E+00 0. -1.
        -12    1    3    3    0    0  0.12793932726E+03  0.50174880099E+02 -0.20820533089E+03  0.24947033865E+03  0.00000000000E+00 0.  1.
          5    1    4    4  501    0 -0.12077164770E+03  0.47524340871E+01 -0.15249432704E+03  0.19462879719E+03  0.41800000000E+01 0.  1.
         -5    1    4    4    0  501 -0.14627625897E+02 -0.63253392134E+02 -0.31385297098E+02  0.72232045034E+02  0.41800000000E+01 0.  1.
</event>
<event>
11    1  0.8551154E-009  0.1920410E+03  0.7561462E-02  0.1060299E+00
         22   -1    0    0    0    0  0.00000000000E+00  0.00000000000E+00  0.17991724648E+04  0.17991724648E+04  0.00000000000E+00 0.  1.
         22   -1    0    0    0    0 -0.00000000000E+00 -0.00000000000E+00 -0.29699508236E+04  0.29699508236E+04  0.00000000000E+00 0.  1.
         24    2    1    2    0    0 -0.69166063776E+02 -0.12813394942E+03 -0.29429336934E+04  0.29477219871E+04  0.83689522595E+02 0.  0.
         25    2    1    2    0    0  0.67287899654E+02  0.16186090596E+03  0.47459299617E+03  0.52115494537E+03  0.12504939328E+03 0.  0.
        -24    2    1    2    0    0  0.18781641228E+01 -0.33726956538E+02  0.12975623384E+04  0.13002463559E+04  0.76364446639E+02 0.  0.
        -13    1    3    3    0    0 -0.21114293233E+02 -0.77705920764E+02 -0.22150041954E+04  0.22164673716E+04  0.00000000000E+00 0.  1.
         14    1    3    3    0    0 -0.48051770543E+02 -0.50428028654E+02 -0.72792949799E+03  0.73125461555E+03  0.00000000000E+00 0. -1.
         11    1    5    5    0    0  0.36989940787E+02 -0.14194620948E+02  0.83608135279E+03  0.83701957652E+03  0.00000000000E+00 0. -1.
        -12    1    5    5    0    0 -0.35111776665E+02 -0.19532335590E+02  0.46148098563E+03  0.46322677934E+03  0.00000000000E+00 0.  1.
          5    1    4    4  501    0  0.27051798003E+02  0.13303916060E+03  0.19782616997E+03  0.23996642255E+03  0.41800000000E+01 0. -1.
         -5    1    4    4    0  501  0.40236101650E+02  0.28821745355E+02  0.27676682620E+03  0.28118852282E+03  0.41800000000E+01 0. -1.
</event>
<event>
11    1  0.8551154E-009  0.2182479E+03  0.7561462E-02  0.1042321E+00
         22   -1    0    0    0    0  0.00000000000E+00  0.00000000000E+00  0.39211387015E+03  0.39211387015E+03  0.00000000000E+00 0. -1.
         22   -1    0    0    0    0 -0.00000000000E+00 -0.00000000000E+00 -0.69592795686E+03  0.69592795686E+03  0.00000000000E+00 0. -1.
         24    2    1    2    0    0  0.10147648235E+02  0.20120116541E+02 -0.37294387337E+03  0.38225082999E+03  0.80751287852E+02 0.  0.
         25    2    1    2    0    0 -0.18108632856E+03 -0.68015807818E+02 -0.24518606781E+03  0.33642576864E+03  0.12509069291E+03 0.  0.
        -24    2    1    2    0    0  0.17093868032E+03  0.47895691277E+02  0.31431585448E+03  0.36936522837E+03  0.78244398364E+02 0.  0.
        -13    1    3    3    0    0 -0.52205173978E+00 -0.15626256243E+02 -0.12872763636E+02  0.20252418765E+02  0.00000000000E+00 0.  1.
         14    1    3    3    0    0  0.10669699975E+02  0.35746372784E+02 -0.36007110974E+03  0.36199841123E+03  0.00000000000E+00 0. -1.
         11    1    5    5    0    0  0.11809358984E+03  0.66800802724E+02  0.19558946944E+03  0.23804134884E+03  0.00000000000E+00 0. -1.
        -12    1    5    5    0    0  0.52845090489E+02 -0.18905111446E+02  0.11872638505E+03  0.13132387953E+03  0.00000000000E+00 0.  1.
          5    1    4    4  501    0  0.15013544939E+02 -0.12066927289E+02 -0.51520631371E+02  0.55162171120E+02  0.41800000000E+01 0.  1.
         -5    1    4    4    0  501 -0.19609987350E+03 -0.55948880529E+02 -0.19366543644E+03  0.28126359752E+03  0.41800000000E+01 0.  1.
</event>
<event>
11    1  0.8551154E-009  0.1341576E+03  0.7561462E-02  0.1114264E+00
         22   -1    0    0    0    0  0.00000000000E+00  0.00000000000E+00  0.18476446352E+03  0.18476446352E+03  0.00000000000E+00 0.  1.
         22   -1    0    0    0    0 -0.00000000000E+00 -0.00000000000E+00 -0.84434064264E+03  0.84434064264E+03  0.00000000000E+00 0. -1.
         24    2    1    2    0    0  0.40756281146E+02 -0.25438273084E+02 -0.74761470698E+03  0.75351735505E+03  0.80947353734E+02 0.  0.
         25    2    1    2    0    0 -0.45434867773E+02  0.35038251839E+02 -0.21711613995E+02  0.13932575572E+03  0.12509302827E+03 0.  0.
        -24    2    1    2    0    0  0.46785866267E+01 -0.95999787546E+01  0.10975014185E+03  0.13626199540E+03  0.80051164808E+02 0.  0.
        -13    1    3    3    0    0  0.13672530151E+01  0.79085307294E+01 -0.57822567642E+01  0.98918518182E+01  0.00000000000E+00 0.  1.
         14    1    3    3    0    0  0.39389028131E+02 -0.33346803814E+02 -0.74183245022E+03  0.74362550323E+03  0.00000000000E+00 0. -1.
         11    1    5    5    0    0 -0.18340437682E+01  0.23450815827E+02  0.22760400637E+01  0.23632283805E+02  0.00000000000E+00 0. -1.
        -12    1    5    5    0    0  0.65126303950E+01 -0.33050794582E+02  0.10747410179E+03  0.11262971159E+03  0.00000000000E+00 0.  1.
          5    1    4    4  501    0 -0.36181316310E+02  0.35637051151E+02 -0.71895077971E+02  0.88121857114E+02  0.41800000000E+01 0. -1.
         -5    1    4    4    0  501 -0.92535514633E+01 -0.59879931239E+00  0.50183463977E+02  0.51203898602E+02  0.41800000000E+01 0. -1.
</event>
<event>
11    1  0.8551154E-009  0.2485631E+03  0.7561462E-02  0.1024667E+00
         22   -1    0    0    0    0  0.00000000000E+00  0.00000000000E+00  0.47660181132E+03  0.47660181132E+03  0.00000000000E+00 0.  1.
         22   -1    0    0    0    0 -0.00000000000E+00 -0.00000000000E+00 -0.79643377263E+03  0.79643377263E+03  0.00000000000E+00 0. -1.
         24    2    1    2    0    0  0.17613840836E+02  0.62422527714E+02 -0.63877856537E+03  0.64688435868E+03  0.78832091042E+02 0.  0.
         25    2    1    2    0    0  0.19586546242E+03  0.35518609007E+01  0.46292624773E+01  0.23247492127E+03  0.12508902375E+03 0.  0.
        -24    2    1    2    0    0 -0.21347930326E+03 -0.65974388615E+02  0.31431734158E+03  0.39367630400E+03  0.79117686023E+02 0.  0.
        -11    1    3    3    0    0  0.24365709720E+02  0.68778634545E+02 -0.33017756990E+03  0.33814407587E+03  0.00000000000E+00 0.  1.
         12    1    3    3    0    0 -0.67518688843E+01 -0.63561068308E+01 -0.30860099547E+03  0.30874028282E+03  0.00000000000E+00 0. -1.
         11    1    5    5    0    0 -0.51138704671E+02 -0.22393718090E+02  0.29970608877E+02  0.63363105367E+02  0.00000000000E+00 0. -1.
        -12    1    5    5    0    0 -0.16234059859E+03 -0.43580670525E+02  0.28434673270E+03  0.33031319863E+03  0.00000000000E+00 0.  1.
          5    1    4    4  501    0  0.17952591269E+03  0.20867330421E+01  0.48022214647E+02  0.18589651229E+03  0.41800000000E+01 0.  1.
         -5    1    4    4    0  501  0.16339549736E+02  0.14651278586E+01 -0.43392952170E+02  0.46578408981E+02  0.41800000000E+01 0.  1.
</event>
<event>
11    1  0.8551154E-009  0.1331249E+03  0.7561462E-02  0.1115488E+00
         22   -1    0    0    0    0  0.00000000000E+00  0.00000000000E+00  0.19461516366E+04  0.19461516366E+04  0.00000000000E+00 0. -1.
         22   -1    0    0    0    0 -0.00000000000E+00 -0.00000000000E+00 -0.12600068467E+03  0.12600068467E+03  0.00000000000E+00 0.  1.
        -24    2    1    2    0    0 -0.82024349521E+00  0.43003029569E+02 -0.66654174218E+02  0.11359725847E+03  0.81311898509E+02 0.  0.
         25    2    1    2    0    0 -0.13476890009E+02 -0.60624503560E+02  0.10479770553E+03  0.17460391110E+03  0.12508800779E+03 0.  0.
         24    2    1    2    0    0  0.14297133505E+02  0.17621473990E+02  0.17820074207E+04  0.17839511517E+04  0.80102060726E+02 0.  0.
        -13    1    5    5    0    0  0.31927464981E+02 -0.22208720037E+02  0.96505969056E+03  0.96584304968E+03  0.00000000000E+00 0.  1.
         14    1    5    5    0    0 -0.17630331477E+02  0.39830194027E+02  0.81694773009E+03  0.81810810206E+03  0.00000000000E+00 0. -1.
         13    1    3    3    0    0  0.16954269825E+02 -0.31616454278E+01  0.11766252447E+02  0.20877930064E+02  0.00000000000E+00 0. -1.
        -14    1    3    3    0    0 -0.17774513320E+02  0.46164674997E+02 -0.78420426665E+02  0.92719328404E+02  0.00000000000E+00 0.  1.
          5    1    4    4  501    0  0.52175516878E+02 -0.90714137015E+01  0.23780327411E+02  0.58202675882E+02  0.41800000000E+01 0. -1.
         -5    1    4    4    0  501 -0.65652406887E+02 -0.51553089858E+02  0.81017378118E+02  0.11640123522E+03  0.41800000000E+01 0. -1.
</event>
<event>
11    1  0.8551154E-009  0.1643706E+03  0.7561462E-02  0.1083037E+00
         22   -1    0    0    0    0  0.00000000000E+00  0.00000000000E+00  0.45305914403E+03  0.45305914403E+03  0.00000000000E+00 0.  1.
         22   -1    0    0    0    0 -0.00000000000E+00 -0.00000000000E+00 -0.32840408620E+03  0.32840408620E+03  0.00000000000E+00 0.  1.
         24    2    1    2    0    0 -0.10053414270E+03 -0.32846090993E+02 -0.26543625581E+03  0.29433691393E+03  0.70652908377E+02 0.  0.
         25    2    1    2    0    0  0.96577038999E+02  0.85878721442E+02  0.17128205169E+03  0.24836783979E+03  0.12508702312E+03 0.  0.
        -24    2    1    2    0    0  0.39571036984E+01 -0.53032630449E+02  0.21880926195E+03  0.23875847651E+03  0.79372529440E+02 0.  0.
        -11    1    3    3    0    0 -0.91416454723E+02 -0.15696294361E+02 -0.25687999706E+03  0.27311293404E+03  0.00000000000E+00 0.  1.
         12    1    3    3    0    0 -0.91176879748E+01 -0.17149796632E+02 -0.85562587491E+01  0.21223979889E+02  0.00000000000E+00 0. -1.
         13    1    5    5    0    0 -0.23284646190E+02 -0.19981644744E+02  0.23071019207E+02  0.38388967193E+02  0.00000000000E+00 0. -1.
        -14    1    5    5    0    0  0.27241749889E+02 -0.33050985705E+02  0.19573824274E+03  0.20036950932E+03  0.00000000000E+00 0.  1.
          5    1    4    4  501    0  0.87717119029E+02 -0.25918239071E+01  0.62542173909E+02  0.10784250757E+03  0.41800000000E+01 0. -1.
         -5    1    4    4    0  501  0.88599199700E+01  0.88470545349E+02  0.10873987778E+03  0.14052533222E+03  0.41800000000E+01 0. -1.
</event>
<event>
11    1  0.8551154E-009  0.2408419E+03  0.7561462E-02  0.1028894E+00
         22   -1    0    0    0    0  0.00000000000E+00  0.00000000000E+00  0.79102533242E+03  0.79102533242E+03  0.00000000000E+00 0.  1.
         22   -1    0    0    0    0 -0.00000000000E+00 -0.00000000000E+00 -0.19976752957E+04  0.19976752957E+04  0.00000000000E+00 0. -1.
        -24    2    1    2    0    0 -0.12553085201E+03 -0.29486444623E+02 -0.18993756400E+04  0.19056291009E+04  0.84658154535E+02 0.  0.
         25    2    1    2    0    0  0.17097711875E+03  0.21428350377E+03  0.23865805888E+03  0.38439012575E+03  0.12508998595E+03 0.  0.
         24    2    1    2    0    0 -0.45446266735E+02 -0.18479705914E+03  0.45406761784E+03  0.49868140147E+03  0.79312183034E+02 0.  0.
        -13    1    5    5    0    0 -0.10745384271E+00 -0.10858650289E+03  0.32016270078E+03  0.33807572396E+03  0.00000000000E+00 0.  1.
         14    1    5    5    0    0 -0.45338812892E+02 -0.76210556251E+02  0.13390491705E+03  0.16060567751E+03  0.00000000000E+00 0. -1.
         11    1    3    3    0    0 -0.82878569435E+02  0.22589399113E+02 -0.11729598738E+04  0.11761011878E+04  0.00000000000E+00 0. -1.
        -12    1    3    3    0    0 -0.42652282579E+02 -0.52075843736E+02 -0.72641576613E+03  0.72952791310E+03  0.00000000000E+00 0.  1.
          5    1    4    4  501    0 -0.90838964098E+01  0.64805317523E+02  0.36095566314E+02  0.74850575554E+02  0.41800000000E+01 0.  1.
         -5    1    4    4    0  501  0.18006101516E+03  0.14947818624E+03  0.20256249257E+03  0.30953955020E+03  0.41800000000E+01 0.  1.
</event>
<event>
11    1  0.8551154E-009  0.1852857E+03  0.7561462E-02  0.1065446E+00
         22   -1    0    0    0    0  0.00000000000E+00  0.00000000000E+00  0.41314756002E+03  0.41314756002E+03  0.00000000000E+00 0.  1.
         22   -1    0    0    0    0 -0.00000000000E+00 -0.00000000000E+00 -0.50532155924E+03  0.50532155924E+03  0.00000000000E+00 0.  1.
         24    2    1    2    0    0  0.34248435129E+02 -0.50056375115E+02 -0.33855412635E+03  0.35394421756E+03  0.83540509184E+02 0.  0.
         25    2    1    2    0    0 -0.16202591796E+03  0.80531222342E+02 -0.54426645958E+02  0.22660048191E+03  0.12509133762E+03 0.  0.
        -24    2    1    2    0    0  0.12777748283E+03 -0.30474847227E+02  0.30080677309E+03  0.33792441979E+03  0.80326815716E+02 0.  0.
        -13    1    3    3    0    0  0.14062558143E+02 -0.71058523846E+02 -0.21036937221E+03  0.22249121807E+03  0.00000000000E+00 0.  1.
         14    1    3    3    0    0  0.20185876986E+02  0.21002148731E+02 -0.12818475414E+03  0.13145299949E+03  0.00000000000E+00 0. -1.
         11    1    5    5    0    0  0.59371156688E+02 -0.51393982737E+02  0.11923716679E+03  0.14277176770E+03  0.00000000000E+00 0. -1.
        -12    1    5    5    0    0  0.68406326142E+02  0.20919135510E+02  0.18156960630E+03  0.19515265209E+03  0.00000000000E+00 0.  1.
          5    1    4    4  501    0 -0.10217140772E+03  0.79708495755E+02  0.19796057090E+02  0.13115562179E+03  0.41800000000E+01 0.  1.
         -5    1    4    4    0  501 -0.59854510240E+02  0.82272658692E+00 -0.74222703048E+02  0.95444860118E+02  0.41800000000E+01 0.  1.
</event>
<event>
11    1  0.8551154E-009  0.1325648E+03  0.7561462E-02  0.1116157E+00
         22   -1    0    0    0    0  0.00000000000E+00  0.00000000000E+00  0.91048266648E+03  0.91048266648E+03  0.00000000000E+00 0. -1.
         22   -1    0    0    0    0 -0.00000000000E+00 -0.00000000000E+00 -0.25408552550E+03  0.25408552550E+03  0.00000000000E+00 0.  1.
        -24    2    1    2    0    0  0.26092813305E+02  0.10901018678E+02 -0.11965690735E+03  0.14744999794E+03  0.81388324109E+02 0.  0.
         25    2    1    2    0    0 -0.53408518517E+02  0.23240068551E+02 -0.77820454265E+02  0.15841809701E+03  0.12509076594E+03 0.  0.
         24    2    1    2    0    0  0.27315705212E+02 -0.34141087229E+02  0.85387450260E+03  0.85870009702E+03  0.79702125762E+02 0.  0.
        -11    1    5    5    0    0 -0.81685765822E+01 -0.13044987031E+02  0.29333207801E+02  0.33126038246E+02  0.00000000000E+00 0.  1.
         12    1    5    5    0    0  0.35484281794E+02 -0.21096100198E+02  0.82454129480E+03  0.82557405878E+03  0.00000000000E+00 0. -1.
         11    1    3    3    0    0 -0.11387903439E+02 -0.21155769818E+02 -0.78956135731E+01  0.25290149367E+02  0.00000000000E+00 0. -1.
        -12    1    3    3    0    0  0.37480716744E+02  0.32056788496E+02 -0.11176129378E+03  0.12215984857E+03  0.00000000000E+00 0.  1.
          5    1    4    4  501    0 -0.77744392198E+02  0.56712431033E+02 -0.56646647898E+02  0.11174437556E+03  0.41800000000E+01 0.  1.
         -5    1    4    4    0  501  0.24335873680E+02 -0.33472362482E+02 -0.21173806366E+02  0.46673721450E+02  0.41800000000E+01 0.  1.
</event>
<event>
11    1  0.8551154E-009  0.1508496E+03  0.7561462E-02  0.1096014E+00
         22   -1    0    0    0    0  0.00000000000E+00  0.00000000000E+00  0.28033486035E+03  0.28033486035E+03  0.00000000000E+00 0.  1.
         22   -1    0    0    0    0 -0.00000000000E+00 -0.00000000000E+00 -0.23515739036E+04  0.23515739036E+04  0.00000000000E+00 0. -1.
        -24    2    1    2    0    0 -0.16377093880E+02  0.42661113430E+01 -0.20721947044E+04  0.20738152743E+04  0.80202807291E+02 0.  0.
         25    2    1    2    0    0 -0.12609660419E+02  0.75379785237E+02 -0.24521195601E+03  0.28568866083E+03  0.12509193418E+03 0.  0.
         24    2    1    2    0    0  0.28986754299E+02 -0.79645896580E+02  0.24616761712E+03  0.27240482880E+03  0.80138594127E+02 0.  0.
        -13    1    5    5    0    0  0.11397653684E+02 -0.31987182772E+02  0.20276216776E+03  0.20558595051E+03  0.00000000000E+00 0.  1.
         14    1    5    5    0    0  0.17589100615E+02 -0.47658713809E+02  0.43405449361E+02  0.66818878295E+02  0.00000000000E+00 0. -1.
         13    1    3    3    0    0 -0.33235140052E+01  0.72565309066E+01 -0.20171207064E+04  0.20171364969E+04  0.00000000000E+00 0. -1.
        -14    1    3    3    0    0 -0.13053579875E+02 -0.29904195635E+01 -0.55073997967E+02  0.56678777411E+02  0.00000000000E+00 0.  1.
          5    1    4    4  501    0  0.46232226718E+01  0.85046978127E+02 -0.25066157629E+03  0.26476982627E+03  0.41800000000E+01 0. -1.
         -5    1    4    4    0  501 -0.17232883091E+02 -0.96671928894E+01  0.54496202770E+01  0.20918834555E+02  0.41800000000E+01 0. -1.
</event>
<event>
11    1  0.8551154E-009  0.1322681E+03  0.7561462E-02  0.1116513E+00
         22   -1    0    0    0    0  0.00000000000E+00  0.00000000000E+00  0.15513912968E+04  0.15513912968E+04  0.00000000000E+00 0. -1.
         22   -1    0    0    0    0 -0.00000000000E+00 -0.00000000000E+00 -0.72506651126E+03  0.72506651126E+03  0.00000000000E+00 0. -1.
        -24    2    1    2    0    0 -0.35507374433E+02 -0.23444047681E+02 -0.68970272710E+03  0.69548647650E+03  0.78747636217E+02 0.  0.
         25    2    1    2    0    0  0.48228868001E+02  0.48874086549E+02  0.13199193756E+03  0.19438181253E+03  0.12509083667E+03 0.  0.
         24    2    1    2    0    0 -0.12721493567E+02 -0.25430038868E+02  0.13840355751E+04  0.13865895190E+04  0.79167530664E+02 0.  0.
        -11    1    5    5    0    0  0.25414664340E+02 -0.33006639908E+02  0.51388365860E+03  0.51556935326E+03  0.00000000000E+00 0.  1.
         12    1    5    5    0    0 -0.38136157908E+02  0.75766010406E+01  0.87015191649E+03  0.87102016578E+03  0.00000000000E+00 0. -1.
         13    1    3    3    0    0  0.15510590882E+02 -0.14115979561E+02 -0.43770015981E+03  0.43820231538E+03  0.00000000000E+00 0. -1.
        -14    1    3    3    0    0 -0.51017965315E+02 -0.93280681200E+01 -0.25200256729E+03  0.25728416112E+03  0.00000000000E+00 0.  1.
          5    1    4    4  501    0  0.31271943970E+02  0.79876674561E+02  0.38062994398E+02  0.93938711728E+02  0.41800000000E+01 0.  1.
         -5    1    4    4    0  501  0.16956924031E+02 -0.31002588011E+02  0.93928943160E+02  0.10044310080E+03  0.41800000000E+01 0.  1.
</event>
<event>
11    1  0.8551154E-009  0.1410120E+03  0.7561462E-02  0.1106434E+00
         22   -1    0    0    0    0  0.00000000000E+00  0.00000000000E+00  0.18516016704E+03  0.18516016704E+03  0.00000000000E+00 0.  1.
         22   -1    0    0    0    0 -0.00000000000E+00 -0.00000000000E+00 -0.95453148126E+03  0.95453148126E+03  0.00000000000E+00 0.  1.
         24    2    1    2    0    0 -0.52201507157E+02 -0.36537744581E+02 -0.84800891898E+03  0.85412464723E+03  0.79685520726E+02 0.  0.
         25    2    1    2    0    0  0.10075105836E+03  0.66738403963E+02  0.63795386991E+02  0.18526404949E+03  0.12509247102E+03 0.  0.
        -24    2    1    2    0    0 -0.48549551206E+02 -0.30200659382E+02  0.14842217768E+02  0.10030295157E+03  0.81063258730E+02 0.  0.
        -11    1    3    3    0    0 -0.46358143213E+02 -0.60500880085E+02 -0.58083137430E+03  0.58581099281E+03  0.00000000000E+00 0.  1.
         12    1    3    3    0    0 -0.58433639439E+01  0.23963135504E+02 -0.26717754468E+03  0.26831365442E+03  0.00000000000E+00 0. -1.
         13    1    5    5    0    0  0.13648218778E+02 -0.34245415210E+02  0.50456061375E+01  0.37208607606E+02  0.00000000000E+00 0. -1.
        -14    1    5    5    0    0 -0.62197769984E+02  0.40447558282E+01  0.97966116303E+01  0.63094343963E+02  0.00000000000E+00 0.  1.
          5    1    4    4  501    0 -0.82641846697E+01  0.61145811699E+02  0.72749543100E+01  0.62269610540E+02  0.41800000000E+01 0. -1.
         -5    1    4    4    0  501  0.10901524303E+03  0.55925922633E+01  0.56520432681E+02  0.12299443895E+03  0.41800000000E+01 0. -1.
</event>
<event>
11    1  0.8551154E-009  0.1734637E+03  0.7561462E-02  0.1075056E+00
         22   -1    0    0    0    0  0.00000000000E+00  0.00000000000E+00  0.25597608044E+03  0.25597608044E+03  0.00000000000E+00 0.  1.
         22   -1    0    0    0    0 -0.00000000000E+00 -0.00000000000E+00 -0.48496355601E+03  0.48496355601E+03  0.00000000000E+00 0. -1.
         24    2    1    2    0    0 -0.39663581433E+01 -0.67602901756E+02 -0.36083881690E+03  0.37556328473E+03  0.79102747965E+02 0.  0.
         25    2    1    2    0    0  0.12006591813E+03  0.71436629095E+02  0.32524590206E+02  0.19032550178E+03  0.12508769320E+03 0.  0.
        -24    2    1    2    0    0 -0.11609955998E+03 -0.38337273389E+01  0.99326751125E+02  0.17505084994E+03  0.85341615182E+02 0.  0.
        -11    1    3    3    0    0  0.96275872084E+00 -0.77139709287E+02 -0.19994325261E+03  0.21430997625E+03  0.00000000000E+00 0.  1.
         12    1    3    3    0    0 -0.49291168642E+01  0.95368075310E+01 -0.16089556429E+03  0.16125330849E+03  0.00000000000E+00 0. -1.
         11    1    5    5    0    0 -0.81915466891E+02  0.12522499553E+02  0.17243555089E+02  0.84642169768E+02  0.00000000000E+00 0. -1.
        -12    1    5    5    0    0 -0.34184093092E+02 -0.16356226892E+02  0.82083196037E+02  0.90408680171E+02  0.00000000000E+00 0.  1.
          5    1    4    4  501    0  0.88697894555E+02 -0.88360135938E+00 -0.25458633742E+02  0.92378090920E+02  0.41800000000E+01 0. -1.
         -5    1    4    4    0  501  0.31368023570E+02  0.72320230455E+02  0.57983223948E+02  0.97947410865E+02  0.41800000000E+01 0. -1.
</event>
<event>
11    1  0.8551154E-009  0.1605812E+03  0.7561462E-02  0.1086532E+00
         22   -1    0    0    0    0  0.00000000000E+00  0.00000000000E+00  0.72351695390E+02  0.72351695390E+02  0.00000000000E+00 0.  1.
         22   -1    0    0    0    0 -0.00000000000E+00 -0.00000000000E+00 -0.15662347937E+04  0.15662347937E+04  0.00000000000E+00 0. -1.
        -24    2    1    2    0    0 -0.89474175397E+02  0.34412229647E+02 -0.99107494611E+03  0.99868005384E+03  0.77087427701E+02 0.  0.
         25    2    1    2    0    0 -0.22298396210E+02 -0.10068194947E+02 -0.48028416893E+03  0.49690957563E+03  0.12509059281E+03 0.  0.
         24    2    1    2    0    0  0.11177257161E+03 -0.24344034699E+02 -0.22523983297E+02  0.14299685965E+03  0.82795122174E+02 0.  0.
        -13    1    5    5    0    0  0.10766196756E+03 -0.34198723644E+02  0.54091422177E+01  0.11309248771E+03  0.00000000000E+00 0.  1.
         14    1    5    5    0    0  0.41106040515E+01  0.98546889447E+01 -0.27933125514E+02  0.29904371936E+02  0.00000000000E+00 0. -1.
         11    1    3    3    0    0 -0.87139164597E+02  0.51562531681E+02 -0.72412535754E+03  0.73116992698E+03  0.00000000000E+00 0. -1.
        -12    1    3    3    0    0 -0.23350108007E+01 -0.17150302034E+02 -0.26694958857E+03  0.26751012686E+03  0.00000000000E+00 0.  1.
          5    1    4    4  501    0  0.31840956977E+02  0.14982268388E+02 -0.43763815416E+02  0.56312155411E+02  0.41800000000E+01 0. -1.
         -5    1    4    4    0  501 -0.54139353186E+02 -0.25050463336E+02 -0.43652035351E+03  0.44059742022E+03  0.41800000000E+01 0. -1.
</event>
<event>
11    1  0.8551154E-009  0.1953119E+03  0.7561462E-02  0.1057889E+00
         22   -1    0    0    0    0  0.00000000000E+00  0.00000000000E+00  0.19530233899E+04  0.19530233899E+04  0.00000000000E+00 0.  1.
         22   -1    0    0    0    0 -0.00000000000E+00 -0.00000000000E+00 -0.95764866046E+03  0.95764866046E+03  0.00000000000E+00 0.  1.
         24    2    1    2    0    0 -0.29495689297E+02  0.55286032091E+02 -0.90410107744E+03  0.90984204333E+03  0.80543432704E+02 0.  0.
         25    2    1    2    0    0  0.13841408719E+03  0.49796004067E+02  0.15428169132E+03  0.24716192745E+03  0.12509227213E+03 0.  0.
        -24    2    1    2    0    0 -0.10891839789E+03 -0.10508203616E+03  0.17451941156E+04  0.17536680796E+04  0.82120525427E+02 0.  0.
        -11    1    3    3    0    0 -0.18838748525E+02  0.65579026676E+02 -0.86987334210E+03  0.87254520713E+03  0.00000000000E+00 0.  1.
         12    1    3    3    0    0 -0.10656940772E+02 -0.10292994585E+02 -0.34227735333E+02  0.37296836196E+02  0.00000000000E+00 0. -1.
         13    1    5    5    0    0 -0.52837337901E+02 -0.85897961425E+02  0.75555438111E+03  0.76225498809E+03  0.00000000000E+00 0. -1.
        -14    1    5    5    0    0 -0.56081059991E+02 -0.19184074733E+02  0.98963973446E+03  0.99141309152E+03  0.00000000000E+00 0.  1.
          5    1    4    4  501    0  0.32612000266E+02  0.32405982734E+02  0.12887232392E+03  0.13689133848E+03  0.41800000000E+01 0. -1.
         -5    1    4    4    0  501  0.10580208692E+03  0.17390021333E+02  0.25409367405E+02  0.11027058897E+03  0.41800000000E+01 0. -1.
</event>
<event>
11    1  0.8551154E-009  0.1981976E+03  0.7561462E-02  0.1055806E+00
         22   -1    0    0    0    0  0.00000000000E+00  0.00000000000E+00  0.11891294195E+04  0.11891294195E+04  0.00000000000E+00 0. -1.
         22   -1    0    0    0    0 -0.00000000000E+00 -0.00000000000E+00 -0.35638107037E+03  0.35638107037E+03  0.00000000000E+00 0.  1.
        -24    2    1    2    0    0 -0.86296627515E+01  0.23513923798E+02 -0.28781358307E+03  0.29964995537E+03  0.79536541669E+02 0.  0.
         25    2    1    2    0    0  0.15492602574E+03  0.23210850268E+02  0.12661902069E+03  0.23711219279E+03  0.12509595735E+03 0.  0.
         24    2    1    2    0    0 -0.14629636299E+03 -0.46724774066E+02  0.99394291149E+03  0.10087483417E+04  0.77877308963E+02 0.  0.
        -13    1    5    5    0    0 -0.46100483905E+02  0.21274896494E+02  0.26594565073E+03  0.27074889654E+03  0.00000000000E+00 0.  1.
         14    1    5    5    0    0 -0.10019587909E+03 -0.67999670560E+02  0.72799726077E+03  0.73799944517E+03  0.00000000000E+00 0. -1.
         11    1    3    3    0    0 -0.32025339684E+02  0.38106760954E+02 -0.12550300586E+03  0.13501389592E+03  0.00000000000E+00 0. -1.
        -12    1    3    3    0    0  0.23395676932E+02 -0.14592837156E+02 -0.16231057721E+03  0.16463605944E+03  0.00000000000E+00 0.  1.
          5    1    4    4  501    0  0.12996738902E+03 -0.21108771559E+02  0.41956264432E+02  0.13825665615E+03  0.41800000000E+01 0. -1.
         -5    1    4    4    0  501  0.24958636728E+02  0.44319621827E+02  0.84662756263E+02  0.98855536639E+02  0.41800000000E+01 0. -1.
</event>
<event>
11    1  0.8551154E-009  0.1498239E+03  0.7561462E-02  0.1097059E+00
         22   -1    0    0    0    0  0.00000000000E+00  0.00000000000E+00  0.35743002537E+04  0.35743002537E+04  0.00000000000E+00 0.  1.
         22   -1    0    0    0    0 -0.00000000000E+00 -0.00000000000E+00 -0.90267181475E+02  0.90267181475E+02  0.00000000000E+00 0.  1.
        -24    2    1    2    0    0 -0.80657116773E+02  0.20231909792E+02 -0.44990115040E+02  0.12543670709E+03  0.82433951589E+02 0.  0.
         25    2    1    2    0    0  0.45693906383E+02 -0.60466470658E+02  0.13396068708E+04  0.13475671488E+04  0.12508607091E+03 0.  0.
         24    2    1    2    0    0  0.34963210390E+02  0.40234560866E+02  0.21894163164E+04  0.21915635792E+04  0.81030051017E+02 0.  0.
        -13    1    5    5    0    0 -0.15794194605E+02  0.29754949715E+02  0.14220866936E+04  0.14224856336E+04  0.00000000000E+00 0.  1.
         14    1    5    5    0    0  0.50757404995E+02  0.10479611152E+02  0.76732962281E+03  0.76907794562E+03  0.00000000000E+00 0. -1.
         11    1    3    3    0    0 -0.35226786289E+02  0.17694130621E+01  0.22629991357E+02  0.41906727428E+02  0.00000000000E+00 0. -1.
        -12    1    3    3    0    0 -0.45430330484E+02  0.18462496729E+02 -0.67620106398E+02  0.83529979664E+02  0.00000000000E+00 0.  1.
          5    1    4    4  501    0  0.22214965402E+02  0.87237428610E+01  0.99405910165E+03  0.99435435251E+03  0.41800000000E+01 0. -1.
         -5    1    4    4    0  501  0.23478940981E+02 -0.69190213519E+02  0.34554776916E+03  0.35321279633E+03  0.41800000000E+01 0. -1.
</event>
<event>
11    1  0.8551154E-009  0.1515576E+03  0.7561462E-02  0.1095298E+00
         22   -1    0    0    0    0  0.00000000000E+00  0.00000000000E+00  0.71021110763E+03  0.71021110763E+03  0.00000000000E+00 0.  1.
         22   -1    0    0    0    0 -0.00000000000E+00 -0.00000000000E+00 -0.13607071902E+04  0.13607071902E+04  0.00000000000E+00 0.  1.
        -24    2    1    2    0    0 -0.41185945904E+02  0.76444283003E+02 -0.12955618583E+04  0.13007603249E+04  0.77180849874E+02 0.  0.
         25    2    1    2    0    0  0.65060124686E+02 -0.14199493045E+02  0.28590053498E+02  0.14456077676E+03  0.12508389821E+03 0.  0.
         24    2    1    2    0    0 -0.23874178782E+02 -0.62244789957E+02  0.61647572217E+03  0.62559719624E+03  0.82976777662E+02 0.  0.
        -13    1    5    5    0    0 -0.43628119416E+02 -0.44197022093E+02  0.23126554124E+03  0.23945884851E+03  0.00000000000E+00 0.  1.
         14    1    5    5    0    0  0.19753940634E+02 -0.18047767865E+02  0.38521018093E+03  0.38613834773E+03  0.00000000000E+00 0. -1.
         13    1    3    3    0    0 -0.41068423490E+01 -0.16023810578E+02 -0.19023549177E+03  0.19095332149E+03  0.00000000000E+00 0. -1.
        -14    1    3    3    0    0 -0.37079103555E+02  0.92468093581E+02 -0.11053263665E+04  0.11098070034E+04  0.00000000000E+00 0.  1.
          5    1    4    4  501    0  0.75412383897E+02  0.37272705980E+02 -0.83687418051E+00  0.84228587870E+02  0.41800000000E+01 0.  1.
         -5    1    4    4    0  501 -0.10352259211E+02 -0.51472199025E+02  0.29426927679E+02  0.60332188887E+02  0.41800000000E+01 0.  1.
</event>
<event>
11    1  0.8551154E-009  0.1335237E+03  0.7561462E-02  0.1115014E+00
         22   -1    0    0    0    0  0.00000000000E+00  0.00000000000E+00  0.54412213818E+03  0.54412213818E+03  0.00000000000E+00 0.  1.
         22   -1    0    0    0    0 -0.00000000000E+00 -0.00000000000E+00 -0.22492727287E+03  0.22492727287E+03  0.00000000000E+00 0.  1.
        -24    2    1    2    0    0  0.61121617600E+01  0.84398273254E+01 -0.16959594463E+03  0.18736419012E+03  0.78955469089E+02 0.  0.
         25    2    1    2    0    0 -0.21510848277E+02  0.36311268529E+02  0.63673707036E+02  0.14657460603E+03  0.12509416193E+03 0.  0.
         24    2    1    2    0    0  0.15398686517E+02 -0.44751095855E+02  0.42511710290E+03  0.43511061491E+03  0.79730269640E+02 0.  0.
        -13    1    5    5    0    0  0.99356303790E+00 -0.37218768363E+01  0.33528623891E+03  0.33530836783E+03  0.00000000000E+00 0.  1.
         14    1    5    5    0    0  0.14405123479E+02 -0.41029219018E+02  0.89830863995E+02  0.99802247078E+02  0.00000000000E+00 0. -1.
         13    1    3    3    0    0 -0.22187282394E+02  0.12925743052E+01 -0.87401987376E+01  0.23881736167E+02  0.00000000000E+00 0. -1.
        -14    1    3    3    0    0  0.28299444154E+02  0.71472530202E+01 -0.16085574589E+03  0.16348245395E+03  0.00000000000E+00 0.  1.
          5    1    4    4  501    0  0.39557471625E+02 -0.23697982607E+02  0.22307376679E+02  0.51395324644E+02  0.41800000000E+01 0. -1.
         -5    1    4    4    0  501 -0.61068319902E+02  0.60009251136E+02  0.41366330356E+02  0.95179281384E+02  0.41800000000E+01 0. -1.
</event>
<event>
11    1  0.8551154E-009  0.1721132E+03  0.7561462E-02  0.1076207E+00
         22   -1    0    0    0    0  0.00000000000E+00  0.00000000000E+00  0.16176165391E+03  0.16176165391E+03  0.00000000000E+00 0.  1.
         22   -1    0    0    0    0 -0.00000000000E+00 -0.00000000000E+00 -0.69768717060E+03  0.69768717060E+03  0.00000000000E+00 0. -1.
        -24    2    1    2    0    0 -0.63496707551E+02  0.87261703522E+02 -0.16765029806E+03  0.21530061391E+03  0.81248354695E+02 0.  0.
         25    2    1    2    0    0  0.17440816210E+03 -0.10050970776E+03 -0.43227353309E+03  0.49297949083E+03  0.12509181672E+03 0.  0.
         24    2    1    2    0    0 -0.11091145455E+03  0.13248004238E+02  0.63998314463E+02  0.15116871977E+03  0.79242269122E+02 0.  0.
        -13    1    5    5    0    0 -0.85810518750E+02  0.37135916506E+01  0.82074725496E+02  0.11880023761E+03  0.00000000000E+00 0.  1.
         14    1    5    5    0    0 -0.25100935796E+02  0.95344125871E+01 -0.18076411032E+02  0.32368482155E+02  0.00000000000E+00 0. -1.
         11    1    3    3    0    0  0.16352775901E+02  0.33060757269E+00 -0.13895417400E+02  0.21461714884E+02  0.00000000000E+00 0. -1.
        -12    1    3    3    0    0 -0.79849483452E+02  0.86931095949E+02 -0.15375488066E+03  0.19383889903E+03  0.00000000000E+00 0.  1.
          5    1    4    4  501    0  0.12436671947E+02 -0.33907843284E+02 -0.13053583384E+02  0.38630054161E+02  0.41800000000E+01 0.  1.
         -5    1    4    4    0  501  0.16197149015E+03 -0.66601864476E+02 -0.41921994970E+03  0.45434943667E+03  0.41800000000E+01 0.  1.
</event>
<event>
11    1  0.8551154E-009  0.1397546E+03  0.7561462E-02  0.1107833E+00
         22   -1    0    0    0    0  0.00000000000E+00  0.00000000000E+00  0.10571023101E+04  0.10571023101E+04  0.00000000000E+00 0. -1.
         22   -1    0    0    0    0 -0.00000000000E+00 -0.00000000000E+00 -0.25757440520E+03  0.25757440520E+03  0.00000000000E+00 0.  1.
        -24    2    1    2    0    0 -0.64727085764E+02 -0.21525462889E+01 -0.13992638267E+03  0.17475103005E+03  0.82245369771E+02 0.  0.
         25    2    1    2    0    0  0.54885421143E+02 -0.24053425429E+02 -0.49463579734E+02  0.14725793435E+03  0.12508907539E+03 0.  0.
         24    2    1    2    0    0  0.98416646217E+01  0.26205971718E+02  0.98891786735E+03  0.99266775094E+03  0.81529774164E+02 0.  0.
        -11    1    5    5    0    0 -0.22491020542E+02 -0.14909722040E+02  0.17471783178E+03  0.17678932818E+03  0.00000000000E+00 0.  1.
         12    1    5    5    0    0  0.32332685164E+02  0.41115693758E+02  0.81420003557E+03  0.81587842276E+03  0.00000000000E+00 0. -1.
         11    1    3    3    0    0  0.11576119935E+02  0.14126157213E+02 -0.50740317523E+01  0.18955228001E+02  0.00000000000E+00 0. -1.
        -12    1    3    3    0    0 -0.76303205699E+02 -0.16278703502E+02 -0.13485235092E+03  0.15579580205E+03  0.00000000000E+00 0.  1.
          5    1    4    4  501    0 -0.30693863904E+02  0.19556737318E+02 -0.33808557424E+02  0.49850478543E+02  0.41800000000E+01 0. -1.
         -5    1    4    4    0  501  0.85579285047E+02 -0.43610162747E+02 -0.15655022310E+02  0.97407455810E+02  0.41800000000E+01 0. -1.
</event>
<event>
11    1  0.8551154E-009  0.1300046E+03  0.7561462E-02  0.1119263E+00
         22   -1    0    0    0    0  0.00000000000E+00  0.00000000000E+00  0.18848448944E+03  0.18848448944E+03  0.00000000000E+00 0. -1.
         22   -1    0    0    0    0 -0.00000000000E+00 -0.00000000000E+00 -0.41922831390E+03  0.41922831390E+03  0.00000000000E+00 0.  1.
         24    2    1    2    0    0  0.86370168315E+01  0.12526178908E+02 -0.21722901214E+03  0.23163075609E+03  0.78948465684E+02 0.  0.
         25    2    1    2    0    0 -0.43420329035E+02 -0.95858677527E+01 -0.15803916607E+03  0.20640070494E+03  0.12509060378E+03 0.  0.
        -24    2    1    2    0    0  0.34783312203E+02 -0.29403111557E+01  0.14452435375E+03  0.16968134230E+03  0.81767627211E+02 0.  0.
        -11    1    3    3    0    0 -0.24044926597E+02  0.23633408403E+02 -0.16895157515E+03  0.17228270730E+03  0.00000000000E+00 0.  1.
         12    1    3    3    0    0  0.32681943429E+02 -0.11107229495E+02 -0.48277436994E+02  0.59348048797E+02  0.00000000000E+00 0. -1.
         13    1    5    5    0    0  0.38913553014E+02 -0.37531698973E+02  0.88866619698E+02  0.10402004198E+03  0.00000000000E+00 0. -1.
        -14    1    5    5    0    0 -0.41302408109E+01  0.34591387817E+02  0.55657734054E+02  0.65661300324E+02  0.00000000000E+00 0.  1.
          5    1    4    4  501    0 -0.24776553322E+02 -0.50241454090E+02 -0.17469893577E+02  0.58828147048E+02  0.41800000000E+01 0.  1.
         -5    1    4    4    0  501 -0.18643775713E+02  0.40655586337E+02 -0.14056927249E+03  0.14757255789E+03  0.41800000000E+01 0.  1.
</event>
<event>
11    1  0.8551154E-009  0.1501197E+03  0.7561462E-02  0.1096757E+00
         22   -1    0    0    0    0  0.00000000000E+00  0.00000000000E+00  0.20396275358E+03  0.20396275358E+03  0.00000000000E+00 0. -1.
         22   -1    0    0    0    0 -0.00000000000E+00 -0.00000000000E+00 -0.85256033298E+03  0.85256033298E+03  0.00000000000E+00 0. -1.
         24    2    1    2    0    0  0.41004874176E+02 -0.22591141250E+02 -0.61142334720E+03  0.61832386648E+03  0.79335584650E+02 0.  0.
         25    2    1    2    0    0 -0.66370395517E+02  0.98630260795E+02 -0.18426371880E+03  0.25245522195E+03  0.12509022056E+03 0.  0.
        -24    2    1    2    0    0  0.25365521341E+02 -0.76039119545E+02  0.14708948660E+03  0.18574399812E+03  0.80250597478E+02 0.  0.
        -13    1    3    3    0    0  0.11208796177E+02  0.81605346891E+01 -0.15233441159E+02  0.20598280697E+02  0.00000000000E+00 0.  1.
         14    1    3    3    0    0  0.29796077999E+02 -0.30751675939E+02 -0.59618990604E+03  0.59772558579E+03  0.00000000000E+00 0. -1.
         11    1    5    5    0    0  0.41906617028E+02 -0.83120373903E+02  0.10714377776E+03  0.14193290746E+03  0.00000000000E+00 0. -1.
        -12    1    5    5    0    0 -0.16541095687E+02  0.70812543577E+01  0.39945708841E+02  0.43811090658E+02  0.00000000000E+00 0.  1.
          5    1    4    4  501    0  0.85786132017E+01  0.96840058300E+02 -0.98357532161E+02  0.13835919207E+03  0.41800000000E+01 0. -1.
         -5    1    4    4    0  501 -0.74949008719E+02  0.17902024945E+01 -0.85906186636E+02  0.11409602988E+03  0.41800000000E+01 0. -1.
</event>
<event>
11    1  0.8551154E-009  0.1306728E+03  0.7561462E-02  0.1118445E+00
         22   -1    0    0    0    0  0.00000000000E+00  0.00000000000E+00  0.20878479252E+03  0.20878479252E+03  0.00000000000E+00 0. -1.
         22   -1    0    0    0    0 -0.00000000000E+00 -0.00000000000E+00 -0.13251102137E+04  0.13251102137E+04  0.00000000000E+00 0.  1.
         24    2    1    2    0    0  0.13265937605E+02  0.18603239072E+02 -0.10417199060E+04  0.10449626259E+04  0.79021904363E+02 0.  0.
         25    2    1    2    0    0 -0.22252269890E+02  0.18627590923E+02 -0.25681204381E+03  0.28712772243E+03  0.12509097684E+03 0.  0.
        -24    2    1    2    0    0  0.89863322847E+01 -0.37230829995E+02  0.18220652865E+03  0.20180465786E+03  0.77839655576E+02 0.  0.
        -13    1    3    3    0    0 -0.50513081816E+00 -0.24294399019E+02 -0.68193074709E+03  0.68236355179E+03  0.00000000000E+00 0.  1.
         14    1    3    3    0    0  0.13771068423E+02  0.42897638090E+02 -0.35978915892E+03  0.36259907412E+03  0.00000000000E+00 0. -1.
         13    1    5    5    0    0 -0.27478498999E+02 -0.37715027828E+02  0.13000847778E+03  0.13812927107E+03  0.00000000000E+00 0. -1.
        -14    1    5    5    0    0  0.36464831283E+02  0.48419783272E+00  0.52198050870E+02  0.63675386788E+02  0.00000000000E+00 0.  1.
          5    1    4    4  501    0 -0.90552970283E+00  0.33382107891E+02 -0.50906633815E+01  0.34037807875E+02  0.41800000000E+01 0. -1.
         -5    1    4    4    0  501 -0.21346740187E+02 -0.14754516968E+02 -0.25172138042E+03  0.25308991456E+03  0.41800000000E+01 0. -1.
</event>
<event>
11    1  0.8551154E-009  0.1525938E+03  0.7561462E-02  0.1094258E+00
         22   -1    0    0    0    0  0.00000000000E+00  0.00000000000E+00  0.15720160795E+03  0.15720160795E+03  0.00000000000E+00 0.  1.
         22   -1    0    0    0    0 -0.00000000000E+00 -0.00000000000E+00 -0.10316115014E+04  0.10316115014E+04  0.00000000000E+00 0.  1.
        -24    2    1    2    0    0 -0.66359486581E+01 -0.31890607746E+02 -0.87131303855E+03  0.87556824474E+03  0.79826645783E+02 0.  0.
         25    2    1    2    0    0  0.74030333825E+02  0.79132640926E+02 -0.70349008001E+02  0.17982993929E+03  0.12508940383E+03 0.  0.
         24    2    1    2    0    0 -0.67394385167E+02 -0.47242033180E+02  0.67252153123E+02  0.13341492530E+03  0.80640420028E+02 0.  0.
        -13    1    5    5    0    0 -0.52015845399E+02 -0.33610272091E+02  0.85743497008E+02  0.10576977754E+03  0.00000000000E+00 0.  1.
         14    1    5    5    0    0 -0.15378539768E+02 -0.13631761089E+02 -0.18491343885E+02  0.27645147756E+02  0.00000000000E+00 0. -1.
         13    1    3    3    0    0  0.56830763362E+00  0.22629809321E+01  0.10133411979E+01  0.25437996480E+01  0.00000000000E+00 0. -1.
        -14    1    3    3    0    0 -0.72042562917E+01 -0.34153588678E+02 -0.87232637975E+03  0.87302444509E+03  0.00000000000E+00 0.  1.
          5    1    4    4  501    0  0.79022589468E+02  0.10624498445E+03 -0.39484446969E+02  0.13823552481E+03  0.41800000000E+01 0. -1.
         -5    1    4    4    0  501 -0.49922556430E+01 -0.27112343525E+02 -0.30864561033E+02  0.41594414476E+02  0.41800000000E+01 0. -1.
</event>
<event>
11    1  0.8551154E-009  0.1030591E+04  0.7561462E-02  0.8650450E-01
         22   -1    0    0    0    0  0.00000000000E+00  0.00000000000E+00  0.19090725625E+04  0.19090725625E+04  0.00000000000E+00 0.  1.
         22   -1    0    0    0    0 -0.00000000000E+00 -0.00000000000E+00 -0.97474516099E+03  0.97474516099E+03  0.00000000000E+00 0.  1.
        -24    2    1    2    0    0 -0.83681895683E+03  0.49626323534E+03 -0.11320497356E+03  0.98277590307E+03  0.80560190859E+02 0.  0.
         25    2    1    2    0    0  0.10304217000E+04 -0.43440150908E+03  0.36289082634E+03  0.11822899778E+04  0.12508512599E+03 0.  0.
         24    2    1    2    0    0 -0.19360274318E+03 -0.61861726263E+02  0.68464154875E+03  0.71875184268E+03  0.81001640379E+02 0.  0.
        -13    1    5    5    0    0 -0.19690200271E+02 -0.23055597563E+02  0.41587803816E+02  0.51466591027E+02  0.00000000000E+00 0.  1.
         14    1    5    5    0    0 -0.17391254291E+03 -0.38806128700E+02  0.64305374493E+03  0.66728525165E+03  0.00000000000E+00 0. -1.
         13    1    3    3    0    0 -0.18083345291E+03  0.12253215168E+03 -0.56756845602E+02  0.22569050802E+03  0.00000000000E+00 0. -1.
        -14    1    3    3    0    0 -0.65598550392E+03  0.37373108366E+03 -0.56448127960E+02  0.75708539505E+03  0.00000000000E+00 0.  1.
          5    1    4    4  501    0  0.82820429926E+03 -0.34935767313E+03  0.34253257212E+03  0.96193512279E+03  0.41800000000E+01 0.  1.
         -5    1    4    4    0  501  0.20221740074E+03 -0.85043835956E+02  0.20358254226E+02  0.22035485498E+03  0.41800000000E+01 0.  1.
</event>
<event>
11    1  0.8551154E-009  0.1760394E+03  0.7561462E-02  0.1072892E+00
         22   -1    0    0    0    0  0.00000000000E+00  0.00000000000E+00  0.35231924242E+03  0.35231924242E+03  0.00000000000E+00 0.  1.
         22   -1    0    0    0    0 -0.00000000000E+00 -0.00000000000E+00 -0.15564734122E+04  0.15564734122E+04  0.00000000000E+00 0.  1.
        -24    2    1    2    0    0 -0.10714269908E+03 -0.34141986329E+02 -0.13773795053E+04  0.13843677947E+04  0.81576076388E+02 0.  0.
         25    2    1    2    0    0  0.13363874219E+03 -0.87409042846E+02 -0.90085615938E+02  0.22195367059E+03  0.12509340311E+03 0.  0.
         24    2    1    2    0    0 -0.26496043118E+02  0.12155102917E+03  0.26331095151E+03  0.30247118927E+03  0.81728025540E+02 0.  0.
        -13    1    5    5    0    0 -0.22936483757E+02  0.10723651811E+03  0.26578066348E+03  0.28751541556E+03  0.00000000000E+00 0.  1.
         14    1    5    5    0    0 -0.35595593610E+01  0.14314511061E+02 -0.24697119796E+01  0.14955773702E+02  0.00000000000E+00 0. -1.
         11    1    3    3    0    0 -0.23669636033E+01 -0.56309197495E+01 -0.53299601659E+03  0.53303101549E+03  0.00000000000E+00 0. -1.
        -12    1    3    3    0    0 -0.10477573547E+03 -0.28511066580E+02 -0.84438348874E+03  0.85133677926E+03  0.00000000000E+00 0.  1.
          5    1    4    4  501    0  0.11130855082E+02 -0.34981272132E+02 -0.80159361246E+02  0.88264267573E+02  0.41800000000E+01 0. -1.
         -5    1    4    4    0  501  0.12250788711E+03 -0.52427770713E+02 -0.99262546929E+01  0.13368940302E+03  0.41800000000E+01 0. -1.
</event>
<event>
11    1  0.8551154E-009  0.2469103E+03  0.7561462E-02  0.1025558E+00
         22   -1    0    0    0    0  0.00000000000E+00  0.00000000000E+00  0.45240393234E+03  0.45240393234E+03  0.00000000000E+00 0.  1.
         22   -1    0    0    0    0 -0.00000000000E+00 -0.00000000000E+00 -0.45512230292E+03  0.45512230292E+03  0.00000000000E+00 0.  1.
        -24    2    1    2    0    0  0.12512881869E+03  0.83432468580E+02 -0.28049599502E+03  0.32819365251E+03  0.80092897611E+02 0.  0.
         25    2    1    2    0    0 -0.23212279524E+03  0.78962166879E+02  0.23828399089E+03  0.36406457554E+03  0.12509092284E+03 0.  0.
         24    2    1    2    0    0  0.10699397655E+03 -0.16239463546E+03  0.39493633544E+02  0.21526800721E+03  0.83431643833E+02 0.  0.
        -11    1    5    5    0    0  0.10570273213E+03 -0.89259466115E+02  0.22392966563E+02  0.14014908071E+03  0.00000000000E+00 0.  1.
         12    1    5    5    0    0  0.12912444140E+01 -0.73135169345E+02  0.17100666981E+02  0.75118926499E+02  0.00000000000E+00 0. -1.
         13    1    3    3    0    0  0.35522210706E+02  0.62970397460E+02 -0.81189536222E+02  0.10871448478E+03  0.00000000000E+00 0. -1.
        -14    1    3    3    0    0  0.89606607989E+02  0.20462071120E+02 -0.19930645880E+03  0.21947916773E+03  0.00000000000E+00 0.  1.
          5    1    4    4  501    0 -0.23722879672E+03  0.81561707102E+02  0.24750685630E+03  0.35243003614E+03  0.41800000000E+01 0. -1.
         -5    1    4    4    0  501  0.51060014784E+01 -0.25995402233E+01 -0.92228654121E+01  0.11634539393E+02  0.41800000000E+01 0. -1.
</event>
<event>
11    1  0.8551154E-009  0.1392572E+03  0.7561462E-02  0.1108391E+00
         22   -1    0    0    0    0  0.00000000000E+00  0.00000000000E+00  0.50869339527E+03  0.50869339527E+03  0.00000000000E+00 0. -1.
         22   -1    0    0    0    0 -0.00000000000E+00 -0.00000000000E+00 -0.20656249582E+03  0.20656249582E+03  0.00000000000E+00 0. -1.
        -24    2    1    2    0    0  0.41292341471E+02 -0.13872694649E+02 -0.15240825045E+03  0.17528504255E+03  0.74826881643E+02 0.  0.
         25    2    1    2    0    0 -0.14304931382E+02  0.69366504096E+02  0.11311215204E+03  0.18291510130E+03  0.12508889796E+03 0.  0.
         24    2    1    2    0    0 -0.26987410089E+02 -0.55493809447E+02  0.34142699787E+03  0.35705574724E+03  0.84312090297E+02 0.  0.
        -13    1    5    5    0    0  0.13025729347E+02 -0.35294598484E+02  0.52021479522E+02  0.64199786906E+02  0.00000000000E+00 0.  1.
         14    1    5    5    0    0 -0.40013139436E+02 -0.20199210964E+02  0.28940551835E+03  0.29285596033E+03  0.00000000000E+00 0. -1.
         13    1    3    3    0    0  0.58754322318E+02  0.46659569898E+01 -0.86916919773E+02  0.10501615347E+03  0.00000000000E+00 0. -1.
        -14    1    3    3    0    0 -0.17461980848E+02 -0.18538651638E+02 -0.65491330679E+02  0.70268889089E+02  0.00000000000E+00 0.  1.
          5    1    4    4  501    0 -0.48343209077E+02  0.58359480990E+02  0.12391655806E+03  0.14531235545E+03  0.41800000000E+01 0. -1.
         -5    1    4    4    0  501  0.34038277695E+02  0.11007023106E+02 -0.10804406020E+02  0.37602745851E+02  0.41800000000E+01 0. -1.
</event>
<event>
11    1  0.8551154E-009  0.1376641E+03  0.7561462E-02  0.1110195E+00
         22   -1    0    0    0    0  0.00000000000E+00  0.00000000000E+00  0.34119729772E+03  0.34119729772E+03  0.00000000000E+00 0.  1.
         22   -1    0    0    0    0 -0.00000000000E+00 -0.00000000000E+00 -0.62494985193E+03  0.62494985193E+03  0.00000000000E+00 0. -1.
        -24    2    1    2    0    0 -0.12755873523E+02  0.31847210643E+02 -0.46536622095E+03  0.47330240586E+03  0.79199057127E+02 0.  0.
         25    2    1    2    0    0  0.31608578225E+02  0.23863428747E+02 -0.11846242916E+03  0.17677316528E+03  0.12508732706E+03 0.  0.
         24    2    1    2    0    0 -0.18852704703E+02 -0.55710639390E+02  0.30007609591E+03  0.31607157851E+03  0.79977994392E+02 0.  0.
        -13    1    5    5    0    0 -0.32731496649E+02 -0.23295213849E+02  0.25828946605E+03  0.26139522974E+03  0.00000000000E+00 0.  1.
         14    1    5    5    0    0  0.13878791946E+02 -0.32415425542E+02  0.41786629866E+02  0.54676348767E+02  0.00000000000E+00 0. -1.
         11    1    3    3    0    0 -0.15088851637E+01  0.12563411297E+02 -0.43710323886E+03  0.43728635636E+03  0.00000000000E+00 0. -1.
        -12    1    3    3    0    0 -0.11246988359E+02  0.19283799346E+02 -0.28262982091E+02  0.36016049493E+02  0.00000000000E+00 0.  1.
          5    1    4    4  501    0  0.76949151328E+02 -0.27746932179E+01 -0.82507415411E+02  0.11293279776E+03  0.41800000000E+01 0. -1.
         -5    1    4    4    0  501 -0.45340573103E+02  0.26638121965E+02 -0.35955013752E+02  0.63840367519E+02  0.41800000000E+01 0. -1.
</event>
<event>
11    1  0.8551154E-009  0.1524470E+03  0.7561462E-02  0.1094404E+00
         22   -1    0    0    0    0  0.00000000000E+00  0.00000000000E+00  0.18489215339E+04  0.18489215339E+04  0.00000000000E+00 0.  1.
         22   -1    0    0    0    0 -0.00000000000E+00 -0.00000000000E+00 -0.18308032222E+03  0.18308032222E+03  0.00000000000E+00 0. -1.
        -24    2    1    2    0    0 -0.25692671704E+02  0.82131743707E+02 -0.12764012117E+03  0.17354312714E+03  0.80121655882E+02 0.  0.
         25    2    1    2    0    0  0.29231079347E+02 -0.91894197062E+02  0.16682686610E+03  0.22973500829E+03  0.12509185157E+03 0.  0.
         24    2    1    2    0    0 -0.35384076429E+01  0.97624533549E+01  0.16266544667E+04  0.16287237207E+04  0.81414853110E+02 0.  0.
        -11    1    5    5    0    0  0.37706389951E+02  0.14532638491E+02  0.85067058177E+03  0.85162985394E+03  0.00000000000E+00 0.  1.
         12    1    5    5    0    0 -0.41244797594E+02 -0.47701851361E+01  0.77598388495E+03  0.77709386672E+03  0.00000000000E+00 0. -1.
         11    1    3    3    0    0 -0.41186029331E+02  0.33610077382E+02 -0.10523149568E+03  0.11789653937E+03  0.00000000000E+00 0. -1.
        -12    1    3    3    0    0  0.15493357627E+02  0.48521666325E+02 -0.22408625492E+02  0.55646587766E+02  0.00000000000E+00 0.  1.
          5    1    4    4  501    0 -0.64503662265E+01 -0.95251549892E+01  0.13323968208E+03  0.13380067669E+03  0.41800000000E+01 0.  1.
         -5    1    4    4    0  501  0.35681445573E+02 -0.82369042073E+02  0.33587184019E+02  0.95934331605E+02  0.41800000000E+01 0.  1.
</event>
<event>
11    1  0.8551154E-009  0.2155750E+03  0.7561462E-02  0.1044025E+00
         22   -1    0    0    0    0  0.00000000000E+00  0.00000000000E+00  0.52465685367E+03  0.52465685367E+03  0.00000000000E+00 0.  1.
         22   -1    0    0    0    0 -0.00000000000E+00 -0.00000000000E+00 -0.88133579574E+03  0.88133579574E+03  0.00000000000E+00 0. -1.
         24    2    1    2    0    0 -0.10096446871E+03 -0.21018652304E+02 -0.66043925360E+03  0.67317120818E+03  0.79648352997E+02 0.  0.
         25    2    1    2    0    0  0.16985847585E+03  0.17590024204E+03 -0.96222818529E+02  0.29103011183E+03  0.12508756221E+03 0.  0.
        -24    2    1    2    0    0 -0.68894007139E+02 -0.15488158973E+03  0.39998313006E+03  0.44179132939E+03  0.80364067433E+02 0.  0.
        -11    1    3    3    0    0 -0.66902696509E+02 -0.45806952564E+02 -0.31900994154E+03  0.32915283761E+03  0.00000000000E+00 0.  1.
         12    1    3    3    0    0 -0.34061772199E+02  0.24788300260E+02 -0.34142931207E+03  0.34401837057E+03  0.00000000000E+00 0. -1.
         13    1    5    5    0    0 -0.61591294241E+01  0.74140604623E+01  0.50239616839E+02  0.51155862498E+02  0.00000000000E+00 0. -1.
        -14    1    5    5    0    0 -0.62734877715E+02 -0.16229565020E+03  0.34974351322E+03  0.39063546689E+03  0.00000000000E+00 0.  1.
          5    1    4    4  501    0  0.39153587002E+02  0.68087295669E+02  0.25141008896E+02  0.82573760572E+02  0.41800000000E+01 0. -1.
         -5    1    4    4    0  501  0.13070488885E+03  0.10781294637E+03 -0.12136382743E+03  0.20845635126E+03  0.41800000000E+01 0. -1.
</event>
<event>
11    1  0.8551154E-009  0.1457743E+03  0.7561462E-02  0.1101277E+00
         22   -1    0    0    0    0  0.00000000000E+00  0.00000000000E+00  0.26615106493E+04  0.26615106493E+04  0.00000000000E+00 0. -1.
         22   -1    0    0    0    0 -0.00000000000E+00 -0.00000000000E+00 -0.12068854503E+03  0.12068854503E+03  0.00000000000E+00 0.  1.
        -24    2    1    2    0    0  0.21400271977E+02 -0.40403190799E+02 -0.54452009549E+02  0.10192385961E+03  0.73027818989E+02 0.  0.
         25    2    1    2    0    0  0.43527324727E+02  0.97761387949E+00  0.64939808218E+02  0.14751717685E+03  0.12509418471E+03 0.  0.
         24    2    1    2    0    0 -0.64927596704E+02  0.39425576919E+02  0.25303343056E+04  0.25327581579E+04  0.80636339511E+02 0.  0.
        -11    1    5    5    0    0  0.14849276295E+02 -0.66562631845E+01  0.22726189049E+03  0.22784374847E+03  0.00000000000E+00 0.  1.
         12    1    5    5    0    0 -0.79776872999E+02  0.46081840104E+02  0.23030724151E+04  0.23049144094E+04  0.00000000000E+00 0. -1.
         11    1    3    3    0    0 -0.87284665726E+01 -0.24117667176E+02  0.11113107716E+02  0.27952623523E+02  0.00000000000E+00 0. -1.
        -12    1    3    3    0    0  0.30128738550E+02 -0.16285523623E+02 -0.65565117265E+02  0.73971236087E+02  0.00000000000E+00 0.  1.
          5    1    4    4  501    0  0.17983625982E+02 -0.11541940081E+02 -0.36269307138E+02  0.42303217662E+02  0.41800000000E+01 0. -1.
         -5    1    4    4    0  501  0.25543698744E+02  0.12519553961E+02  0.10120911536E+03  0.10521395919E+03  0.41800000000E+01 0. -1.
</event>
<event>
11    1  0.8551154E-009  0.1272122E+03  0.7561462E-02  0.1122742E+00
         22   -1    0    0    0    0  0.00000000000E+00  0.00000000000E+00  0.19338799308E+04  0.19338799308E+04  0.00000000000E+00 0.  1.
         22   -1    0    0    0    0 -0.00000000000E+00 -0.00000000000E+00 -0.31799300784E+03  0.31799300784E+03  0.00000000000E+00 0. -1.
        -24    2    1    2    0    0 -0.21471183490E+02 -0.73533222615E+01 -0.30155579584E+03  0.31545904118E+03  0.89796578929E+02 0.  0.
         25    2    1    2    0    0  0.64867734179E+02  0.13726943636E+02  0.63101016683E+03  0.64669672595E+03  0.12508626143E+03 0.  0.
         24    2    1    2    0    0 -0.43396550689E+02 -0.63736213744E+01  0.12864325520E+04  0.12897171715E+04  0.80856589312E+02 0.  0.
        -11    1    5    5    0    0 -0.42574209362E+02 -0.51122742906E+01  0.12872768815E+04  0.12879908650E+04  0.00000000000E+00 0.  1.
         12    1    5    5    0    0 -0.82234132715E+00 -0.12613470838E+01 -0.84432954814E+00  0.17263064937E+01  0.00000000000E+00 0. -1.
         11    1    3    3    0    0 -0.74690028921E+01 -0.24347398452E+02 -0.28898274229E+03  0.29010275275E+03  0.00000000000E+00 0. -1.
        -12    1    3    3    0    0 -0.14002180598E+02  0.16994076190E+02 -0.12573053556E+02  0.25356288427E+02  0.00000000000E+00 0.  1.
          5    1    4    4  501    0  0.75598245675E+01  0.52368205397E+02  0.12264071470E+03  0.13363306921E+03  0.41800000000E+01 0.  1.
         -5    1    4    4    0  501  0.57307909612E+02 -0.38641261762E+02  0.50836945213E+03  0.51306365674E+03  0.41800000000E+01 0.  1.
</event>
<event>
11    1  0.8551154E-009  0.1534352E+03  0.7561462E-02  0.1093419E+00
         22   -1    0    0    0    0  0.00000000000E+00  0.00000000000E+00  0.16202781338E+04  0.16202781338E+04  0.00000000000E+00 0. -1.
         22   -1    0    0    0    0 -0.00000000000E+00 -0.00000000000E+00 -0.73639952555E+03  0.73639952555E+03  0.00000000000E+00 0. -1.
        -24    2    1    2    0    0  0.13460445649E+02  0.89262168329E+02 -0.70139093767E+03  0.71178068325E+03  0.80830534531E+02 0.  0.
         25    2    1    2    0    0  0.41155113481E+02 -0.47254937975E+02  0.14780524807E+03  0.20351987841E+03  0.12508867663E+03 0.  0.
         24    2    1    2    0    0 -0.54615559130E+02 -0.42007230354E+02  0.14374642979E+04  0.14413770977E+04  0.80727092509E+02 0.  0.
        -13    1    5    5    0    0 -0.55264683226E+02  0.53383273481E+01  0.94913771910E+03  0.95076027092E+03  0.00000000000E+00 0.  1.
         14    1    5    5    0    0  0.64912409571E+00 -0.47345557702E+02  0.48832657876E+03  0.49061682678E+03  0.00000000000E+00 0. -1.
         11    1    3    3    0    0 -0.12267552333E+02 -0.56028011199E+01 -0.22240820052E+03  0.22281672262E+03  0.00000000000E+00 0. -1.
        -12    1    3    3    0    0  0.25727997981E+02  0.94864969449E+02 -0.47898273715E+03  0.48896396063E+03  0.00000000000E+00 0.  1.
          5    1    4    4  501    0  0.71309424297E+02  0.12623080861E+02  0.71353665145E+02  0.10175064665E+03  0.41800000000E+01 0. -1.
         -5    1    4    4    0  501 -0.30154310816E+02 -0.59878018836E+02  0.76451582925E+02  0.10176923176E+03  0.41800000000E+01 0. -1.
</event>
<event>
11    1  0.8551154E-009  0.2058652E+03  0.7561462E-02  0.1050452E+00
         22   -1    0    0    0    0  0.00000000000E+00  0.00000000000E+00  0.63096148445E+03  0.63096148445E+03  0.00000000000E+00 0.  1.
         22   -1    0    0    0    0 -0.00000000000E+00 -0.00000000000E+00 -0.88389101909E+03  0.88389101909E+03  0.00000000000E+00 0.  1.
         24    2    1    2    0    0  0.11784515060E+03  0.96314801849E+02 -0.62191989248E+03  0.64520040756E+03  0.79593923654E+02 0.  0.
         25    2    1    2    0    0 -0.19488401680E+03 -0.13070725912E+03 -0.17183366276E+03  0.31660331693E+03  0.12508671010E+03 0.  0.
        -24    2    1    2    0    0  0.77038866192E+02  0.34392457268E+02  0.54082402060E+03  0.55304877905E+03  0.79085414153E+02 0.  0.
        -11    1    3    3    0    0  0.11663628758E+03  0.62996507517E+02 -0.41633222439E+03  0.43692688703E+03  0.00000000000E+00 0.  1.
         12    1    3    3    0    0  0.12088630217E+01  0.33318294332E+02 -0.20558766809E+03  0.20827352054E+03  0.00000000000E+00 0. -1.
         11    1    5    5    0    0  0.74652130760E+01 -0.14121956490E+02  0.21181258838E+02  0.26529319391E+02  0.00000000000E+00 0. -1.
        -12    1    5    5    0    0  0.69573653116E+02  0.48514413758E+02  0.51964276176E+03  0.52651945966E+03  0.00000000000E+00 0.  1.
          5    1    4    4  501    0 -0.17693478319E+03 -0.80325165676E+02 -0.17677926693E+03  0.26272881714E+03  0.41800000000E+01 0. -1.
         -5    1    4    4    0  501 -0.17949233606E+02 -0.50382093441E+02  0.49456041634E+01  0.53874499785E+02  0.41800000000E+01 0. -1.
</event>
<event>
11    1  0.8551154E-009  0.1472225E+03  0.7561462E-02  0.1099751E+00
         22   -1    0    0    0    0  0.00000000000E+00  0.00000000000E+00  0.14140280667E+03  0.14140280667E+03  0.00000000000E+00 0.  1.
         22   -1    0    0    0    0 -0.00000000000E+00 -0.00000000000E+00 -0.73596936464E+03  0.73596936464E+03  0.00000000000E+00 0.  1.
        -24    2    1    2    0    0  0.22014370925E+01  0.82182440983E+02 -0.40471832169E+03  0.42091130232E+03  0.81305624502E+02 0.  0.
         25    2    1    2    0    0  0.54739430685E+02 -0.62274041878E+02 -0.28286867355E+03  0.32021474544E+03  0.12509330581E+03 0.  0.
         24    2    1    2    0    0 -0.56940867777E+02 -0.19908399105E+02  0.93020437266E+02  0.13624612355E+03  0.79193419269E+02 0.  0.
        -11    1    5    5    0    0 -0.30880098763E+02  0.11199663333E+02  0.89703957966E+02  0.95529121388E+02  0.00000000000E+00 0.  1.
         12    1    5    5    0    0 -0.26060769014E+02 -0.31108062437E+02  0.33164792995E+01  0.40717002163E+02  0.00000000000E+00 0. -1.
         13    1    3    3    0    0  0.40314760314E+02  0.29562353581E+02 -0.15400965079E+03  0.16192030504E+03  0.00000000000E+00 0. -1.
        -14    1    3    3    0    0 -0.38113323222E+02  0.52620087402E+02 -0.25070867090E+03  0.25899099727E+03  0.00000000000E+00 0.  1.
          5    1    4    4  501    0 -0.29460540027E+02 -0.35919065686E+02 -0.17335491504E+03  0.17952019849E+03  0.41800000000E+01 0. -1.
         -5    1    4    4    0  501  0.84199970711E+02 -0.26354976192E+02 -0.10951375851E+03  0.14069454695E+03  0.41800000000E+01 0. -1.
</event>
<event>
11    1  0.8551154E-009  0.1833002E+03  0.7561462E-02  0.1067004E+00
         22   -1    0    0    0    0  0.00000000000E+00  0.00000000000E+00  0.15653848008E+03  0.15653848008E+03  0.00000000000E+00 0. -1.
         22   -1    0    0    0    0 -0.00000000000E+00 -0.00000000000E+00 -0.12232737495E+04  0.12232737495E+04  0.00000000000E+00 0. -1.
         24    2    1    2    0    0 -0.64877017880E+02 -0.11395506205E+03 -0.56984703841E+03  0.59006603791E+03  0.79104350615E+02 0.  0.
         25    2    1    2    0    0  0.12019802521E+02  0.14548927572E+03 -0.60896791549E+03  0.63859304395E+03  0.12509016221E+03 0.  0.
        -24    2    1    2    0    0  0.52857215359E+02 -0.31534213663E+02  0.11207968449E+03  0.15115314771E+03  0.80604755078E+02 0.  0.
        -11    1    3    3    0    0 -0.50664616486E+01 -0.11022741198E+02 -0.55366217112E+01  0.13335067946E+02  0.00000000000E+00 0.  1.
         12    1    3    3    0    0 -0.59810556232E+02 -0.10293232086E+03 -0.56431041670E+03  0.57673096996E+03  0.00000000000E+00 0. -1.
         13    1    5    5    0    0  0.20897252354E+02 -0.32963761206E+02  0.11258395440E+03  0.11915725533E+03  0.00000000000E+00 0. -1.
        -14    1    5    5    0    0  0.31959963005E+02  0.14295475439E+01 -0.50426990835E+00  0.31995892386E+02  0.00000000000E+00 0.  1.
          5    1    4    4  501    0  0.18192523650E+02  0.32217207346E+02 -0.27865360264E+02  0.46506634672E+02  0.41800000000E+01 0. -1.
         -5    1    4    4    0  501 -0.61727211293E+01  0.11327206837E+03 -0.58110255523E+03  0.59208640928E+03  0.41800000000E+01 0. -1.
</event>
<event>
11    1  0.8551154E-009  0.1316196E+03  0.7561462E-02  0.1117295E+00
         22   -1    0    0    0    0  0.00000000000E+00  0.00000000000E+00  0.60213341069E+03  0.60213341069E+03  0.00000000000E+00 0. -1.
         22   -1    0    0    0    0 -0.00000000000E+00 -0.00000000000E+00 -0.86987811357E+02  0.86987811357E+02  0.00000000000E+00 0. -1.
         24    2    1    2    0    0  0.32636949014E+02 -0.50002668024E+02  0.21186399023E+02  0.11281466033E+03  0.93342631373E+02 0.  0.
         25    2    1    2    0    0 -0.18492169511E+02 -0.23069309813E+01  0.76701947474E+02  0.14791375039E+03  0.12509199233E+03 0.  0.
        -24    2    1    2    0    0 -0.14144779502E+02  0.52309599005E+02  0.41725725284E+03  0.42839281133E+03  0.80501036095E+02 0.  0.
        -13    1    3    3    0    0 -0.32207170648E+02 -0.13655279603E+02 -0.17328672662E+01  0.35025295590E+02  0.00000000000E+00 0.  1.
         14    1    3    3    0    0  0.64844119662E+02 -0.36347388421E+02  0.22919266289E+02  0.77789364742E+02  0.00000000000E+00 0. -1.
         11    1    5    5    0    0 -0.22810213634E+02  0.71478886015E+02  0.29840600452E+03  0.30769413470E+03  0.00000000000E+00 0. -1.
        -12    1    5    5    0    0  0.86654341321E+01 -0.19169287010E+02  0.11885124832E+03  0.12069867663E+03  0.00000000000E+00 0.  1.
          5    1    4    4  501    0  0.41577148802E+02 -0.14328772824E+02 -0.63487039761E+01  0.44629042958E+02  0.41800000000E+01 0.  1.
         -5    1    4    4    0  501 -0.60069318313E+02  0.12021841843E+02  0.83050651450E+02  0.10328470744E+03  0.41800000000E+01 0.  1.
</event>
<event>
11    1  0.8551154E-009  0.1997998E+03  0.7561462E-02  0.1054665E+00
         22   -1    0    0    0    0  0.00000000000E+00  0.00000000000E+00  0.63093229849E+03  0.63093229849E+03  0.00000000000E+00 0. -1.
         22   -1    0    0    0    0 -0.00000000000E+00 -0.00000000000E+00 -0.83185876294E+03  0.83185876294E+03  0.00000000000E+00 0. -1.
        -24    2    1    2    0    0  0.65254916914E+02  0.35621266956E+02 -0.66802224608E+03  0.67721317597E+03  0.82685461928E+02 0.  0.
         25    2    1    2    0    0 -0.42535501609E+02  0.12238512358E+03 -0.89380166128E+02  0.20105597846E+03  0.12508918820E+03 0.  0.
         24    2    1    2    0    0 -0.22719415304E+02 -0.15800639054E+03  0.55647594775E+03  0.58452190700E+03  0.80735296228E+02 0.  0.
        -13    1    5    5    0    0 -0.17931779110E+02 -0.19693753453E+02  0.20593499906E+03  0.20765022626E+03  0.00000000000E+00 0.  1.
         14    1    5    5    0    0 -0.47876361942E+01 -0.13831263709E+03  0.35054094870E+03  0.37687168075E+03  0.00000000000E+00 0. -1.
         11    1    3    3    0    0  0.82900984150E+02  0.40925801269E+02 -0.53675628996E+03  0.54466026952E+03  0.00000000000E+00 0. -1.
        -12    1    3    3    0    0 -0.17646067237E+02 -0.53045343128E+01 -0.13126595612E+03  0.13255290646E+03  0.00000000000E+00 0.  1.
          5    1    4    4  501    0  0.20465154327E+02 -0.32269670674E+01  0.15032485797E+02  0.25936150203E+02  0.41800000000E+01 0.  1.
         -5    1    4    4    0  501 -0.63000655937E+02  0.12561209065E+03 -0.10441265192E+03  0.17511982825E+03  0.41800000000E+01 0.  1.
</event>
<event>
11    1  0.8551154E-009  0.1690661E+03  0.7561462E-02  0.1078847E+00
         22   -1    0    0    0    0  0.00000000000E+00  0.00000000000E+00  0.14375741313E+03  0.14375741313E+03  0.00000000000E+00 0. -1.
         22   -1    0    0    0    0 -0.00000000000E+00 -0.00000000000E+00 -0.10695570530E+04  0.10695570530E+04  0.00000000000E+00 0. -1.
         24    2    1    2    0    0  0.29980988461E+02  0.28821020421E+02 -0.69974090186E+03  0.70554534571E+03  0.80171031088E+02 0.  0.
         25    2    1    2    0    0 -0.12868924756E+03 -0.75856952497E+02 -0.29707167653E+03  0.35526717335E+03  0.12509190136E+03 0.  0.
        -24    2    1    2    0    0  0.98708259101E+02  0.47035932076E+02  0.71012938539E+02  0.15250194704E+03  0.79109462715E+02 0.  0.
        -11    1    3    3    0    0  0.23098090711E+01 -0.47427747203E+01 -0.89955486486E+00  0.53514791364E+01  0.00000000000E+00 0.  1.
         12    1    3    3    0    0  0.27671179390E+02  0.33563795142E+02 -0.69884134699E+03  0.70019386657E+03  0.00000000000E+00 0. -1.
         11    1    5    5    0    0  0.47052989706E+01  0.40113583149E+02  0.26127087679E+02  0.48102641321E+02  0.00000000000E+00 0. -1.
        -12    1    5    5    0    0  0.94002960131E+02  0.69223489272E+01  0.44885850860E+02  0.10439930572E+03  0.00000000000E+00 0.  1.
          5    1    4    4  501    0 -0.49082557720E+02 -0.99236590575E+02 -0.15197207536E+03  0.18806908962E+03  0.41800000000E+01 0. -1.
         -5    1    4    4    0  501 -0.79606689842E+02  0.23379638078E+02 -0.14509960117E+03  0.16719808373E+03  0.41800000000E+01 0. -1.
</event>
<event>
11    1  0.8551154E-009  0.1648999E+03  0.7561462E-02  0.1082557E+00
         22   -1    0    0    0    0  0.00000000000E+00  0.00000000000E+00  0.10084831762E+03  0.10084831762E+03  0.00000000000E+00 0. -1.
         22   -1    0    0    0    0 -0.00000000000E+00 -0.00000000000E+00 -0.75232909263E+03  0.75232909263E+03  0.00000000000E+00 0. -1.
        -24    2    1    2    0    0  0.39943483898E+02  0.51819174254E+02 -0.46893729280E+03  0.48007723101E+03  0.79317428288E+02 0.  0.
         25    2    1    2    0    0 -0.47257051314E+02 -0.14268099650E+03 -0.14943824548E+03  0.24610666920E+03  0.12508240384E+03 0.  0.
         24    2    1    2    0    0  0.73135674156E+01  0.90861822249E+02 -0.33105236730E+02  0.12699351003E+03  0.81988022789E+02 0.  0.
        -13    1    5    5    0    0 -0.14706504413E+01  0.83403698941E+01 -0.42628113223E+02  0.43461254235E+02  0.00000000000E+00 0.  1.
         14    1    5    5    0    0  0.87842178569E+01  0.82521452355E+02  0.95228764928E+01  0.83532255799E+02  0.00000000000E+00 0. -1.
         11    1    3    3    0    0  0.51705067605E+02  0.24115206042E+02 -0.40948913794E+03  0.41344444762E+03  0.00000000000E+00 0. -1.
        -12    1    3    3    0    0 -0.11761583706E+02  0.27703968211E+02 -0.59448154863E+02  0.66632783392E+02  0.00000000000E+00 0.  1.
          5    1    4    4  501    0  0.82549117066E+01 -0.95517010546E+01  0.19705745962E+02  0.23773249341E+02  0.41800000000E+01 0.  1.
         -5    1    4    4    0  501 -0.55511963020E+02 -0.13312929545E+03 -0.16914399144E+03  0.22233341986E+03  0.41800000000E+01 0.  1.
</event>
<event>
11    1  0.8551154E-009  0.1466455E+03  0.7561462E-02  0.1100357E+00
         22   -1    0    0    0    0  0.00000000000E+00  0.00000000000E+00  0.10136079471E+04  0.10136079471E+04  0.00000000000E+00 0.  1.
         22   -1    0    0    0    0 -0.00000000000E+00 -0.00000000000E+00 -0.58735771721E+02  0.58735771721E+02  0.00000000000E+00 0.  1.
         24    2    1    2    0    0 -0.19969671574E+02 -0.47696440409E+02  0.20273949687E+02  0.10071489467E+03  0.84016181553E+02 0.  0.
         25    2    1    2    0    0  0.88035044746E+02  0.19668686644E+02  0.52094637189E+03  0.54329603535E+03  0.12509369810E+03 0.  0.
        -24    2    1    2    0    0 -0.68065373171E+02  0.28027753765E+02  0.41365185379E+03  0.42833278878E+03  0.83322696775E+02 0.  0.
        -13    1    3    3    0    0  0.40473931727E+01 -0.27201536014E+02 -0.30410205257E+02  0.41001043118E+02  0.00000000000E+00 0.  1.
         14    1    3    3    0    0 -0.24017064747E+02 -0.20494904394E+02  0.50684154944E+02  0.59713851555E+02  0.00000000000E+00 0. -1.
         11    1    5    5    0    0 -0.37855441233E+02  0.14855756872E+02  0.56226540472E+02  0.69391294819E+02  0.00000000000E+00 0. -1.
        -12    1    5    5    0    0 -0.30209931938E+02  0.13171996893E+02  0.35742531332E+03  0.35894149396E+03  0.00000000000E+00 0.  1.
          5    1    4    4  501    0  0.18745227680E+02  0.54969423157E+02  0.35790587897E+03  0.36261151615E+03  0.41800000000E+01 0. -1.
         -5    1    4    4    0  501  0.69289817065E+02 -0.35300736513E+02  0.16304049292E+03  0.18068451920E+03  0.41800000000E+01 0. -1.
</event>
<event>
11    1  0.8551154E-009  0.1681574E+03  0.7561462E-02  0.1079646E+00
         22   -1    0    0    0    0  0.00000000000E+00  0.00000000000E+00  0.80285448138E+02  0.80285448138E+02  0.00000000000E+00 0. -1.
         22   -1    0    0    0    0 -0.00000000000E+00 -0.00000000000E+00 -0.27877204497E+04  0.27877204497E+04  0.00000000000E+00 0.  1.
         24    2    1    2    0    0  0.35099710316E+02  0.47979358620E+01 -0.21018308970E+04  0.21038145753E+04  0.84188108823E+02 0.  0.
         25    2    1    2    0    0  0.41782883640E+02  0.80930047304E+02 -0.60415321852E+03  0.62365417086E+03  0.12509169222E+03 0.  0.
        -24    2    1    2    0    0 -0.76882593956E+02 -0.85727983166E+02 -0.14508860411E+01  0.14053715171E+03  0.80550391615E+02 0.  0.
        -13    1    3    3    0    0  0.44318604462E+02 -0.12724402671E+02 -0.19667410507E+04  0.19672814769E+04  0.00000000000E+00 0.  1.
         14    1    3    3    0    0 -0.92188941458E+01  0.17522338533E+02 -0.13508984635E+03  0.13653309835E+03  0.00000000000E+00 0. -1.
         13    1    5    5    0    0 -0.66181437137E+02 -0.30811554269E+02  0.26917622930E+02  0.77806766558E+02  0.00000000000E+00 0. -1.
        -14    1    5    5    0    0 -0.10701156819E+02 -0.54916428897E+02 -0.28368508971E+02  0.62730385152E+02  0.00000000000E+00 0.  1.
          5    1    4    4  501    0  0.63918959568E+02  0.92883663859E+02 -0.33913095827E+03  0.35740773307E+03  0.41800000000E+01 0.  1.
         -5    1    4    4    0  501 -0.22136075928E+02 -0.11953616555E+02 -0.26502226025E+03  0.26624643778E+03  0.41800000000E+01 0.  1.
</event>
<event>
11    1  0.8551154E-009  0.1443964E+03  0.7561462E-02  0.1102746E+00
         22   -1    0    0    0    0  0.00000000000E+00  0.00000000000E+00  0.13278398863E+04  0.13278398863E+04  0.00000000000E+00 0. -1.
         22   -1    0    0    0    0 -0.00000000000E+00 -0.00000000000E+00 -0.56334431130E+03  0.56334431130E+03  0.00000000000E+00 0. -1.
         24    2    1    2    0    0 -0.70291541419E+02  0.13497717208E+02 -0.53699678051E+03  0.54799021306E+03  0.82490254982E+02 0.  0.
         25    2    1    2    0    0  0.10812445420E+03 -0.14328061981E+02  0.34757100077E+03  0.38516199618E+03  0.12509185331E+03 0.  0.
        -24    2    1    2    0    0 -0.37832912779E+02  0.83034477363E+00  0.95392135468E+03  0.95803198832E+03  0.80170574201E+02 0.  0.
        -13    1    3    3    0    0 -0.99177117257E+01 -0.31092935958E+02 -0.12365737603E+03  0.12789166634E+03  0.00000000000E+00 0.  1.
         14    1    3    3    0    0 -0.60373829693E+02  0.44590653165E+02 -0.41333940447E+03  0.42009854672E+03  0.00000000000E+00 0. -1.
         11    1    5    5    0    0 -0.63207364507E+02  0.19768534061E+01  0.67271718553E+03  0.67568298083E+03  0.00000000000E+00 0. -1.
        -12    1    5    5    0    0  0.25374451728E+02 -0.11465086325E+01  0.28120416915E+03  0.28234900749E+03  0.00000000000E+00 0.  1.
          5    1    4    4  501    0  0.90016172700E+02  0.16820524989E+02  0.10287278614E+03  0.13779014455E+03  0.41800000000E+01 0.  1.
         -5    1    4    4    0  501  0.18108281498E+02 -0.31148586970E+02  0.24469821464E+03  0.24737185162E+03  0.41800000000E+01 0.  1.
</event>
<event>
11    1  0.8551154E-009  0.1384933E+03  0.7561462E-02  0.1109253E+00
         22   -1    0    0    0    0  0.00000000000E+00  0.00000000000E+00  0.35066140173E+03  0.35066140173E+03  0.00000000000E+00 0.  1.
         22   -1    0    0    0    0 -0.00000000000E+00 -0.00000000000E+00 -0.28351445818E+03  0.28351445818E+03  0.00000000000E+00 0.  1.
         24    2    1    2    0    0  0.19587541424E+02  0.98092467948E+02 -0.21038824062E+03  0.24498708107E+03  0.75826473302E+02 0.  0.
         25    2    1    2    0    0  0.28279740707E+02 -0.24371186446E+02  0.74022672299E+02  0.15006749487E+03  0.12508876264E+03 0.  0.
        -24    2    1    2    0    0 -0.47867282131E+02 -0.73721281502E+02  0.20351251187E+03  0.23912128397E+03  0.89641184275E+02 0.  0.
        -11    1    3    3    0    0  0.87013915173E+01  0.10891595040E+03 -0.17357853159E+03  0.20510461987E+03  0.00000000000E+00 0.  1.
         12    1    3    3    0    0  0.10886149906E+02 -0.10823482450E+02 -0.36809709031E+02  0.39882461196E+02  0.00000000000E+00 0. -1.
         13    1    5    5    0    0 -0.21836324416E+02 -0.90070757237E+02  0.13205215271E+03  0.16132990240E+03  0.00000000000E+00 0. -1.
        -14    1    5    5    0    0 -0.26030957714E+02  0.16349475735E+02  0.71460359152E+02  0.77791381569E+02  0.00000000000E+00 0.  1.
          5    1    4    4  501    0  0.55763829972E+02  0.28001938773E+02  0.64806404788E+02  0.90061400221E+02  0.41800000000E+01 0.  1.
         -5    1    4    4    0  501 -0.27484089265E+02 -0.52373125219E+02  0.92162675104E+01  0.60006094647E+02  0.41800000000E+01 0.  1.
</event>
<event>
11    1  0.8551154E-009  0.1623724E+03  0.7561462E-02  0.1084867E+00
         22   -1    0    0    0    0  0.00000000000E+00  0.00000000000E+00  0.79730993642E+03  0.79730993642E+03  0.00000000000E+00 0. -1.
         22   -1    0    0    0    0 -0.00000000000E+00 -0.00000000000E+00 -0.16494942489E+03  0.16494942489E+03  0.00000000000E+00 0. -1.
         24    2    1    2    0    0  0.97930278988E+02  0.31223020379E+02 -0.64392314250E+02  0.14530929245E+03  0.80020021212E+02 0.  0.
         25    2    1    2    0    0 -0.94965382804E+02 -0.48721455397E+02  0.60267027001E+02  0.17513508668E+03  0.12509188581E+03 0.  0.
        -24    2    1    2    0    0 -0.29648961837E+01  0.17498435018E+02  0.63648579878E+03  0.64181498218E+03  0.80605914594E+02 0.  0.
        -11    1    3    3    0    0 -0.85745756268E+01  0.13392680610E+02 -0.26427210717E+02  0.30842903679E+02  0.00000000000E+00 0.  1.
         12    1    3    3    0    0  0.10650485461E+03  0.17830339769E+02 -0.37965103533E+02  0.11446638877E+03  0.00000000000E+00 0. -1.
         13    1    5    5    0    0  0.35813660098E+02  0.24133031268E+02  0.32839665661E+03  0.33122407147E+03  0.00000000000E+00 0. -1.
        -14    1    5    5    0    0 -0.38778556282E+02 -0.66345962501E+01  0.30808914217E+03  0.31059091071E+03  0.00000000000E+00 0.  1.
          5    1    4    4  501    0 -0.12404885936E+03 -0.44998407832E+02  0.35996846188E+02  0.13684378521E+03  0.41800000000E+01 0.  1.
         -5    1    4    4    0  501  0.29083476553E+02 -0.37230475644E+01  0.24270180812E+02  0.38291301470E+02  0.41800000000E+01 0.  1.
</event>
<event>
11    1  0.8551154E-009  0.1867564E+03  0.7561462E-02  0.1064305E+00
         22   -1    0    0    0    0  0.00000000000E+00  0.00000000000E+00  0.14235326508E+03  0.14235326508E+03  0.00000000000E+00 0. -1.
         22   -1    0    0    0    0 -0.00000000000E+00 -0.00000000000E+00 -0.14186715043E+04  0.14186715043E+04  0.00000000000E+00 0. -1.
         24    2    1    2    0    0  0.24025930640E+02 -0.10902766521E+02 -0.10984993171E+04  0.11014877911E+04  0.76671301743E+02 0.  0.
         25    2    1    2    0    0 -0.15192731459E+03 -0.32835211392E+02 -0.22312692723E+03  0.29932115126E+03  0.12508983137E+03 0.  0.
        -24    2    1    2    0    0  0.12790138395E+03  0.43737977912E+02  0.45308005106E+02  0.16021582707E+03  0.73106232208E+02 0.  0.
        -11    1    3    3    0    0 -0.19840679859E+02  0.12811929102E+02 -0.60836903768E+03  0.60882730237E+03  0.00000000000E+00 0.  1.
         12    1    3    3    0    0  0.43866610499E+02 -0.23714695622E+02 -0.49013027944E+03  0.49266048871E+03  0.00000000000E+00 0. -1.
         13    1    5    5    0    0  0.12352413931E+03  0.21812156975E+02  0.53548596048E+02  0.13638707902E+03  0.00000000000E+00 0. -1.
        -14    1    5    5    0    0  0.43772446370E+01  0.21925820937E+02 -0.82405909419E+01  0.23828748046E+02  0.00000000000E+00 0.  1.
          5    1    4    4  501    0 -0.40330702605E+02 -0.66808799497E+02 -0.59011307495E+02  0.97927463334E+02  0.41800000000E+01 0.  1.
         -5    1    4    4    0  501 -0.11159661198E+03  0.33973588106E+02 -0.16411561974E+03  0.20139368793E+03  0.41800000000E+01 0.  1.
</event>
<event>
11    1  0.8551154E-009  0.1398743E+03  0.7561462E-02  0.1107699E+00
         22   -1    0    0    0    0  0.00000000000E+00  0.00000000000E+00  0.19913908454E+03  0.19913908454E+03  0.00000000000E+00 0. -1.
         22   -1    0    0    0    0 -0.00000000000E+00 -0.00000000000E+00 -0.91426331440E+03  0.91426331440E+03  0.00000000000E+00 0. -1.
        -24    2    1    2    0    0 -0.45080960100E+02  0.42434201669E+02 -0.40297569411E+03  0.41547974557E+03  0.80006590335E+02 0.  0.
         25    2    1    2    0    0  0.68431203716E+02 -0.14358335008E+02 -0.48353279783E+03  0.50432224474E+03  0.12509184042E+03 0.  0.
         24    2    1    2    0    0 -0.23350243616E+02 -0.28075866661E+02  0.17138426209E+03  0.19360040863E+03  0.82310781591E+02 0.  0.
        -11    1    5    5    0    0  0.29729252881E+02 -0.18382050404E+02  0.82823294391E+02  0.89896753822E+02  0.00000000000E+00 0.  1.
         12    1    5    5    0    0 -0.53079496497E+02 -0.96938162568E+01  0.88560967694E+02  0.10370365481E+03  0.00000000000E+00 0. -1.
         13    1    3    3    0    0 -0.23955325350E+02  0.38025197953E+01 -0.32521729229E+03  0.32612053596E+03  0.00000000000E+00 0. -1.
        -14    1    3    3    0    0 -0.21125634750E+02  0.38631681873E+02 -0.77758401818E+02  0.89359209605E+02  0.00000000000E+00 0.  1.
          5    1    4    4  501    0  0.52247049154E+02 -0.95219568644E+01 -0.59228214882E+02  0.79661004550E+02  0.41800000000E+01 0. -1.
         -5    1    4    4    0  501  0.16184154562E+02 -0.48363781436E+01 -0.42430458295E+03  0.42466124019E+03  0.41800000000E+01 0. -1.
</event>
<event>
11    1  0.8551154E-009  0.1924855E+03  0.7561462E-02  0.1059968E+00
         22   -1    0    0    0    0  0.00000000000E+00  0.00000000000E+00  0.17238531453E+04  0.17238531453E+04  0.00000000000E+00 0.  1.
         22   -1    0    0    0    0 -0.00000000000E+00 -0.00000000000E+00 -0.19852489670E+03  0.19852489670E+03  0.00000000000E+00 0.  1.
        -24    2    1    2    0    0 -0.20077973320E+02  0.14628314288E+03 -0.85229984779E+02  0.19437925440E+03  0.93366275137E+02 0.  0.
         25    2    1    2    0    0  0.63931685934E+02 -0.13301607307E+03  0.10594685606E+03  0.22057550937E+03  0.12509309678E+03 0.  0.
         24    2    1    2    0    0 -0.43853712614E+02 -0.13267069804E+02  0.15046113774E+04  0.15074232783E+04  0.79814658659E+02 0.  0.
        -13    1    5    5    0    0 -0.90301628049E+01 -0.27439967088E+02  0.12196855700E+04  0.12200276167E+04  0.00000000000E+00 0.  1.
         14    1    5    5    0    0 -0.34823549809E+02  0.14172897284E+02  0.28492580733E+03  0.28739566162E+03  0.00000000000E+00 0. -1.
         11    1    3    3    0    0 -0.31236499492E+02  0.74908259319E+01 -0.31913882810E+02  0.45280539856E+02  0.00000000000E+00 0. -1.
        -12    1    3    3    0    0  0.11158526172E+02  0.13879231695E+03 -0.53316101969E+02  0.14909871454E+03  0.00000000000E+00 0.  1.
          5    1    4    4  501    0  0.99662329286E+02 -0.10036681896E+03  0.59970899840E+02  0.15368818905E+03  0.41800000000E+01 0. -1.
         -5    1    4    4    0  501 -0.35730643353E+02 -0.32649254117E+02  0.45975956221E+02  0.66887320317E+02  0.41800000000E+01 0. -1.
</event>
<event>
11    1  0.8551154E-009  0.1752866E+03  0.7561462E-02  0.1073521E+00
         22   -1    0    0    0    0  0.00000000000E+00  0.00000000000E+00  0.68582662832E+03  0.68582662832E+03  0.00000000000E+00 0. -1.
         22   -1    0    0    0    0 -0.00000000000E+00 -0.00000000000E+00 -0.18141391967E+03  0.18141391967E+03  0.00000000000E+00 0. -1.
        -24    2    1    2    0    0 -0.62952952337E+02 -0.10768803104E+03 -0.11444208946E+03  0.18739302720E+03  0.80370197012E+02 0.  0.
         25    2    1    2    0    0  0.49743844524E+02  0.96820211879E+02  0.23781157462E+03  0.28991460668E+03  0.12509009012E+03 0.  0.
         24    2    1    2    0    0  0.13209107812E+02  0.10867819162E+02  0.38104322349E+03  0.38993291410E+03  0.81000921648E+02 0.  0.
        -11    1    5    5    0    0  0.31768247274E+02 -0.25327142669E+02  0.15367846346E+03  0.15895834619E+03  0.00000000000E+00 0.  1.
         12    1    5    5    0    0 -0.18559139461E+02  0.36194961831E+02  0.22736476003E+03  0.23097456791E+03  0.00000000000E+00 0. -1.
         11    1    3    3    0    0 -0.47611599296E+02 -0.11109900444E+03 -0.12038186894E+03  0.17059205006E+03  0.00000000000E+00 0. -1.
        -12    1    3    3    0    0 -0.15341353041E+02  0.34109733969E+01  0.59397794828E+01  0.16800977142E+02  0.00000000000E+00 0.  1.
          5    1    4    4  501    0  0.82521697651E+02  0.85596398101E+02  0.22142259767E+03  0.25136032525E+03  0.41800000000E+01 0. -1.
         -5    1    4    4    0  501 -0.32777853126E+02  0.11223813778E+02  0.16388976955E+02  0.38554281434E+02  0.41800000000E+01 0. -1.
</event>
<event>
11    1  0.8551154E-009  0.1367452E+03  0.7561462E-02  0.1111248E+00
         22   -1    0    0    0    0  0.00000000000E+00  0.00000000000E+00  0.27023399174E+04  0.27023399174E+04  0.00000000000E+00 0.  1.
         22   -1    0    0    0    0 -0.00000000000E+00 -0.00000000000E+00 -0.13385102910E+02  0.13385102910E+02  0.00000000000E+00 0.  1.
        -24    2    1    2    0    0  0.13665108802E+02  0.29570389083E+01  0.20178234813E+03  0.21752527550E+03  0.80035305870E+02 0.  0.
         25    2    1    2    0    0 -0.58049141245E+02  0.21803476184E+02  0.14918842035E+04  0.14984028271E+04  0.12508981299E+03 0.  0.
         24    2    1    2    0    0  0.44384032442E+02 -0.24760515093E+02  0.99528826292E+03  0.99979691775E+03  0.80075745306E+02 0.  0.
        -11    1    5    5    0    0  0.26137650900E+02  0.76460046394E+01  0.82700053731E+03  0.82744880621E+03  0.00000000000E+00 0.  1.
         12    1    5    5    0    0  0.18246381542E+02 -0.32406519732E+02  0.16828772561E+03  0.17234811154E+03  0.00000000000E+00 0. -1.
         11    1    3    3    0    0  0.27402733709E+02 -0.23307898681E+02  0.17118885392E+03  0.17492796135E+03  0.00000000000E+00 0. -1.
        -12    1    3    3    0    0 -0.13737624907E+02  0.26264937589E+02  0.30593494214E+02  0.42597314151E+02  0.00000000000E+00 0.  1.
          5    1    4    4  501    0 -0.90897589786E+02 -0.10936032041E+02  0.88417529676E+03  0.88891247962E+03  0.41800000000E+01 0. -1.
         -5    1    4    4    0  501  0.32848448541E+02  0.32739508225E+02  0.60770890672E+03  0.60949034748E+03  0.41800000000E+01 0. -1.
</event>
<event>
11    1  0.8551154E-009  0.1538157E+03  0.7561462E-02  0.1093042E+00
         22   -1    0    0    0    0  0.00000000000E+00  0.00000000000E+00  0.36133677540E+03  0.36133677540E+03  0.00000000000E+00 0.  1.
         22   -1    0    0    0    0 -0.00000000000E+00 -0.00000000000E+00 -0.23622876239E+04  0.23622876239E+04  0.00000000000E+00 0. -1.
         24    2    1    2    0    0  0.30184049624E+02 -0.34877286368E+01 -0.19873439018E+04  0.19889553772E+04  0.74057189176E+02 0.  0.
         25    2    1    2    0    0 -0.14927789393E+02  0.91741248754E+02 -0.34544247929E+03  0.37896758854E+03  0.12508649427E+03 0.  0.
        -24    2    1    2    0    0 -0.15256260232E+02 -0.88253520118E+02  0.33183553261E+03  0.35570143356E+03  0.91581940618E+02 0.  0.
        -11    1    3    3    0    0  0.52382113990E+02  0.43601487072E+01 -0.10489528162E+04  0.10502689690E+04  0.00000000000E+00 0.  1.
         12    1    3    3    0    0 -0.22198064366E+02 -0.78478773441E+01 -0.93839108563E+03  0.93868640814E+03  0.00000000000E+00 0. -1.
         11    1    5    5    0    0  0.50923312469E+01 -0.72301130825E+02  0.10612174282E+03  0.12851151565E+03  0.00000000000E+00 0. -1.
        -12    1    5    5    0    0 -0.20348591479E+02 -0.15952389292E+02  0.22571378979E+03  0.22718991791E+03  0.00000000000E+00 0.  1.
          5    1    4    4  501    0 -0.47010010268E+02  0.67803239037E+01 -0.46864496303E+02  0.66855570235E+02  0.41800000000E+01 0.  1.
         -5    1    4    4    0  501  0.32082220875E+02  0.84960924851E+02 -0.29857798299E+03  0.31211201831E+03  0.41800000000E+01 0.  1.
</event>
<event>
11    1  0.8551154E-009  0.1422924E+03  0.7561462E-02  0.1105025E+00
         22   -1    0    0    0    0  0.00000000000E+00  0.00000000000E+00  0.23808044536E+03  0.23808044536E+03  0.00000000000E+00 0. -1.
         22   -1    0    0    0    0 -0.00000000000E+00 -0.00000000000E+00 -0.39932026913E+03  0.39932026913E+03  0.00000000000E+00 0.  1.
        -24    2    1    2    0    0 -0.12872605259E+02 -0.54009480692E+02 -0.17602785443E+03  0.20122550486E+03  0.80144683544E+02 0.  0.
         25    2    1    2    0    0  0.47440814285E+02  0.89719547317E+02 -0.16660334165E+03  0.23174327891E+03  0.12509214940E+03 0.  0.
         24    2    1    2    0    0 -0.34568209026E+02 -0.35710066625E+02  0.18139137230E+03  0.20443193073E+03  0.80121248253E+02 0.  0.
        -11    1    5    5    0    0 -0.38391174241E+02 -0.57053256904E+02  0.10914811187E+03  0.12900490962E+03  0.00000000000E+00 0.  1.
         12    1    5    5    0    0  0.38229652150E+01  0.21343190279E+02  0.72243260431E+02  0.75427021100E+02  0.00000000000E+00 0. -1.
         13    1    3    3    0    0  0.32207875176E+02 -0.12891683431E+02 -0.83167085494E+02  0.90112745128E+02  0.00000000000E+00 0. -1.
        -14    1    3    3    0    0 -0.45080480435E+02 -0.41117797261E+02 -0.92860768933E+02  0.11111275973E+03  0.00000000000E+00 0.  1.
          5    1    4    4  501    0 -0.16256233854E+02  0.95221561802E+02 -0.92939019470E+02  0.13411392437E+03  0.41800000000E+01 0. -1.
         -5    1    4    4    0  501  0.63697048140E+02 -0.55020144854E+01 -0.73664322176E+02  0.97629354534E+02  0.41800000000E+01 0. -1.
</event>
<event>
11    1  0.8551154E-009  0.2813595E+03  0.7561462E-02  0.1008404E+00
         22   -1    0    0    0    0  0.00000000000E+00  0.00000000000E+00  0.12597714991E+04  0.12597714991E+04  0.00000000000E+00 0.  1.
         22   -1    0    0    0    0 -0.00000000000E+00 -0.00000000000E+00 -0.22250025921E+04  0.22250025921E+04  0.00000000000E+00 0.  1.
         24    2    1    2    0    0 -0.33306994344E+02 -0.51684010759E+02 -0.16400951871E+04  0.16431817954E+04  0.79709455294E+02 0.  0.
         25    2    1    2    0    0 -0.21742486562E+03  0.82903998917E+02 -0.53852104459E+03  0.59983251474E+03  0.12508990785E+03 0.  0.
        -24    2    1    2    0    0  0.25073185997E+03 -0.31219988158E+02  0.12133851387E+04  0.12417597811E+04  0.76306656184E+02 0.  0.
        -13    1    3    3    0    0 -0.33025587440E+02 -0.72447940238E+02 -0.12482235895E+04  0.12507603779E+04  0.00000000000E+00 0.  1.
         14    1    3    3    0    0 -0.28140690356E+00  0.20763929479E+02 -0.39187159753E+03  0.39242141749E+03  0.00000000000E+00 0. -1.
         11    1    5    5    0    0  0.66533786964E+02  0.16925308032E+02  0.22640973331E+03  0.23658947186E+03  0.00000000000E+00 0. -1.
        -12    1    5    5    0    0  0.18419807300E+03 -0.48145296190E+02  0.98697540542E+03  0.10051703092E+04  0.00000000000E+00 0.  1.
          5    1    4    4  501    0 -0.98808089153E+02  0.35959098092E+01 -0.34780751613E+03  0.36161237496E+03  0.41800000000E+01 0.  1.
         -5    1    4    4    0  501 -0.11861677647E+03  0.79308089107E+02 -0.19071352846E+03  0.23822013977E+03  0.41800000000E+01 0.  1.
</event>
<event>
11    1  0.8551154E-009  0.1565992E+03  0.7561462E-02  0.1090320E+00
         22   -1    0    0    0    0  0.00000000000E+00  0.00000000000E+00  0.55565539850E+03  0.55565539850E+03  0.00000000000E+00 0. -1.
         22   -1    0    0    0    0 -0.00000000000E+00 -0.00000000000E+00 -0.38027267691E+03  0.38027267691E+03  0.00000000000E+00 0.  1.
         24    2    1    2    0    0 -0.85461607551E+02 -0.36002208872E+02 -0.32148593107E+03  0.34391809558E+03  0.79539972236E+02 0.  0.
         25    2    1    2    0    0  0.89041191768E+02  0.10301921431E+03  0.17943813702E+03  0.25765604239E+03  0.12508916346E+03 0.  0.
        -24    2    1    2    0    0 -0.35795842176E+01 -0.67017005439E+02  0.31743051563E+03  0.33435393744E+03  0.80785709028E+02 0.  0.
        -13    1    3    3    0    0 -0.70037226890E+02  0.12468636320E+02 -0.19630937091E+03  0.20880145869E+03  0.00000000000E+00 0.  1.
         14    1    3    3    0    0 -0.15424380661E+02 -0.48470845193E+02 -0.12517656016E+03  0.13511663689E+03  0.00000000000E+00 0. -1.
         13    1    5    5    0    0  0.25376367333E+02 -0.64801340676E+02  0.26924712251E+03  0.27809564317E+03  0.00000000000E+00 0. -1.
        -14    1    5    5    0    0 -0.28955951551E+02 -0.22156647626E+01  0.48183393129E+02  0.56258294268E+02  0.00000000000E+00 0.  1.
          5    1    4    4  501    0  0.70701813683E+02  0.60093271543E+02  0.24894036439E+02  0.96162015334E+02  0.41800000000E+01 0.  1.
         -5    1    4    4    0  501  0.18339378085E+02  0.42925942769E+02  0.15454410058E+03  0.16149402706E+03  0.41800000000E+01 0.  1.
</event>
<event>
11    1  0.8551154E-009  0.1493071E+03  0.7561462E-02  0.1097589E+00
         22   -1    0    0    0    0  0.00000000000E+00  0.00000000000E+00  0.21060729760E+03  0.21060729760E+03  0.00000000000E+00 0.  1.
         22   -1    0    0    0    0 -0.00000000000E+00 -0.00000000000E+00 -0.66700946332E+03  0.66700946332E+03  0.00000000000E+00 0.  1.
        -24    2    1    2    0    0  0.53207858231E+02 -0.19943916150E+02 -0.48438406548E+03  0.49398601237E+03  0.78520198412E+02 0.  0.
         25    2    1    2    0    0 -0.89268363539E+02 -0.52161349139E+02 -0.11650598792E+03  0.19977586879E+03  0.12508839058E+03 0.  0.
         24    2    1    2    0    0  0.36060505308E+02  0.72105265289E+02  0.14448788768E+03  0.18385487975E+03  0.80164442219E+02 0.  0.
        -11    1    5    5    0    0  0.59763252839E+02  0.38530596806E+02  0.10535351341E+03  0.12710474447E+03  0.00000000000E+00 0.  1.
         12    1    5    5    0    0 -0.23702747531E+02  0.33574668483E+02  0.39134374270E+02  0.56750135276E+02  0.00000000000E+00 0. -1.
         13    1    3    3    0    0 -0.18664250580E+02 -0.12465627989E+02 -0.75481093325E+02  0.78747327450E+02  0.00000000000E+00 0. -1.
        -14    1    3    3    0    0  0.71872108811E+02 -0.74782881619E+01 -0.40890297216E+03  0.41523868492E+03  0.00000000000E+00 0.  1.
          5    1    4    4  501    0 -0.56215035502E+02 -0.16287114350E+02 -0.13518900958E+03  0.14737347462E+03  0.41800000000E+01 0. -1.
         -5    1    4    4    0  501 -0.33053328037E+02 -0.35874234789E+02  0.18683021664E+02  0.52402394168E+02  0.41800000000E+01 0. -1.
</event>
<event>
11    1  0.8551154E-009  0.1651445E+03  0.7561462E-02  0.1082336E+00
         22   -1    0    0    0    0  0.00000000000E+00  0.00000000000E+00  0.21217224231E+03  0.21217224231E+03  0.00000000000E+00 0.  1.
         22   -1    0    0    0    0 -0.00000000000E+00 -0.00000000000E+00 -0.34684771220E+04  0.34684771220E+04  0.00000000000E+00 0. -1.
         24    2    1    2    0    0  0.70404367437E+02 -0.83292488823E+02 -0.33938200824E+04  0.33972414986E+04  0.10649241284E+03 0.  0.
         25    2    1    2    0    0 -0.43724306373E+02  0.17989130665E+02  0.41525279580E+02  0.14002522807E+03  0.12508913567E+03 0.  0.
        -24    2    1    2    0    0 -0.26680061064E+02  0.65303358158E+02  0.95989923117E+02  0.14338263772E+03  0.79800759491E+02 0.  0.
        -11    1    3    3    0    0  0.28611500141E+02 -0.10997988484E+02 -0.23120496783E+04  0.23122528600E+04  0.00000000000E+00 0.  1.
         12    1    3    3    0    0  0.41792867296E+02 -0.72294500339E+02 -0.10817704041E+04  0.10849886385E+04  0.00000000000E+00 0. -1.
         11    1    5    5    0    0 -0.47528374654E+02  0.15948103610E+02  0.62804980399E+02  0.80360151623E+02  0.00000000000E+00 0. -1.
        -12    1    5    5    0    0  0.20848313590E+02  0.49355254548E+02  0.33184942718E+02  0.63022486100E+02  0.00000000000E+00 0.  1.
          5    1    4    4  501    0  0.29013749732E+02  0.46006319200E+02  0.82592152995E+01  0.55173056080E+02  0.41800000000E+01 0. -1.
         -5    1    4    4    0  501 -0.72738056105E+02 -0.28017188535E+02  0.33266064280E+02  0.84852171994E+02  0.41800000000E+01 0. -1.
</event>
<event>
11    1  0.8551154E-009  0.2392447E+03  0.7561462E-02  0.1029790E+00
         22   -1    0    0    0    0  0.00000000000E+00  0.00000000000E+00  0.11884039922E+04  0.11884039922E+04  0.00000000000E+00 0. -1.
         22   -1    0    0    0    0 -0.00000000000E+00 -0.00000000000E+00 -0.18209668854E+03  0.18209668854E+03  0.00000000000E+00 0. -1.
         24    2    1    2    0    0  0.81467545633E+02 -0.70701757680E+02 -0.43453690689E+02  0.14032872466E+03  0.78538068482E+02 0.  0.
         25    2    1    2    0    0 -0.97530103512E+02  0.26272047666E+03  0.22681530088E+03  0.38161086662E+03  0.12508997905E+03 0.  0.
        -24    2    1    2    0    0  0.16062557880E+02 -0.19201871898E+03  0.82294569343E+03  0.84856108942E+03  0.75412956025E+02 0.  0.
        -11    1    3    3    0    0  0.11296608798E+02 -0.33559925005E+02  0.18193673591E+02  0.39810698253E+02  0.00000000000E+00 0.  1.
         12    1    3    3    0    0  0.70170936835E+02 -0.37141832674E+02 -0.61647364280E+02  0.10051802641E+03  0.00000000000E+00 0. -1.
         13    1    5    5    0    0  0.43294493924E+02 -0.13609455358E+03  0.51741413141E+03  0.53676207402E+03  0.00000000000E+00 0. -1.
        -14    1    5    5    0    0 -0.27231936045E+02 -0.55924165402E+02  0.30553156202E+03  0.31179901541E+03  0.00000000000E+00 0.  1.
          5    1    4    4  501    0 -0.10178529034E+03  0.22974589503E+03  0.13806537942E+03  0.28674543241E+03  0.41800000000E+01 0. -1.
         -5    1    4    4    0  501  0.42551868288E+01  0.32974581632E+02  0.88749921459E+02  0.94865434210E+02  0.41800000000E+01 0. -1.
</event>
<event>
11    1  0.8551154E-009  0.1903483E+03  0.7561462E-02  0.1061567E+00
         22   -1    0    0    0    0  0.00000000000E+00  0.00000000000E+00  0.15983990170E+04  0.15983990170E+04  0.00000000000E+00 0. -1.
         22   -1    0    0    0    0 -0.00000000000E+00 -0.00000000000E+00 -0.18383150756E+04  0.18383150756E+04  0.00000000000E+00 0.  1.
         24    2    1    2    0    0 -0.46808130434E+02 -0.69229997813E+01 -0.17857237619E+04  0.17881839577E+04  0.80954205811E+02 0.  0.
         25    2    1    2    0    0  0.74771741447E+02 -0.13350532430E+03  0.16377083102E+03  0.25667279941E+03  0.12508219669E+03 0.  0.
        -24    2    1    2    0    0 -0.27963611013E+02  0.14042832409E+03  0.13820368724E+04  0.13918573356E+04  0.82090487983E+02 0.  0.
        -11    1    3    3    0    0 -0.56729624457E+02  0.15217168620E+02 -0.15703411575E+04  0.15714392013E+04  0.00000000000E+00 0.  1.
         12    1    3    3    0    0  0.99214940226E+01 -0.22140168401E+02 -0.21538260444E+03  0.21674475633E+03  0.00000000000E+00 0. -1.
         13    1    5    5    0    0 -0.51022916251E+02  0.12763834807E+03  0.12151691276E+04  0.12229190057E+04  0.00000000000E+00 0. -1.
        -14    1    5    5    0    0  0.23059305238E+02  0.12789976020E+02  0.16686774478E+03  0.16893832985E+03  0.00000000000E+00 0.  1.
          5    1    4    4  501    0  0.63009789544E+02  0.36100746273E+00  0.54751780463E+02  0.83579864612E+02  0.41800000000E+01 0.  1.
         -5    1    4    4    0  501  0.11761951903E+02 -0.13386633177E+03  0.10901905055E+03  0.17309293480E+03  0.41800000000E+01 0.  1.
</event>
<event>
11    1  0.8551154E-009  0.3725414E+03  0.7561462E-02  0.9734441E-01
         22   -1    0    0    0    0  0.00000000000E+00  0.00000000000E+00  0.37445673369E+03  0.37445673369E+03  0.00000000000E+00 0. -1.
         22   -1    0    0    0    0 -0.00000000000E+00 -0.00000000000E+00 -0.11869219719E+04  0.11869219719E+04  0.00000000000E+00 0.  1.
        -24    2    1    2    0    0  0.13860483530E+03  0.31530567794E+03 -0.86050775545E+03  0.93035983131E+03  0.80416712215E+02 0.  0.
         25    2    1    2    0    0 -0.97950424774E+02 -0.36870625169E+03 -0.13191816909E+03  0.42259796583E+03  0.12509217258E+03 0.  0.
         24    2    1    2    0    0 -0.40654410524E+02  0.53400573745E+02  0.17996068632E+03  0.20842090848E+03  0.80926040934E+02 0.  0.
        -13    1    5    5    0    0  0.87578423566E+01 -0.12104224297E+02  0.60365495067E+01  0.16113720195E+02  0.00000000000E+00 0.  1.
         14    1    5    5    0    0 -0.49412252881E+02  0.65504798042E+02  0.17392413681E+03  0.19230718829E+03  0.00000000000E+00 0. -1.
         13    1    3    3    0    0  0.36155143239E+02  0.38611175493E+02 -0.20129604722E+03  0.20813004560E+03  0.00000000000E+00 0. -1.
        -14    1    3    3    0    0  0.10244969206E+03  0.27669450245E+03 -0.65921170823E+03  0.72222978570E+03  0.00000000000E+00 0.  1.
          5    1    4    4  501    0 -0.19649605385E+02  0.40267811557E+01 -0.88422265398E+01  0.22315450442E+02  0.41800000000E+01 0.  1.
         -5    1    4    4    0  501 -0.78300819389E+02 -0.37273303284E+03 -0.12307594255E+03  0.40028251539E+03  0.41800000000E+01 0.  1.
</event>
<event>
11    1  0.8551154E-009  0.1361183E+03  0.7561462E-02  0.1111972E+00
         22   -1    0    0    0    0  0.00000000000E+00  0.00000000000E+00  0.13604402596E+04  0.13604402596E+04  0.00000000000E+00 0.  1.
         22   -1    0    0    0    0 -0.00000000000E+00 -0.00000000000E+00 -0.15265013841E+04  0.15265013841E+04  0.00000000000E+00 0.  1.
         24    2    1    2    0    0 -0.31831100278E+02  0.42155886416E+02 -0.13987812361E+04  0.14020844132E+04  0.80382943560E+02 0.  0.
         25    2    1    2    0    0  0.58165907213E+02 -0.51154032594E+02 -0.81300992315E+02  0.16809939652E+03  0.12509015927E+03 0.  0.
        -24    2    1    2    0    0 -0.26334806935E+02  0.89981461776E+01  0.13140211039E+04  0.13167578340E+04  0.80157614211E+02 0.  0.
        -11    1    3    3    0    0 -0.41174320631E+02  0.30694978842E+02 -0.13530021020E+04  0.13539764379E+04  0.00000000000E+00 0.  1.
         12    1    3    3    0    0  0.93432203524E+01  0.11460907575E+02 -0.45779134109E+02  0.48107975313E+02  0.00000000000E+00 0. -1.
         13    1    5    5    0    0 -0.43208554658E+01  0.43571145860E+02  0.65014224611E+03  0.65161495894E+03  0.00000000000E+00 0. -1.
        -14    1    5    5    0    0 -0.22013951469E+02 -0.34572999683E+02  0.66387885779E+03  0.66514287502E+03  0.00000000000E+00 0.  1.
          5    1    4    4  501    0  0.11756907714E+01 -0.67285662967E+02 -0.85132717268E+02  0.10859923867E+03  0.41800000000E+01 0. -1.
         -5    1    4    4    0  501  0.56990216442E+02  0.16131630373E+02  0.38317249530E+01  0.59500157854E+02  0.41800000000E+01 0. -1.
</event>
<event>
11    1  0.8551154E-009  0.2220053E+03  0.7561462E-02  0.1039968E+00
         22   -1    0    0    0    0  0.00000000000E+00  0.00000000000E+00  0.20631989552E+04  0.20631989552E+04  0.00000000000E+00 0.  1.
         22   -1    0    0    0    0 -0.00000000000E+00 -0.00000000000E+00 -0.57490908891E+03  0.57490908891E+03  0.00000000000E+00 0.  1.
        -24    2    1    2    0    0  0.21345555087E+03 -0.27023936711E+02 -0.41182739616E+03  0.47161564506E+03  0.80783334231E+02 0.  0.
         25    2    1    2    0    0 -0.12187119805E+03  0.52639614936E+01 -0.73115957143E+02  0.18940179073E+03  0.12508715736E+03 0.  0.
         24    2    1    2    0    0 -0.91584352817E+02  0.21759975217E+02  0.19732332196E+04  0.19770906083E+04  0.79854520082E+02 0.  0.
        -13    1    5    5    0    0 -0.57055994227E+02 -0.20663883488E+02  0.13822609060E+04  0.13835922791E+04  0.00000000000E+00 0.  1.
         14    1    5    5    0    0 -0.34528358590E+02  0.42423858705E+02  0.59097231356E+03  0.59349832917E+03  0.00000000000E+00 0. -1.
         13    1    3    3    0    0  0.24582197352E+02 -0.15783379094E+02 -0.12234227778E+03  0.12578168553E+03  0.00000000000E+00 0. -1.
        -14    1    3    3    0    0  0.18887335352E+03 -0.11240557617E+02 -0.28948511838E+03  0.34583395954E+03  0.00000000000E+00 0.  1.
          5    1    4    4  501    0 -0.61171424958E+02 -0.47346801280E+02 -0.76529729803E+02  0.10889414478E+03  0.41800000000E+01 0.  1.
         -5    1    4    4    0  501 -0.60699773093E+02  0.52610762773E+02  0.34137726604E+01  0.80507645953E+02  0.41800000000E+01 0.  1.
</event>
<event>
11    1  0.1225827E-008  0.1530803E+03  0.7561462E-02  0.1093772E+00
         22   -1    0    0    0    0  0.00000000000E+00  0.00000000000E+00  0.34991344731E+03  0.34991344731E+03  0.00000000000E+00 0.  1.
         22   -1    0    0    0    0 -0.00000000000E+00 -0.00000000000E+00 -0.12140137274E+04  0.12140137274E+04  0.00000000000E+00 0. -1.
        -24    2    1    2    0    0 -0.79398995955E+02  0.44835187730E+01 -0.79816823184E+03  0.80599688200E+03  0.78956601896E+02 0.  0.
         25    2    1    2    0    0  0.16238202057E+03 -0.27591746062E+02 -0.37444914028E+03  0.42778387499E+03  0.12513057178E+03 0.  0.
         24    2    1    2    0    0 -0.82983024614E+02  0.23108227289E+02  0.30851709201E+03  0.33014641773E+03  0.79960543606E+02 0.  0.
        -13    1    5    5    0    0 -0.97419710892E+02  0.24017572005E+02  0.24019118207E+03  0.26030606559E+03  0.00000000000E+00 0.  1.
         14    1    5    5    0    0  0.14436686279E+02 -0.90934471622E+00  0.68325909937E+02  0.69840352142E+02  0.00000000000E+00 0. -1.
         13    1    3    3    0    0 -0.66325859151E+02  0.37715359510E+02 -0.53184716507E+03  0.53729226211E+03  0.00000000000E+00 0. -1.
        -14    1    3    3    0    0 -0.13073136803E+02 -0.33231840737E+02 -0.26632106677E+03  0.26870461989E+03  0.00000000000E+00 0.  1.
          5    1    4    4  501    0  0.13600672167E+03  0.32274247722E+02 -0.23038860649E+03  0.26951036679E+03  0.41800000000E+01 0.  1.
         -5    1    4    4    0  501  0.26375298893E+02 -0.59865993784E+02 -0.14406053378E+03  0.15827350820E+03  0.41800000000E+01 0.  1.
</event>
<event>
11    1  0.8551154E-009  0.1712457E+03  0.7561462E-02  0.1076953E+00
         22   -1    0    0    0    0  0.00000000000E+00  0.00000000000E+00  0.97615732791E+03  0.97615732791E+03  0.00000000000E+00 0.  1.
         22   -1    0    0    0    0 -0.00000000000E+00 -0.00000000000E+00 -0.21923342465E+03  0.21923342465E+03  0.00000000000E+00 0. -1.
        -24    2    1    2    0    0  0.41241820845E+02  0.42117809997E+02 -0.15437733973E+03  0.18368743458E+03  0.80211675563E+02 0.  0.
         25    2    1    2    0    0 -0.13035949488E+03  0.32318935473E+02  0.14846721963E+03  0.23606927685E+03  0.12509227264E+03 0.  0.
         24    2    1    2    0    0  0.89117674031E+02 -0.74436745470E+02  0.76283402336E+03  0.77563404112E+03  0.78801203333E+02 0.  0.
        -13    1    5    5    0    0  0.74188583414E+02 -0.54140818311E+02  0.72079695740E+03  0.72662468160E+03  0.00000000000E+00 0.  1.
         14    1    5    5    0    0  0.14929090617E+02 -0.20295927159E+02  0.42037065969E+02  0.49009359526E+02  0.00000000000E+00 0. -1.
         11    1    3    3    0    0  0.32736939635E+02  0.26514115143E+02 -0.15967886748E+03  0.16514250282E+03  0.00000000000E+00 0. -1.
        -12    1    3    3    0    0  0.85048812099E+01  0.15603694854E+02  0.53015277530E+01  0.18544931760E+02  0.00000000000E+00 0.  1.
          5    1    4    4  501    0 -0.69132987966E+02  0.72158127923E+02  0.12314413334E+03  0.15864461991E+03  0.41800000000E+01 0.  1.
         -5    1    4    4    0  501 -0.61226506910E+02 -0.39839192450E+02  0.25323086290E+02  0.77424656943E+02  0.41800000000E+01 0.  1.
</event>
<event>
11    1  0.8551154E-009  0.1705572E+03  0.7561462E-02  0.1077548E+00
         22   -1    0    0    0    0  0.00000000000E+00  0.00000000000E+00  0.22248908558E+03  0.22248908558E+03  0.00000000000E+00 0. -1.
         22   -1    0    0    0    0 -0.00000000000E+00 -0.00000000000E+00 -0.38472347398E+03  0.38472347398E+03  0.00000000000E+00 0. -1.
         24    2    1    2    0    0 -0.71378816158E+02 -0.11561602075E+03 -0.26215732075E+03  0.30617377477E+03  0.80956283781E+02 0.  0.
         25    2    1    2    0    0  0.32015225640E+02  0.51782760320E+02 -0.18807420470E+02  0.14038412184E+03  0.12509018212E+03 0.  0.
        -24    2    1    2    0    0  0.39363590518E+02  0.63833260427E+02  0.11873035282E+03  0.16065466296E+03  0.78031062104E+02 0.  0.
        -11    1    3    3    0    0 -0.17004639261E+02 -0.79863526641E+02 -0.20066103934E+03  0.21663839308E+03  0.00000000000E+00 0.  1.
         12    1    3    3    0    0 -0.54374176896E+02 -0.35752494105E+02 -0.61496281404E+02  0.89535381690E+02  0.00000000000E+00 0. -1.
         11    1    5    5    0    0 -0.22756860394E+02  0.29400835605E+02  0.39240912200E+02  0.54056757390E+02  0.00000000000E+00 0. -1.
        -12    1    5    5    0    0  0.62120450911E+02  0.34432424822E+02  0.79489440621E+02  0.10659790556E+03  0.00000000000E+00 0.  1.
          5    1    4    4  501    0 -0.77538109776E+01 -0.38894177313E+01 -0.59764162738E+02  0.60534921349E+02  0.41800000000E+01 0.  1.
         -5    1    4    4    0  501  0.39769036618E+02  0.55672178051E+02  0.40956742267E+02  0.79849200494E+02  0.41800000000E+01 0.  1.
</event>
<event>
11    1  0.8551154E-009  0.1843540E+03  0.7561462E-02  0.1066174E+00
         22   -1    0    0    0    0  0.00000000000E+00  0.00000000000E+00  0.38449645316E+03  0.38449645316E+03  0.00000000000E+00 0.  1.
         22   -1    0    0    0    0 -0.00000000000E+00 -0.00000000000E+00 -0.49646817382E+03  0.49646817382E+03  0.00000000000E+00 0. -1.
        -24    2    1    2    0    0 -0.10080365314E+03  0.93527590502E+02 -0.42105055417E+03  0.45011481785E+03  0.80068679298E+02 0.  0.
         25    2    1    2    0    0  0.11014250399E+03 -0.49338803186E+02  0.91729797273E+02  0.19653286743E+03  0.12508046846E+03 0.  0.
         24    2    1    2    0    0 -0.93388508422E+01 -0.44188787316E+02  0.21734903624E+03  0.23431694170E+03  0.74993083363E+02 0.  0.
        -13    1    5    5    0    0 -0.26927767799E+02 -0.52613210947E+00  0.14844808211E+03  0.15087151678E+03  0.00000000000E+00 0.  1.
         14    1    5    5    0    0  0.17588916957E+02 -0.43662655207E+02  0.68900954132E+02  0.83445424918E+02  0.00000000000E+00 0. -1.
         11    1    3    3    0    0 -0.82558452287E+02  0.95946368000E+02 -0.40894426634E+03  0.42808529120E+03  0.00000000000E+00 0. -1.
        -12    1    3    3    0    0 -0.18245200858E+02 -0.24187774978E+01 -0.12106287836E+02  0.22029526642E+02  0.00000000000E+00 0.  1.
          5    1    4    4  501    0 -0.10330390277E+02  0.12044945577E+02 -0.16515089147E+02  0.23281285333E+02  0.41800000000E+01 0.  1.
         -5    1    4    4    0  501  0.12047289426E+03 -0.61383748762E+02  0.10824488642E+03  0.17325158210E+03  0.41800000000E+01 0.  1.
</event>
<event>
11    1  0.8551154E-009  0.1381827E+03  0.7561462E-02  0.1109605E+00
         22   -1    0    0    0    0  0.00000000000E+00  0.00000000000E+00  0.10671487065E+04  0.10671487065E+04  0.00000000000E+00 0.  1.
         22   -1    0    0    0    0 -0.00000000000E+00 -0.00000000000E+00 -0.85123519537E+02  0.85123519537E+02  0.00000000000E+00 0.  1.
         24    2    1    2    0    0  0.38798475818E+02 -0.11107671199E+02 -0.39712275764E+02  0.98173119955E+02  0.80200963523E+02 0.  0.
         25    2    1    2    0    0 -0.25913888218E+00  0.59457148419E+02  0.38240854499E+03  0.40671741586E+03  0.12509013325E+03 0.  0.
        -24    2    1    2    0    0 -0.38539336936E+02 -0.48349477221E+02  0.63932891773E+03  0.64738169021E+03  0.80861828635E+02 0.  0.
        -13    1    3    3    0    0  0.37783965558E+02 -0.58379405527E+01 -0.63317827912E+02  0.73965241396E+02  0.00000000000E+00 0.  1.
         14    1    3    3    0    0  0.10145102596E+01 -0.52697306459E+01  0.23605552148E+02  0.24207878559E+02  0.00000000000E+00 0. -1.
         13    1    5    5    0    0 -0.25262493587E+02  0.11265570390E+02  0.78378675809E+02  0.83116324991E+02  0.00000000000E+00 0. -1.
        -14    1    5    5    0    0 -0.13276843349E+02 -0.59615047611E+02  0.56095024192E+03  0.56426536522E+03  0.00000000000E+00 0.  1.
          5    1    4    4  501    0  0.37242693730E+02 -0.53955926749E+01  0.26286428208E+03  0.26557717117E+03  0.41800000000E+01 0. -1.
         -5    1    4    4    0  501 -0.37501832612E+02  0.64852741094E+02  0.11954426291E+03  0.14114024469E+03  0.41800000000E+01 0. -1.
</event>
<event>
11    1  0.8551154E-009  0.1823769E+03  0.7561462E-02  0.1067736E+00
         22   -1    0    0    0    0  0.00000000000E+00  0.00000000000E+00  0.33839827243E+03  0.33839827243E+03  0.00000000000E+00 0.  1.
         22   -1    0    0    0    0 -0.00000000000E+00 -0.00000000000E+00 -0.33185183414E+04  0.33185183414E+04  0.00000000000E+00 0.  1.
        -24    2    1    2    0    0  0.10967929539E+01 -0.13325386029E+03 -0.30815807921E+04  0.30855242861E+04  0.81007086493E+02 0.  0.
         25    2    1    2    0    0  0.11070090216E+00  0.12349186882E+03 -0.19469330306E+03  0.26230234967E+03  0.12508711551E+03 0.  0.
         24    2    1    2    0    0 -0.12074938560E+01  0.97619914694E+01  0.29615402616E+03  0.30908997803E+03  0.87935503572E+02 0.  0.
        -11    1    5    5    0    0  0.19226203931E+02 -0.18877062647E+02  0.24796695625E+03  0.24942654591E+03  0.00000000000E+00 0.  1.
         12    1    5    5    0    0 -0.20433697787E+02  0.28639054116E+02  0.48187069907E+02  0.59663432118E+02  0.00000000000E+00 0. -1.
         11    1    3    3    0    0 -0.64190684846E+01 -0.56508166018E+02 -0.58620138046E+03  0.58895367875E+03  0.00000000000E+00 0. -1.
        -12    1    3    3    0    0  0.75158614385E+01 -0.76745694276E+02 -0.24953794116E+04  0.24965706074E+04  0.00000000000E+00 0.  1.
          5    1    4    4  501    0  0.45373828306E+02  0.12452409138E+02 -0.95814196729E+02  0.10682546271E+03  0.41800000000E+01 0. -1.
         -5    1    4    4    0  501 -0.45263127404E+02  0.11103945969E+03 -0.98879106327E+02  0.15547688696E+03  0.41800000000E+01 0. -1.
</event>
<event>
11    1  0.8551154E-009  0.1503089E+03  0.7561462E-02  0.1096564E+00
         22   -1    0    0    0    0  0.00000000000E+00  0.00000000000E+00  0.26279961453E+03  0.26279961453E+03  0.00000000000E+00 0.  1.
         22   -1    0    0    0    0 -0.00000000000E+00 -0.00000000000E+00 -0.88198062020E+03  0.88198062020E+03  0.00000000000E+00 0. -1.
        -24    2    1    2    0    0 -0.72167061043E+02 -0.36554000061E+02 -0.36206814240E+03  0.38006619374E+03  0.82539034760E+02 0.  0.
         25    2    1    2    0    0  0.95140797483E+02 -0.12767595190E+02 -0.48912351112E+03  0.51390966275E+03  0.12508616832E+03 0.  0.
         24    2    1    2    0    0 -0.22973736440E+02  0.49321595251E+02  0.23201064785E+03  0.25080437824E+03  0.78188765863E+02 0.  0.
        -11    1    5    5    0    0 -0.15449434293E+02  0.32196346818E+02  0.22910885956E+03  0.23187530981E+03  0.00000000000E+00 0.  1.
         12    1    5    5    0    0 -0.75243021463E+01  0.17125248433E+02  0.29017882884E+01  0.18929068439E+02  0.00000000000E+00 0. -1.
         11    1    3    3    0    0 -0.55657759991E+02  0.45434888600E+01 -0.10229737244E+03  0.11654690878E+03  0.00000000000E+00 0. -1.
        -12    1    3    3    0    0 -0.16509301053E+02 -0.41097488921E+02 -0.25977076997E+03  0.26351928496E+03  0.00000000000E+00 0.  1.
          5    1    4    4  501    0  0.76433804086E+02 -0.60886408883E+02 -0.38989278600E+03  0.40197405161E+03  0.41800000000E+01 0. -1.
         -5    1    4    4    0  501  0.18706993398E+02  0.48118813693E+02 -0.99230725124E+02  0.11193561114E+03  0.41800000000E+01 0. -1.
</event>
<event>
11    1  0.8551154E-009  0.2531907E+03  0.7561462E-02  0.1022213E+00
         22   -1    0    0    0    0  0.00000000000E+00  0.00000000000E+00  0.22819874654E+03  0.22819874654E+03  0.00000000000E+00 0. -1.
         22   -1    0    0    0    0 -0.00000000000E+00 -0.00000000000E+00 -0.41370658044E+03  0.41370658044E+03  0.00000000000E+00 0. -1.
         24    2    1    2    0    0  0.20321019679E+03  0.82743766652E+02 -0.18334726006E+03  0.29659847414E+03  0.78825897368E+02 0.  0.
         25    2    1    2    0    0 -0.19544834781E+03 -0.10705533632E+03  0.12784606606E+02  0.25587902786E+03  0.12509887703E+03 0.  0.
        -24    2    1    2    0    0 -0.77618489751E+01  0.24311569669E+02 -0.14945180450E+02  0.89427824981E+02  0.84395964020E+02 0.  0.
        -13    1    3    3    0    0  0.10211555764E+03  0.32979128514E+01 -0.60328172985E+02  0.11865054486E+03  0.00000000000E+00 0.  1.
         14    1    3    3    0    0  0.10109463915E+03  0.79445853800E+02 -0.12301908707E+03  0.17794792928E+03  0.00000000000E+00 0. -1.
         11    1    5    5    0    0  0.23027520902E+02 -0.65291994959E+01  0.21837799220E+02  0.32400411104E+02  0.00000000000E+00 0. -1.
        -12    1    5    5    0    0 -0.30789369877E+02  0.30840769165E+02 -0.36782979670E+02  0.57027413877E+02  0.00000000000E+00 0.  1.
          5    1    4    4  501    0 -0.18271864754E+03 -0.49998258379E+02  0.35942335923E+02  0.19286071116E+03  0.41800000000E+01 0.  1.
         -5    1    4    4    0  501 -0.12729700276E+02 -0.57057077942E+02 -0.23157729317E+02  0.63018316698E+02  0.41800000000E+01 0.  1.
</event>
<event>
11    1  0.8551154E-009  0.1268310E+03  0.7561462E-02  0.1123225E+00
         22   -1    0    0    0    0  0.00000000000E+00  0.00000000000E+00  0.14242132597E+04  0.14242132597E+04  0.00000000000E+00 0. -1.
         22   -1    0    0    0    0 -0.00000000000E+00 -0.00000000000E+00 -0.86193924131E+02  0.86193924131E+02  0.00000000000E+00 0. -1.
         24    2    1    2    0    0 -0.74720892116E+01 -0.19494740414E+02 -0.47352065929E+02  0.96074157117E+02  0.80945342651E+02 0.  0.
         25    2    1    2    0    0 -0.26504195152E+00  0.23279863161E+02  0.29794101015E+03  0.32397281439E+03  0.12509003420E+03 0.  0.
        -24    2    1    2    0    0  0.77371311631E+01 -0.37851227463E+01  0.10874303914E+04  0.10903602124E+04  0.79412506872E+02 0.  0.
        -11    1    3    3    0    0  0.33952913538E+02 -0.20863103163E+02 -0.12056501830E+02  0.41634464662E+02  0.00000000000E+00 0.  1.
         12    1    3    3    0    0 -0.41425002750E+02  0.13683627484E+01 -0.35295564099E+02  0.54439692454E+02  0.00000000000E+00 0. -1.
         11    1    5    5    0    0  0.36566877222E+01  0.10314903007E+02  0.10513675297E+04  0.10514244867E+04  0.00000000000E+00 0. -1.
        -12    1    5    5    0    0  0.40804434409E+01 -0.14100025754E+02  0.36062861644E+02  0.38935725688E+02  0.00000000000E+00 0.  1.
          5    1    4    4  501    0  0.26460160079E+02 -0.26753527558E+02  0.25473002155E+02  0.45631541142E+02  0.41800000000E+01 0.  1.
         -5    1    4    4    0  501 -0.26725202030E+02  0.50033390719E+02  0.27246800800E+03  0.27834127324E+03  0.41800000000E+01 0.  1.
</event>
<event>
11    1  0.8551154E-009  0.1297687E+03  0.7561462E-02  0.1119554E+00
         22   -1    0    0    0    0  0.00000000000E+00  0.00000000000E+00  0.23471285088E+04  0.23471285088E+04  0.00000000000E+00 0.  1.
         22   -1    0    0    0    0 -0.00000000000E+00 -0.00000000000E+00 -0.33008021823E+02  0.33008021823E+02  0.00000000000E+00 0. -1.
         24    2    1    2    0    0 -0.26197544197E+00  0.13768616714E+02  0.58021473185E+02  0.10385457196E+03  0.85027274025E+02 0.  0.
         25    2    1    2    0    0  0.27514840133E+02 -0.33518892542E+02  0.47574500365E+03  0.49382256164E+03  0.12508729471E+03 0.  0.
        -24    2    1    2    0    0 -0.27252864691E+02  0.19750275828E+02  0.17803540102E+04  0.17824593971E+04  0.79801682998E+02 0.  0.
        -13    1    3    3    0    0  0.21799930707E+02 -0.29250417687E+02  0.34005736193E+02  0.49871976176E+02  0.00000000000E+00 0.  1.
         14    1    3    3    0    0 -0.22061906149E+02  0.43019034401E+02  0.24015736992E+02  0.53982595779E+02  0.00000000000E+00 0. -1.
         13    1    5    5    0    0  0.89867259776E+01 -0.26380976732E+02  0.53910886117E+03  0.53982875190E+03  0.00000000000E+00 0. -1.
        -14    1    5    5    0    0 -0.36239590669E+02  0.46131252560E+02  0.12412451490E+04  0.12426306452E+04  0.00000000000E+00 0.  1.
          5    1    4    4  501    0  0.36569333200E+02 -0.51148991111E+02  0.10453054529E+03  0.12205589999E+03  0.41800000000E+01 0.  1.
         -5    1    4    4    0  501 -0.90544930667E+01  0.17630098568E+02  0.37121445836E+03  0.37176666165E+03  0.41800000000E+01 0.  1.
</event>
<event>
11    1  0.8551154E-009  0.1336356E+03  0.7561462E-02  0.1114881E+00
         22   -1    0    0    0    0  0.00000000000E+00  0.00000000000E+00  0.16139533920E+04  0.16139533920E+04  0.00000000000E+00 0. -1.
         22   -1    0    0    0    0 -0.00000000000E+00 -0.00000000000E+00 -0.92327894505E+03  0.92327894505E+03  0.00000000000E+00 0. -1.
         24    2    1    2    0    0  0.19012575226E+02  0.14479546958E+02 -0.84746497348E+03  0.85166378782E+03  0.81013522968E+02 0.  0.
         25    2    1    2    0    0 -0.65056673335E+02 -0.21889824946E+02 -0.20166938617E+01  0.14269800359E+03  0.12508844068E+03 0.  0.
        -24    2    1    2    0    0  0.46044098109E+02  0.74102779875E+01  0.15401561143E+04  0.15428705456E+04  0.78700019535E+02 0.  0.
        -13    1    3    3    0    0  0.31199833141E+01  0.14708679858E+02 -0.25922486175E+02  0.29967563273E+02  0.00000000000E+00 0.  1.
         14    1    3    3    0    0  0.15892591912E+02 -0.22913289974E+00 -0.82154248731E+03  0.82169622454E+03  0.00000000000E+00 0. -1.
         13    1    5    5    0    0  0.17385058131E+01  0.10510912940E+02  0.11715329535E+04  0.11715813941E+04  0.00000000000E+00 0. -1.
        -14    1    5    5    0    0  0.44305592296E+02 -0.31006349523E+01  0.36862316073E+03  0.37128915156E+03  0.00000000000E+00 0.  1.
          5    1    4    4  501    0  0.24571239640E+02 -0.39372563002E+02  0.16491194659E+02  0.49430521301E+02  0.41800000000E+01 0.  1.
         -5    1    4    4    0  501 -0.89627912975E+02  0.17482738056E+02 -0.18507888521E+02  0.93267482284E+02  0.41800000000E+01 0.  1.
</event>
<event>
11    1  0.8551154E-009  0.1422949E+03  0.7561462E-02  0.1105022E+00
         22   -1    0    0    0    0  0.00000000000E+00  0.00000000000E+00  0.34335474386E+03  0.34335474386E+03  0.00000000000E+00 0.  1.
         22   -1    0    0    0    0 -0.00000000000E+00 -0.00000000000E+00 -0.43515540336E+03  0.43515540336E+03  0.00000000000E+00 0. -1.
         24    2    1    2    0    0 -0.57013064784E+02  0.35038687652E+02 -0.35957691660E+03  0.37421553880E+03  0.79142348552E+02 0.  0.
         25    2    1    2    0    0  0.66134318169E+02 -0.42964409252E+02  0.26889845758E+02  0.15029903482E+03  0.12508815915E+03 0.  0.
        -24    2    1    2    0    0 -0.91212533855E+01  0.79257216003E+01  0.24088641135E+03  0.25399557361E+03  0.79633371854E+02 0.  0.
        -13    1    3    3    0    0  0.22687033134E+01  0.34547850122E+02 -0.64126335092E+02  0.72875838349E+02  0.00000000000E+00 0.  1.
         14    1    3    3    0    0 -0.59281768097E+02  0.49083752988E+00 -0.29545058151E+03  0.30133970045E+03  0.00000000000E+00 0. -1.
         13    1    5    5    0    0  0.22060494482E+02 -0.23409456080E+02  0.63480297612E+02  0.71164712012E+02  0.00000000000E+00 0. -1.
        -14    1    5    5    0    0 -0.31181747868E+02  0.31335177680E+02  0.17740611374E+03  0.18283086160E+03  0.00000000000E+00 0.  1.
          5    1    4    4  501    0  0.67273579241E+02 -0.65811525119E+02 -0.21487068813E+02  0.96623277881E+02  0.41800000000E+01 0. -1.
         -5    1    4    4    0  501 -0.11392610718E+01  0.22847115867E+02  0.48376914571E+02  0.53675756936E+02  0.41800000000E+01 0. -1.
</event>
<event>
11    1  0.8551154E-009  0.1603910E+03  0.7561462E-02  0.1086710E+00
         22   -1    0    0    0    0  0.00000000000E+00  0.00000000000E+00  0.22909716561E+03  0.22909716561E+03  0.00000000000E+00 0.  1.
         22   -1    0    0    0    0 -0.00000000000E+00 -0.00000000000E+00 -0.22307319311E+04  0.22307319311E+04  0.00000000000E+00 0. -1.
        -24    2    1    2    0    0 -0.32781238906E+02  0.53685244627E+01 -0.20815347247E+04  0.20847581258E+04  0.11102343230E+03 0.  0.
         25    2    1    2    0    0  0.10343442338E+03 -0.70142158125E+02 -0.60539128686E+02  0.18689820484E+03  0.12508937038E+03 0.  0.
         24    2    1    2    0    0 -0.70653184473E+02  0.64773633663E+02  0.14043908790E+03  0.18817276601E+03  0.80612383453E+02 0.  0.
        -13    1    5    5    0    0 -0.81933824234E+02  0.28114374230E+02  0.91586014561E+02  0.12606176127E+03  0.00000000000E+00 0.  1.
         14    1    5    5    0    0  0.11280639761E+02  0.36659259433E+02  0.48853073337E+02  0.62111004742E+02  0.00000000000E+00 0. -1.
         11    1    3    3    0    0  0.19388759892E+02  0.45810052453E+02 -0.94425589218E+03  0.94556526736E+03  0.00000000000E+00 0. -1.
        -12    1    3    3    0    0 -0.52169998798E+02 -0.40441527990E+02 -0.11372788325E+04  0.11391928585E+04  0.00000000000E+00 0.  1.
          5    1    4    4  501    0  0.94790733945E+02  0.10286641548E+02 -0.26608234246E+02  0.99078598929E+02  0.41800000000E+01 0.  1.
         -5    1    4    4    0  501  0.86436894346E+01 -0.80428799673E+02 -0.33930894440E+02  0.87819605906E+02  0.41800000000E+01 0.  1.
</event>
<event>
11    1  0.8551154E-009  0.1860321E+03  0.7561462E-02  0.1064865E+00
         22   -1    0    0    0    0  0.00000000000E+00  0.00000000000E+00  0.18722777015E+03  0.18722777015E+03  0.00000000000E+00 0.  1.
         22   -1    0    0    0    0 -0.00000000000E+00 -0.00000000000E+00 -0.28054922096E+03  0.28054922096E+03  0.00000000000E+00 0.  1.
         24    2    1    2    0    0 -0.11066072778E+03 -0.10000694954E+03 -0.11718660507E+03  0.20548030009E+03  0.79008016602E+02 0.  0.
         25    2    1    2    0    0  0.74921394403E+02  0.88861257777E+02  0.46446268063E+00  0.17075679672E+03  0.12509248349E+03 0.  0.
        -24    2    1    2    0    0  0.35739333380E+02  0.11145691762E+02  0.23400691588E+02  0.91539894305E+02  0.80189983709E+02 0.  0.
        -13    1    3    3    0    0 -0.10945908357E+03 -0.63097086826E+02 -0.66523186472E+02  0.14278609064E+03  0.00000000000E+00 0.  1.
         14    1    3    3    0    0 -0.12016442121E+01 -0.36909862713E+02 -0.50663418599E+02  0.62694209449E+02  0.00000000000E+00 0. -1.
         13    1    5    5    0    0  0.46779609120E+02 -0.20822740581E+02  0.14602506380E+01  0.51225488642E+02  0.00000000000E+00 0. -1.
        -14    1    5    5    0    0 -0.11040275740E+02  0.31968432343E+02  0.21940440950E+02  0.40314405663E+02  0.00000000000E+00 0.  1.
          5    1    4    4  501    0  0.85599381845E+02  0.73435476274E+02  0.45580328988E+02  0.12171713987E+03  0.41800000000E+01 0.  1.
         -5    1    4    4    0  501 -0.10677987441E+02  0.15425781503E+02 -0.45115866308E+02  0.49039656845E+02  0.41800000000E+01 0.  1.
</event>
<event>
11    1  0.8551154E-009  0.1471624E+03  0.7561462E-02  0.1099814E+00
         22   -1    0    0    0    0  0.00000000000E+00  0.00000000000E+00  0.16367736227E+04  0.16367736227E+04  0.00000000000E+00 0. -1.
         22   -1    0    0    0    0 -0.00000000000E+00 -0.00000000000E+00 -0.12454478351E+04  0.12454478351E+04  0.00000000000E+00 0. -1.
         24    2    1    2    0    0  0.70830935060E+02  0.32617205903E+02 -0.12227067763E+04  0.12277972101E+04  0.79957645029E+02 0.  0.
         25    2    1    2    0    0 -0.14867187044E+02 -0.48364614672E+02  0.22902943707E+03  0.26582028018E+03  0.12508304884E+03 0.  0.
        -24    2    1    2    0    0 -0.55963748016E+02  0.15747408769E+02  0.13850031268E+04  0.13886039674E+04  0.81285885901E+02 0.  0.
        -13    1    3    3    0    0 -0.12224238000E+02  0.25535715576E+02 -0.29992661773E+03  0.30125982272E+03  0.00000000000E+00 0.  1.
         14    1    3    3    0    0  0.83055173060E+02  0.70814903276E+01 -0.92278015855E+03  0.92653738742E+03  0.00000000000E+00 0. -1.
         11    1    5    5    0    0 -0.18666146543E+02  0.34409625271E+02  0.10860991874E+04  0.10868044407E+04  0.00000000000E+00 0. -1.
        -12    1    5    5    0    0 -0.37297601472E+02 -0.18662216502E+02  0.29890393933E+03  0.30179952675E+03  0.00000000000E+00 0.  1.
          5    1    4    4  501    0 -0.25334091518E+02 -0.73894311092E+02  0.22425514733E+03  0.23750795546E+03  0.41800000000E+01 0. -1.
         -5    1    4    4    0  501  0.10466904473E+02  0.25529696420E+02  0.47742897462E+01  0.28312324721E+02  0.41800000000E+01 0. -1.
</event>
<event>
11    1  0.8551154E-009  0.1567661E+03  0.7561462E-02  0.1090159E+00
         22   -1    0    0    0    0  0.00000000000E+00  0.00000000000E+00  0.78066592661E+03  0.78066592661E+03  0.00000000000E+00 0. -1.
         22   -1    0    0    0    0 -0.00000000000E+00 -0.00000000000E+00 -0.32864527942E+03  0.32864527942E+03  0.00000000000E+00 0. -1.
         24    2    1    2    0    0  0.83606996040E+01  0.90146396790E+01 -0.23559234094E+03  0.24861940731E+03  0.78464600666E+02 0.  0.
         25    2    1    2    0    0 -0.70596678350E+02 -0.79042014275E+02  0.21043699047E+01  0.16396488809E+03  0.12509406516E+03 0.  0.
        -24    2    1    2    0    0  0.62235978746E+02  0.70027374596E+02  0.68550861822E+03  0.69672691063E+03  0.82031531131E+02 0.  0.
        -13    1    3    3    0    0 -0.29378989576E+02 -0.13033441999E+02 -0.64935035579E+02  0.72453809316E+02  0.00000000000E+00 0.  1.
         14    1    3    3    0    0  0.37739689180E+02  0.22048081678E+02 -0.17065730536E+03  0.17616559800E+03  0.00000000000E+00 0. -1.
         13    1    5    5    0    0  0.53542920503E+02  0.58199097252E+00  0.25438268245E+03  0.25995717374E+03  0.00000000000E+00 0. -1.
        -14    1    5    5    0    0  0.86930582434E+01  0.69445383623E+02  0.43112593577E+03  0.43676973689E+03  0.00000000000E+00 0.  1.
          5    1    4    4  501    0  0.11030337690E+02 -0.75186429698E+02 -0.20982180297E+02  0.78945499240E+02  0.41800000000E+01 0.  1.
         -5    1    4    4    0  501 -0.81627016040E+02 -0.38555845765E+01  0.23086550202E+02  0.85019388849E+02  0.41800000000E+01 0.  1.
</event>
<event>
11    1  0.8551154E-009  0.4220936E+03  0.7561462E-02  0.9586728E-01
         22   -1    0    0    0    0  0.00000000000E+00  0.00000000000E+00  0.12062296824E+04  0.12062296824E+04  0.00000000000E+00 0.  1.
         22   -1    0    0    0    0 -0.00000000000E+00 -0.00000000000E+00 -0.11040509175E+04  0.11040509175E+04  0.00000000000E+00 0.  1.
         24    2    1    2    0    0 -0.13375083393E+03  0.22024392636E+03 -0.80460302995E+03  0.84858273112E+03  0.79435150199E+02 0.  0.
         25    2    1    2    0    0 -0.31934673740E+02  0.53595105462E+02 -0.23483683836E+03  0.27328993076E+03  0.12508711719E+03 0.  0.
        -24    2    1    2    0    0  0.16568550767E+03 -0.27383903182E+03  0.11416186332E+04  0.11884079380E+04  0.81122257241E+02 0.  0.
        -11    1    3    3    0    0 -0.10895662316E+03  0.18849140507E+03 -0.74845168400E+03  0.77947448887E+03  0.00000000000E+00 0.  1.
         12    1    3    3    0    0 -0.24794210770E+02  0.31752521289E+02 -0.56151345948E+02  0.69108242256E+02  0.00000000000E+00 0. -1.
         11    1    5    5    0    0  0.14138092587E+03 -0.16311236868E+03  0.79058205014E+03  0.81952070689E+03  0.00000000000E+00 0. -1.
        -12    1    5    5    0    0  0.24304581798E+02 -0.11072666314E+03  0.35103658308E+03  0.36888723113E+03  0.00000000000E+00 0.  1.
          5    1    4    4  501    0  0.16370700167E+02 -0.15485791594E+02  0.86297780512E+00  0.22935271874E+02  0.41800000000E+01 0. -1.
         -5    1    4    4    0  501 -0.48305373907E+02  0.69080897055E+02 -0.23569981616E+03  0.25035465888E+03  0.41800000000E+01 0. -1.
</event>
<event>
11    1  0.8551154E-009  0.2089170E+03  0.7561462E-02  0.1048391E+00
         22   -1    0    0    0    0  0.00000000000E+00  0.00000000000E+00  0.13647528996E+03  0.13647528996E+03  0.00000000000E+00 0.  1.
         22   -1    0    0    0    0 -0.00000000000E+00 -0.00000000000E+00 -0.68232436497E+03  0.68232436497E+03  0.00000000000E+00 0. -1.
         24    2    1    2    0    0 -0.80125749373E+02 -0.82519209216E+02 -0.25049449801E+03  0.28735140050E+03  0.81202082715E+02 0.  0.
         25    2    1    2    0    0  0.28985239685E+02 -0.10572762475E+03 -0.27304917260E+03  0.31972205475E+03  0.12509143409E+03 0.  0.
        -24    2    1    2    0    0  0.51140509688E+02  0.18824683396E+03 -0.22305404406E+02  0.21172619968E+03  0.79235284670E+02 0.  0.
        -13    1    3    3    0    0 -0.94451360458E+02 -0.56141451712E+02 -0.18246302004E+03  0.21299219651E+03  0.00000000000E+00 0.  1.
         14    1    3    3    0    0  0.14325611085E+02 -0.26377757504E+02 -0.68031477968E+02  0.74359203992E+02  0.00000000000E+00 0. -1.
         11    1    5    5    0    0 -0.43362211983E+01  0.12690689048E+03 -0.41371458117E+01  0.12704832797E+03  0.00000000000E+00 0. -1.
        -12    1    5    5    0    0  0.55476730886E+02  0.61339943487E+02 -0.18168258594E+02  0.84677871709E+02  0.00000000000E+00 0.  1.
          5    1    4    4  501    0  0.47629370415E+02  0.44485356767E+01 -0.12704495080E+03  0.13581692943E+03  0.41800000000E+01 0.  1.
         -5    1    4    4    0  501 -0.18644130730E+02 -0.11017616042E+03 -0.14600422180E+03  0.18390512532E+03  0.41800000000E+01 0.  1.
</event>
<event>
11    1  0.8551154E-009  0.1298676E+03  0.7561462E-02  0.1119432E+00
         22   -1    0    0    0    0  0.00000000000E+00  0.00000000000E+00  0.73112866644E+03  0.73112866644E+03  0.00000000000E+00 0. -1.
         22   -1    0    0    0    0 -0.00000000000E+00 -0.00000000000E+00 -0.26129896018E+03  0.26129896018E+03  0.00000000000E+00 0. -1.
         24    2    1    2    0    0  0.20949918969E+02  0.27438439439E+02 -0.22742602063E+03  0.24378527883E+03  0.80727320353E+02 0.  0.
         25    2    1    2    0    0 -0.17752898582E+02 -0.42458377362E+02  0.17560232023E+03  0.22045436167E+03  0.12508425758E+03 0.  0.
        -24    2    1    2    0    0 -0.31970203868E+01  0.15019937923E+02  0.52165340667E+03  0.52818798612E+03  0.81390739749E+02 0.  0.
        -13    1    3    3    0    0  0.20964214489E+02 -0.16312751680E+02 -0.16746889056E+03  0.16956247657E+03  0.00000000000E+00 0.  1.
         14    1    3    3    0    0 -0.14295520054E-01  0.43751191119E+02 -0.59957130072E+02  0.74222802259E+02  0.00000000000E+00 0. -1.
         11    1    5    5    0    0 -0.41426568382E+02  0.10640039868E+01  0.29714556459E+03  0.30002129796E+03  0.00000000000E+00 0. -1.
        -12    1    5    5    0    0  0.38229547995E+02  0.13955933936E+02  0.22450784207E+03  0.22816668816E+03  0.00000000000E+00 0.  1.
          5    1    4    4  501    0 -0.69352572267E+02 -0.57812350128E+01  0.96570171734E+02  0.11910697892E+03  0.41800000000E+01 0.  1.
         -5    1    4    4    0  501  0.51599673685E+02 -0.36677142349E+02  0.79032148492E+02  0.10134738275E+03  0.41800000000E+01 0.  1.
</event>
<event>
11    1  0.8551154E-009  0.1523084E+03  0.7561462E-02  0.1094543E+00
         22   -1    0    0    0    0  0.00000000000E+00  0.00000000000E+00  0.81726335371E+03  0.81726335371E+03  0.00000000000E+00 0. -1.
         22   -1    0    0    0    0 -0.00000000000E+00 -0.00000000000E+00 -0.15252399199E+03  0.15252399199E+03  0.00000000000E+00 0.  1.
         24    2    1    2    0    0  0.31053187495E+01 -0.27266004959E+02 -0.10593597758E+03  0.13453158824E+03  0.78251126874E+02 0.  0.
         25    2    1    2    0    0 -0.86599621060E+02  0.44301023774E+02  0.21177031477E+03  0.26448780624E+03  0.12508020770E+03 0.  0.
        -24    2    1    2    0    0  0.83494302311E+02 -0.17035018815E+02  0.55890502453E+03  0.57076795121E+03  0.78356475798E+02 0.  0.
        -13    1    3    3    0    0 -0.80364943400E+01 -0.40792483286E+02 -0.10907313080E+03  0.11672857318E+03  0.00000000000E+00 0.  1.
         14    1    3    3    0    0  0.11141813090E+02  0.13526478327E+02  0.31371532193E+01  0.17803015059E+02  0.00000000000E+00 0. -1.
         13    1    5    5    0    0  0.41761121111E+02  0.29448201197E+01  0.45625713234E+03  0.45817380328E+03  0.00000000000E+00 0. -1.
        -14    1    5    5    0    0  0.41733181200E+02 -0.19979838935E+02  0.10264789219E+03  0.11259414793E+03  0.00000000000E+00 0.  1.
          5    1    4    4  501    0 -0.93458714291E+02  0.10952140869E+02  0.66697008437E+02  0.11541422790E+03  0.41800000000E+01 0.  1.
         -5    1    4    4    0  501  0.68590932304E+01  0.33348882905E+02  0.14507330633E+03  0.14907357835E+03  0.41800000000E+01 0.  1.
</event>
<event>
11    1  0.8551154E-009  0.1805337E+03  0.7561462E-02  0.1069212E+00
         22   -1    0    0    0    0  0.00000000000E+00  0.00000000000E+00  0.17544741601E+04  0.17544741601E+04  0.00000000000E+00 0. -1.
         22   -1    0    0    0    0 -0.00000000000E+00 -0.00000000000E+00 -0.13127527031E+03  0.13127527031E+03  0.00000000000E+00 0. -1.
         24    2    1    2    0    0  0.12791117574E+02  0.25323785634E+02 -0.75418977873E+02  0.11284924504E+03  0.79006474890E+02 0.  0.
         25    2    1    2    0    0 -0.32459314661E+02 -0.15109776457E+03  0.26445217476E+03  0.33085923642E+03  0.12509492406E+03 0.  0.
        -24    2    1    2    0    0  0.19668197086E+02  0.12577397894E+03  0.14341656929E+04  0.14420409490E+04  0.80280333729E+02 0.  0.
        -13    1    3    3    0    0 -0.19143192934E+02  0.35562219849E+02 -0.13771592850E+02  0.42670716961E+02  0.00000000000E+00 0.  1.
         14    1    3    3    0    0  0.31934310508E+02 -0.10238434215E+02 -0.61647385023E+02  0.70178528077E+02  0.00000000000E+00 0. -1.
         11    1    5    5    0    0 -0.24027513367E+02  0.78682899114E+02  0.96446901277E+03  0.96797148543E+03  0.00000000000E+00 0. -1.
        -12    1    5    5    0    0  0.43695710454E+02  0.47091079823E+02  0.46969668016E+03  0.47406946354E+03  0.00000000000E+00 0.  1.
          5    1    4    4  501    0 -0.60194488127E+02 -0.15696392296E+03  0.20733953799E+03  0.26696105695E+03  0.41800000000E+01 0. -1.
         -5    1    4    4    0  501  0.27735173467E+02  0.58661583919E+01  0.57112636772E+02  0.63898179477E+02  0.41800000000E+01 0. -1.
</event>
<event>
11    1  0.8551154E-009  0.1389218E+03  0.7561462E-02  0.1108768E+00
         22   -1    0    0    0    0  0.00000000000E+00  0.00000000000E+00  0.89327697675E+03  0.89327697675E+03  0.00000000000E+00 0. -1.
         22   -1    0    0    0    0 -0.00000000000E+00 -0.00000000000E+00 -0.50749821756E+03  0.50749821756E+03  0.00000000000E+00 0. -1.
        -24    2    1    2    0    0  0.31914554386E+01  0.62276244247E+02 -0.45364871331E+03  0.47033004377E+03  0.10735305774E+03 0.  0.
         25    2    1    2    0    0  0.23059071954E+02 -0.37430148862E+02  0.59211518378E+02  0.14521768948E+03  0.12509770816E+03 0.  0.
         24    2    1    2    0    0 -0.26250527392E+02 -0.24846095385E+02  0.78021595412E+03  0.78522746105E+03  0.80862920316E+02 0.  0.
        -13    1    5    5    0    0  0.26619971315E+02  0.13800661136E+01  0.15949055984E+03  0.16170270911E+03  0.00000000000E+00 0.  1.
         14    1    5    5    0    0 -0.52870498707E+02 -0.26226161499E+02  0.62072539427E+03  0.62352475193E+03  0.00000000000E+00 0. -1.
         13    1    3    3    0    0  0.36921631280E+02  0.70176047586E+02 -0.38884228418E+03  0.39684531807E+03  0.00000000000E+00 0. -1.
        -14    1    3    3    0    0 -0.33730175841E+02 -0.78998033389E+01 -0.64806429125E+02  0.73484725699E+02  0.00000000000E+00 0.  1.
          5    1    4    4  501    0 -0.18186592326E+02 -0.30830966863E+02 -0.29826274266E+02  0.46780120722E+02  0.41800000000E+01 0. -1.
         -5    1    4    4    0  501  0.41245664280E+02 -0.65991819984E+01  0.89037792644E+02  0.98437568762E+02  0.41800000000E+01 0. -1.
</event>
<event>
11    1  0.8551154E-009  0.1436711E+03  0.7561462E-02  0.1103527E+00
         22   -1    0    0    0    0  0.00000000000E+00  0.00000000000E+00  0.26672771615E+03  0.26672771615E+03  0.00000000000E+00 0.  1.
         22   -1    0    0    0    0 -0.00000000000E+00 -0.00000000000E+00 -0.31730437091E+03  0.31730437091E+03  0.00000000000E+00 0.  1.
         24    2    1    2    0    0 -0.70017303252E+02  0.39870560654E+01 -0.23796029444E+03  0.26024126440E+03  0.78626297116E+02 0.  0.
         25    2    1    2    0    0  0.79434050976E+02  0.60029418328E+02  0.10820560121E+03  0.19305255928E+03  0.12509012348E+03 0.  0.
        -24    2    1    2    0    0 -0.94167477238E+01 -0.64016474393E+02  0.79178038473E+02  0.13073826338E+03  0.81465008465E+02 0.  0.
        -11    1    3    3    0    0 -0.56513965849E+02  0.81003368001E+01 -0.23934284498E+03  0.24605780060E+03  0.00000000000E+00 0.  1.
         12    1    3    3    0    0 -0.13503337403E+02 -0.41132807347E+01  0.13825505440E+01  0.14183463802E+02  0.00000000000E+00 0. -1.
         11    1    5    5    0    0  0.20364200893E+02 -0.67110818224E+02  0.37820847567E+02  0.79680481370E+02  0.00000000000E+00 0. -1.
        -12    1    5    5    0    0 -0.29780948617E+02  0.30943438307E+01  0.41357190906E+02  0.51057782011E+02  0.00000000000E+00 0.  1.
          5    1    4    4  501    0  0.57537121513E+02  0.87308090050E+01 -0.12810664242E+02  0.59735524574E+02  0.41800000000E+01 0.  1.
         -5    1    4    4    0  501  0.21896929463E+02  0.51298609323E+02  0.12101626545E+03  0.13331703470E+03  0.41800000000E+01 0.  1.
</event>
<event>
11    1  0.8551154E-009  0.1482728E+03  0.7561462E-02  0.1098657E+00
         22   -1    0    0    0    0  0.00000000000E+00  0.00000000000E+00  0.10092858667E+03  0.10092858667E+03  0.00000000000E+00 0.  1.
         22   -1    0    0    0    0 -0.00000000000E+00 -0.00000000000E+00 -0.11871270509E+04  0.11871270509E+04  0.00000000000E+00 0.  1.
         24    2    1    2    0    0 -0.24300044527E+02 -0.59846834314E+02 -0.89469182210E+03  0.90061147124E+03  0.80345689749E+02 0.  0.
         25    2    1    2    0    0  0.26074630413E+02  0.13016787667E+03 -0.21156640215E+03  0.27934014620E+03  0.12508801819E+03 0.  0.
        -24    2    1    2    0    0 -0.17745858860E+01 -0.70321042355E+02  0.20059760002E+02  0.10810402013E+03  0.79598285437E+02 0.  0.
        -11    1    3    3    0    0 -0.53665322449E+02 -0.44674503209E+02 -0.63343471978E+03  0.63727178055E+03  0.00000000000E+00 0.  1.
         12    1    3    3    0    0  0.29365277922E+02 -0.15172331105E+02 -0.26125710232E+03  0.26333969069E+03  0.00000000000E+00 0. -1.
         11    1    5    5    0    0  0.17660798867E+02 -0.15666623837E+02 -0.25198535906E+02  0.34529887501E+02  0.00000000000E+00 0. -1.
        -12    1    5    5    0    0 -0.19435384753E+02 -0.54654418518E+02  0.45258295908E+02  0.73574132632E+02  0.00000000000E+00 0.  1.
          5    1    4    4  501    0 -0.24303497209E+01 -0.11080322490E+02 -0.89883555373E+02  0.90692921844E+02  0.41800000000E+01 0. -1.
         -5    1    4    4    0  501  0.28504980134E+02  0.14124819916E+03 -0.12168284677E+03  0.18864722436E+03  0.41800000000E+01 0. -1.
</event>
<event>
11    1  0.8551154E-009  0.1482546E+03  0.7561462E-02  0.1098676E+00
         22   -1    0    0    0    0  0.00000000000E+00  0.00000000000E+00  0.21970180407E+03  0.21970180407E+03  0.00000000000E+00 0. -1.
         22   -1    0    0    0    0 -0.00000000000E+00 -0.00000000000E+00 -0.26168919951E+03  0.26168919951E+03  0.00000000000E+00 0.  1.
        -24    2    1    2    0    0 -0.62439089203E+02  0.36546485680E+02 -0.13263052078E+03  0.16944458685E+03  0.76722405418E+02 0.  0.
         25    2    1    2    0    0 -0.22998939298E+02  0.15180294759E+02 -0.28050155202E+02  0.13112729844E+03  0.12509262421E+03 0.  0.
         24    2    1    2    0    0  0.85438028501E+02 -0.51726780439E+02  0.11869328055E+03  0.18081911830E+03  0.92909322275E+02 0.  0.
        -13    1    5    5    0    0 -0.10152338091E+02 -0.32783145946E+02  0.12088628272E+02  0.36385980272E+02  0.00000000000E+00 0.  1.
         14    1    5    5    0    0  0.95590366592E+02 -0.18943634493E+02  0.10660465228E+03  0.14443313803E+03  0.00000000000E+00 0. -1.
         11    1    3    3    0    0 -0.44142767982E+02 -0.30723195610E+01 -0.19816429310E+02  0.48484162189E+02  0.00000000000E+00 0. -1.
        -12    1    3    3    0    0 -0.18296321221E+02  0.39618805241E+02 -0.11281409147E+03  0.12096042466E+03  0.00000000000E+00 0.  1.
          5    1    4    4  501    0 -0.17619882159E+02  0.47690373842E+02  0.33609978482E+02  0.61089565869E+02  0.41800000000E+01 0. -1.
         -5    1    4    4    0  501 -0.53790571394E+01 -0.32510079083E+02 -0.61660133683E+02  0.70037732570E+02  0.41800000000E+01 0. -1.
</event>
<event>
11    1  0.8551154E-009  0.2557335E+03  0.7561462E-02  0.1020888E+00
         22   -1    0    0    0    0  0.00000000000E+00  0.00000000000E+00  0.54435374170E+02  0.54435374170E+02  0.00000000000E+00 0. -1.
         22   -1    0    0    0    0 -0.00000000000E+00 -0.00000000000E+00 -0.29750931387E+04  0.29750931387E+04  0.00000000000E+00 0. -1.
        -24    2    1    2    0    0 -0.61540422798E+02  0.76275704590E+02 -0.10692152898E+04  0.10769930479E+04  0.84187186788E+02 0.  0.
         25    2    1    2    0    0 -0.38522983749E+02 -0.26651967330E+03 -0.15238108496E+04  0.15524699870E+04  0.12508716469E+03 0.  0.
         24    2    1    2    0    0  0.10006340655E+03  0.19024396871E+03 -0.32763162513E+03  0.40006547799E+03  0.80650182456E+02 0.  0.
        -13    1    5    5    0    0  0.45438377525E+02  0.94803700338E+02 -0.90662089644E+02  0.13882363721E+03  0.00000000000E+00 0.  1.
         14    1    5    5    0    0  0.54625029022E+02  0.95440268369E+02 -0.23696953549E+03  0.26124184078E+03  0.00000000000E+00 0. -1.
         13    1    3    3    0    0 -0.27497259425E+02 -0.56595108955E+01 -0.10446802702E+03  0.10817438703E+03  0.00000000000E+00 0. -1.
        -14    1    3    3    0    0 -0.34043163373E+02  0.81935215485E+02 -0.96474726280E+03  0.96881866084E+03  0.00000000000E+00 0.  1.
          5    1    4    4  501    0  0.25210362080E+02 -0.91425418836E+02 -0.30325595087E+03  0.31776691725E+03  0.41800000000E+01 0. -1.
         -5    1    4    4    0  501 -0.63733345830E+02 -0.17509425446E+03 -0.12205548987E+04  0.12347030698E+04  0.41800000000E+01 0. -1.
</event>
<event>
11    1  0.8551154E-009  0.1336614E+03  0.7561462E-02  0.1114850E+00
         22   -1    0    0    0    0  0.00000000000E+00  0.00000000000E+00  0.50424523005E+03  0.50424523005E+03  0.00000000000E+00 0. -1.
         22   -1    0    0    0    0 -0.00000000000E+00 -0.00000000000E+00 -0.46454419883E+03  0.46454419883E+03  0.00000000000E+00 0.  1.
         24    2    1    2    0    0  0.10475993431E+02 -0.50464507527E+02 -0.34544248247E+03  0.35852386812E+03  0.80947157832E+02 0.  0.
         25    2    1    2    0    0 -0.59834753237E+01  0.21634844210E+02 -0.71366047243E+02  0.14572667449E+03  0.12505711694E+03 0.  0.
        -24    2    1    2    0    0 -0.44925181075E+01  0.28829663317E+02  0.45650956093E+03  0.46453888626E+03  0.80895398053E+02 0.  0.
        -13    1    3    3    0    0  0.43544046619E+02 -0.37859401017E+02 -0.25401778097E+03  0.26048886980E+03  0.00000000000E+00 0.  1.
         14    1    3    3    0    0 -0.33068053188E+02 -0.12605106509E+02 -0.91424701497E+02  0.98034998320E+02  0.00000000000E+00 0. -1.
         13    1    5    5    0    0 -0.14572205229E+02  0.53035498244E+02  0.37232111314E+03  0.37636169376E+03  0.00000000000E+00 0. -1.
        -14    1    5    5    0    0  0.10079687121E+02 -0.24205834927E+02  0.84188447786E+02  0.88177192502E+02  0.00000000000E+00 0.  1.
          5    1    4    4  501    0  0.34696183758E+02  0.60472683587E+02 -0.47622273439E+02  0.84534749985E+02  0.41800000000E+01 0. -1.
         -5    1    4    4    0  501 -0.40679659081E+02 -0.38837839377E+02 -0.23743773804E+02  0.61191924507E+02  0.41800000000E+01 0. -1.
</event>
<event>
11    1  0.8551154E-009  0.1945431E+03  0.7561462E-02  0.1058451E+00
         22   -1    0    0    0    0  0.00000000000E+00  0.00000000000E+00  0.35328575019E+04  0.35328575019E+04  0.00000000000E+00 0. -1.
         22   -1    0    0    0    0 -0.00000000000E+00 -0.00000000000E+00 -0.14794699563E+03  0.14794699563E+03  0.00000000000E+00 0. -1.
         24    2    1    2    0    0 -0.39729443510E+02 -0.12015784185E+03 -0.75856944957E+01  0.15122927418E+03  0.82440372192E+02 0.  0.
         25    2    1    2    0    0  0.34325406538E+02  0.23003131996E+03  0.19336144807E+03  0.32730662831E+03  0.12509331574E+03 0.  0.
        -24    2    1    2    0    0  0.54040369716E+01 -0.10987347811E+03  0.31991347526E+04  0.32022685950E+04  0.89216613326E+02 0.  0.
        -11    1    3    3    0    0 -0.21767138102E+02  0.61536412332E+01 -0.68858190385E+01  0.23645086284E+02  0.00000000000E+00 0.  1.
         12    1    3    3    0    0 -0.17962305408E+02 -0.12631148309E+03 -0.69987545718E+00  0.12758418789E+03  0.00000000000E+00 0. -1.
         13    1    5    5    0    0 -0.30463913029E+02 -0.99815003745E+02  0.23309143337E+04  0.23332493900E+04  0.00000000000E+00 0. -1.
        -14    1    5    5    0    0  0.35867950000E+02 -0.10058474362E+02  0.86822041894E+03  0.86901920497E+03  0.00000000000E+00 0.  1.
          5    1    4    4  501    0 -0.14355237435E+02  0.19199575233E+03  0.18075347223E+03  0.26411689056E+03  0.41800000000E+01 0. -1.
         -5    1    4    4    0  501  0.48680643973E+02  0.38035567627E+02  0.12607975832E+02  0.63189737750E+02  0.41800000000E+01 0. -1.
</event>
<event>
11    1  0.8551154E-009  0.2136580E+03  0.7561462E-02  0.1045265E+00
         22   -1    0    0    0    0  0.00000000000E+00  0.00000000000E+00  0.57804104161E+03  0.57804104161E+03  0.00000000000E+00 0.  1.
         22   -1    0    0    0    0 -0.00000000000E+00 -0.00000000000E+00 -0.11728210631E+03  0.11728210631E+03  0.00000000000E+00 0. -1.
        -24    2    1    2    0    0  0.19368961059E+03  0.56790217395E+02  0.19469601597E+03  0.29183230835E+03  0.80738860055E+02 0.  0.
         25    2    1    2    0    0 -0.15125053851E+03 -0.19437960757E+01  0.18521501949E+03  0.26987701603E+03  0.12509395106E+03 0.  0.
         24    2    1    2    0    0 -0.42439072077E+02 -0.54846421319E+02  0.80847899850E+02  0.13361382355E+03  0.80666388058E+02 0.  0.
        -13    1    5    5    0    0 -0.54147204267E+02 -0.46263122832E+02  0.91251055602E+02  0.11575383973E+03  0.00000000000E+00 0.  1.
         14    1    5    5    0    0  0.11708132190E+02 -0.85832984868E+01 -0.10403155752E+02  0.17859983815E+02  0.00000000000E+00 0. -1.
         13    1    3    3    0    0  0.18075833554E+03  0.49742153060E+02  0.13677252822E+03  0.23206590041E+03  0.00000000000E+00 0. -1.
        -14    1    3    3    0    0  0.12931275047E+02  0.70480643344E+01  0.57923487746E+02  0.59766407938E+02  0.00000000000E+00 0.  1.
          5    1    4    4  501    0  0.21227675896E+02 -0.26693661575E+01  0.10023800216E+02  0.23993513924E+02  0.41800000000E+01 0. -1.
         -5    1    4    4    0  501 -0.17247821441E+03  0.72557008179E+00  0.17519121927E+03  0.24588350210E+03  0.41800000000E+01 0. -1.
</event>
<event>
11    1  0.8551154E-009  0.1741063E+03  0.7561462E-02  0.1074512E+00
         22   -1    0    0    0    0  0.00000000000E+00  0.00000000000E+00  0.10704369549E+04  0.10704369549E+04  0.00000000000E+00 0.  1.
         22   -1    0    0    0    0 -0.00000000000E+00 -0.00000000000E+00 -0.15905867622E+04  0.15905867622E+04  0.00000000000E+00 0.  1.
        -24    2    1    2    0    0 -0.11952514778E+03 -0.23240898054E+02 -0.14797048995E+04  0.14867800639E+04  0.78498207806E+02 0.  0.
         25    2    1    2    0    0  0.10224954612E+03  0.42651275184E+02 -0.39312989373E+02  0.17166319677E+03  0.12509452840E+03 0.  0.
         24    2    1    2    0    0  0.17275601665E+02 -0.19410377130E+02  0.99886808156E+03  0.10025804565E+04  0.82188309465E+02 0.  0.
        -11    1    5    5    0    0  0.35454699657E+02 -0.42738402367E+02  0.57202863297E+03  0.57471763824E+03  0.00000000000E+00 0.  1.
         12    1    5    5    0    0 -0.18179097991E+02  0.23328025238E+02  0.42683944859E+03  0.42786281825E+03  0.00000000000E+00 0. -1.
         13    1    3    3    0    0 -0.75208134258E+01 -0.12992914486E+02 -0.40598910087E+02  0.43285678482E+02  0.00000000000E+00 0. -1.
        -14    1    3    3    0    0 -0.11200433436E+03 -0.10247983568E+02 -0.14391059894E+04  0.14434943854E+04  0.00000000000E+00 0.  1.
          5    1    4    4  501    0 -0.25990462718E+02  0.27923517996E+01 -0.25231746458E+02  0.36570682386E+02  0.41800000000E+01 0.  1.
         -5    1    4    4    0  501  0.12824000884E+03  0.39858923384E+02 -0.14081242915E+02  0.13509251438E+03  0.41800000000E+01 0.  1.
</event>
<event>
11    1  0.8551154E-009  0.1408562E+03  0.7561462E-02  0.1106606E+00
         22   -1    0    0    0    0  0.00000000000E+00  0.00000000000E+00  0.10173046341E+04  0.10173046341E+04  0.00000000000E+00 0.  1.
         22   -1    0    0    0    0 -0.00000000000E+00 -0.00000000000E+00 -0.80739230625E+03  0.80739230625E+03  0.00000000000E+00 0. -1.
         24    2    1    2    0    0  0.13152407547E+02  0.13558359762E+02 -0.78743711198E+03  0.79180516689E+03  0.80878934500E+02 0.  0.
         25    2    1    2    0    0 -0.50242396079E+02  0.40386955605E+02  0.34822076935E+03  0.37558097252E+03  0.12509179895E+03 0.  0.
        -24    2    1    2    0    0  0.37089988532E+02 -0.53945315367E+02  0.64912867050E+03  0.65731080095E+03  0.80023083485E+02 0.  0.
        -13    1    3    3    0    0  0.47536445573E+02  0.87237834130E+01 -0.46151357905E+03  0.46403728482E+03  0.00000000000E+00 0.  1.
         14    1    3    3    0    0 -0.34384038025E+02  0.48345763492E+01 -0.32592353293E+03  0.32776788207E+03  0.00000000000E+00 0. -1.
         11    1    5    5    0    0 -0.93039429038E+01  0.11499092510E+02  0.35466069767E+02  0.38427003355E+02  0.00000000000E+00 0. -1.
        -12    1    5    5    0    0  0.46393931436E+02 -0.65444407877E+02  0.61366260073E+03  0.61888379760E+03  0.00000000000E+00 0.  1.
          5    1    4    4  501    0 -0.13756812245E+02 -0.27598047730E+02  0.24327576234E+03  0.24525796840E+03  0.41800000000E+01 0. -1.
         -5    1    4    4    0  501 -0.36485583834E+02  0.67985003335E+02  0.10494500701E+03  0.13032300412E+03  0.41800000000E+01 0. -1.
</event>
<event>
11    1  0.8551154E-009  0.1321039E+03  0.7561462E-02  0.1116711E+00
         22   -1    0    0    0    0  0.00000000000E+00  0.00000000000E+00  0.53714963189E+03  0.53714963189E+03  0.00000000000E+00 0. -1.
         22   -1    0    0    0    0 -0.00000000000E+00 -0.00000000000E+00 -0.32400734566E+03  0.32400734566E+03  0.00000000000E+00 0.  1.
         24    2    1    2    0    0 -0.34527579055E+02 -0.20462551057E+02 -0.20805867887E+03  0.22673615538E+03  0.80684574694E+02 0.  0.
         25    2    1    2    0    0  0.57057171121E+02  0.77448393827E+01 -0.57188859072E+02  0.14910637169E+03  0.12508653470E+03 0.  0.
        -24    2    1    2    0    0 -0.22529592066E+02  0.12717711674E+02  0.47838982417E+03  0.48531445048E+03  0.77485284155E+02 0.  0.
        -13    1    3    3    0    0 -0.34622311971E+02 -0.48547204344E+02 -0.16383129592E+03  0.17434514349E+03  0.00000000000E+00 0.  1.
         14    1    3    3    0    0  0.94732915498E-01  0.28084653287E+02 -0.44227382949E+02  0.52391011892E+02  0.00000000000E+00 0. -1.
         11    1    5    5    0    0 -0.45554306877E+01  0.32583365351E+01  0.45189610048E+03  0.45193080702E+03  0.00000000000E+00 0. -1.
        -12    1    5    5    0    0 -0.17974161378E+02  0.94593751393E+01  0.26493723693E+02  0.33383643456E+02  0.00000000000E+00 0.  1.
          5    1    4    4  501    0  0.37205590543E+01 -0.27246625092E+02  0.30053176043E+02  0.40949809876E+02  0.41800000000E+01 0.  1.
         -5    1    4    4    0  501  0.53336612067E+02  0.34991464475E+02 -0.87242035115E+02  0.10815656182E+03  0.41800000000E+01 0.  1.
</event>
<event>
11    1  0.8551154E-009  0.1309835E+03  0.7561462E-02  0.1118067E+00
         22   -1    0    0    0    0  0.00000000000E+00  0.00000000000E+00  0.22966805117E+04  0.22966805117E+04  0.00000000000E+00 0. -1.
         22   -1    0    0    0    0 -0.00000000000E+00 -0.00000000000E+00 -0.26328580289E+03  0.26328580289E+03  0.00000000000E+00 0. -1.
        -24    2    1    2    0    0 -0.37115263469E+02  0.53728895639E+01 -0.18013043154E+03  0.20058928549E+03  0.79891666417E+02 0.  0.
         25    2    1    2    0    0  0.52606580566E+02 -0.40716234689E+02 -0.23251838032E+01  0.14169975403E+03  0.12509256463E+03 0.  0.
         24    2    1    2    0    0 -0.15491317097E+02  0.35343345125E+02  0.22158503242E+04  0.22176772751E+04  0.81306237997E+02 0.  0.
        -11    1    5    5    0    0 -0.95278109723E+01  0.14071984442E+02  0.83463893391E+02  0.85176413566E+02  0.00000000000E+00 0.  1.
         12    1    5    5    0    0 -0.59635061245E+01  0.21271360683E+02  0.21323864308E+04  0.21325008615E+04  0.00000000000E+00 0. -1.
         11    1    3    3    0    0 -0.18994493606E+02  0.40152647459E+02 -0.12706366298E+03  0.13460386449E+03  0.00000000000E+00 0. -1.
        -12    1    3    3    0    0 -0.18120769864E+02 -0.34779757895E+02 -0.53066768561E+02  0.65985421005E+02  0.00000000000E+00 0.  1.
          5    1    4    4  501    0  0.74049865702E+02  0.19891446911E+02  0.44612979353E+01  0.76918319340E+02  0.41800000000E+01 0. -1.
         -5    1    4    4    0  501 -0.21443285136E+02 -0.60607681600E+02 -0.67864817385E+01  0.64781434692E+02  0.41800000000E+01 0. -1.
</event>
<event>
11    1  0.8551154E-009  0.1347269E+03  0.7561462E-02  0.1113594E+00
         22   -1    0    0    0    0  0.00000000000E+00  0.00000000000E+00  0.42793727847E+03  0.42793727847E+03  0.00000000000E+00 0. -1.
         22   -1    0    0    0    0 -0.00000000000E+00 -0.00000000000E+00 -0.92251752775E+03  0.92251752775E+03  0.00000000000E+00 0. -1.
         24    2    1    2    0    0 -0.24537118787E+00 -0.48798040883E+02 -0.65984760954E+03  0.66653361231E+03  0.80541166629E+02 0.  0.
         25    2    1    2    0    0 -0.29920767533E+02  0.55550068663E+02 -0.23562884624E+03  0.27414569715E+03  0.12511533731E+03 0.  0.
        -24    2    1    2    0    0  0.30166138720E+02 -0.67520277801E+01  0.40089620649E+03  0.40977549676E+03  0.79010148448E+02 0.  0.
        -13    1    3    3    0    0  0.22196941325E+01  0.20895115999E+02 -0.89246043969E+02  0.91686363646E+02  0.00000000000E+00 0.  1.
         14    1    3    3    0    0 -0.24650653204E+01 -0.69693156882E+02 -0.57060156557E+03  0.57484724866E+03  0.00000000000E+00 0. -1.
         11    1    5    5    0    0  0.17890342275E+02  0.13475280277E+02  0.37087647881E+03  0.37155216331E+03  0.00000000000E+00 0. -1.
        -12    1    5    5    0    0  0.12275796446E+02 -0.20227308057E+02  0.30019727677E+02  0.38223333443E+02  0.00000000000E+00 0.  1.
          5    1    4    4  501    0 -0.21427072044E+02 -0.38230027110E+02 -0.55445445252E+02  0.70797769657E+02  0.41800000000E+01 0.  1.
         -5    1    4    4    0  501 -0.84936954881E+01  0.93780095773E+02 -0.18018340099E+03  0.20334792750E+03  0.41800000000E+01 0.  1.
</event>
<event>
11    1  0.8551154E-009  0.1370211E+03  0.7561462E-02  0.1110931E+00
         22   -1    0    0    0    0  0.00000000000E+00  0.00000000000E+00  0.98254889044E+03  0.98254889044E+03  0.00000000000E+00 0. -1.
         22   -1    0    0    0    0 -0.00000000000E+00 -0.00000000000E+00 -0.12003671658E+04  0.12003671658E+04  0.00000000000E+00 0. -1.
        -24    2    1    2    0    0  0.26140728382E+02  0.23356838560E+02 -0.11481725567E+04  0.11515538689E+04  0.80914853925E+02 0.  0.
         25    2    1    2    0    0 -0.68773930309E+02 -0.56445461825E+02  0.75877054024E+02  0.17123235639E+03  0.12508896393E+03 0.  0.
         24    2    1    2    0    0  0.42633201927E+02  0.33088623265E+02  0.85447722734E+03  0.86012983086E+03  0.82338004600E+02 0.  0.
        -11    1    5    5    0    0  0.23624729703E+01 -0.77434255410E+01  0.69653608835E+01  0.10679801959E+02  0.00000000000E+00 0.  1.
         12    1    5    5    0    0  0.40270728956E+02  0.40832048806E+02  0.84751186645E+03  0.84945002890E+03  0.00000000000E+00 0. -1.
         11    1    3    3    0    0  0.13408650076E+02  0.20317151061E+02 -0.11222484792E+04  0.11225124621E+04  0.00000000000E+00 0. -1.
        -12    1    3    3    0    0  0.12732078307E+02  0.30396874989E+01 -0.25924077509E+02  0.29041406867E+02  0.00000000000E+00 0.  1.
          5    1    4    4  501    0 -0.74611547293E+02 -0.91171774113E+02  0.61567337737E+02  0.13299317599E+03  0.41800000000E+01 0. -1.
         -5    1    4    4    0  501  0.58376169836E+01  0.34726312288E+02  0.14309716286E+02  0.38239180396E+02  0.41800000000E+01 0. -1.
</event>
<event>
11    1  0.8551154E-009  0.1623570E+03  0.7561462E-02  0.1084881E+00
         22   -1    0    0    0    0  0.00000000000E+00  0.00000000000E+00  0.17830428170E+04  0.17830428170E+04  0.00000000000E+00 0.  1.
         22   -1    0    0    0    0 -0.00000000000E+00 -0.00000000000E+00 -0.15170557246E+03  0.15170557246E+03  0.00000000000E+00 0. -1.
         24    2    1    2    0    0 -0.39209181467E+02  0.87653706827E+02 -0.79523169432E+02  0.14857731628E+03  0.80813069523E+02 0.  0.
         25    2    1    2    0    0  0.84149781932E+02 -0.15320828763E+03  0.29177329975E+03  0.36239969550E+03  0.12509162903E+03 0.  0.
        -24    2    1    2    0    0 -0.44940600464E+02  0.65554580802E+02  0.14190871143E+04  0.14237713777E+04  0.83663836451E+02 0.  0.
        -11    1    3    3    0    0 -0.44897992974E+02  0.96059696409E+01 -0.40067186810E+02  0.60938361356E+02  0.00000000000E+00 0.  1.
         12    1    3    3    0    0  0.56888115070E+01  0.78047737187E+02 -0.39455982622E+02  0.87638954929E+02  0.00000000000E+00 0. -1.
         11    1    5    5    0    0 -0.24153878876E+01 -0.13737871941E+02  0.52135589619E+03  0.52154245629E+03  0.00000000000E+00 0. -1.
        -12    1    5    5    0    0 -0.42525212577E+02  0.79292452744E+02  0.89773121806E+03  0.90222892142E+03  0.00000000000E+00 0.  1.
          5    1    4    4  501    0 -0.18216674213E+02 -0.30807672992E+02  0.81476461726E+01  0.36943422591E+02  0.41800000000E+01 0. -1.
         -5    1    4    4    0  501  0.10236645614E+03 -0.12240061464E+03  0.28362565358E+03  0.32545627291E+03  0.41800000000E+01 0. -1.
</event>
<event>
11    1  0.8551154E-009  0.1731275E+03  0.7561462E-02  0.1075342E+00
         22   -1    0    0    0    0  0.00000000000E+00  0.00000000000E+00  0.99070290375E+02  0.99070290375E+02  0.00000000000E+00 0. -1.
         22   -1    0    0    0    0 -0.00000000000E+00 -0.00000000000E+00 -0.98444894155E+03  0.98444894155E+03  0.00000000000E+00 0.  1.
        -24    2    1    2    0    0  0.23850115534E+02  0.20576444077E+02 -0.51549592841E+03  0.52260882963E+03  0.79948224139E+02 0.  0.
         25    2    1    2    0    0 -0.13559831218E+03 -0.52143306614E+02 -0.38486799038E+03  0.42997318048E+03  0.12509092383E+03 0.  0.
         24    2    1    2    0    0  0.11174819664E+03  0.31566862537E+02  0.14985267607E+02  0.13093722182E+03  0.58616307874E+02 0.  0.
        -13    1    5    5    0    0  0.56619305482E+02 -0.90940168963E+01 -0.96281632746E+01  0.58147643328E+02  0.00000000000E+00 0.  1.
         14    1    5    5    0    0  0.55128891159E+02  0.40660879433E+02  0.24613430882E+02  0.72789578489E+02  0.00000000000E+00 0. -1.
         11    1    3    3    0    0 -0.85535181915E+01 -0.25760572977E+02 -0.11612833184E+03  0.11925837182E+03  0.00000000000E+00 0. -1.
        -12    1    3    3    0    0  0.32403633725E+02  0.46337017053E+02 -0.39936759657E+03  0.40335045782E+03  0.00000000000E+00 0.  1.
          5    1    4    4  501    0 -0.57099096827E+02  0.31867798694E+02 -0.75855725610E+02  0.10023685430E+03  0.41800000000E+01 0. -1.
         -5    1    4    4    0  501 -0.78499215348E+02 -0.84011105308E+02 -0.30901226477E+03  0.32973632618E+03  0.41800000000E+01 0. -1.
</event>
<event>
11    1  0.8551154E-009  0.1554523E+03  0.7561462E-02  0.1091434E+00
         22   -1    0    0    0    0  0.00000000000E+00  0.00000000000E+00  0.25237617387E+03  0.25237617387E+03  0.00000000000E+00 0. -1.
         22   -1    0    0    0    0 -0.00000000000E+00 -0.00000000000E+00 -0.66954728718E+03  0.66954728718E+03  0.00000000000E+00 0. -1.
         24    2    1    2    0    0 -0.21261821711E+02  0.85855864940E+01 -0.29258846212E+03  0.30411391451E+03  0.79696219929E+02 0.  0.
         25    2    1    2    0    0  0.92267564756E+02  0.49606518471E+02 -0.33614960388E+03  0.37365527410E+03  0.12509035732E+03 0.  0.
        -24    2    1    2    0    0 -0.71005743045E+02 -0.58192104965E+02  0.21156695269E+03  0.24415427244E+03  0.80141104645E+02 0.  0.
        -11    1    3    3    0    0  0.41268288658E+01  0.22083000580E+02 -0.20198090577E+02  0.30210138928E+02  0.00000000000E+00 0.  1.
         12    1    3    3    0    0 -0.25388650577E+02 -0.13497414086E+02 -0.27239037155E+03  0.27390377558E+03  0.00000000000E+00 0. -1.
         13    1    5    5    0    0 -0.88947488118E+02 -0.48348316752E+02  0.18049525284E+03  0.20694866918E+03  0.00000000000E+00 0. -1.
        -14    1    5    5    0    0  0.17941745073E+02 -0.98437882129E+01  0.31071699850E+02  0.37205603264E+02  0.00000000000E+00 0.  1.
          5    1    4    4  501    0  0.76643178589E+02  0.44713928582E+02 -0.34381136696E+03  0.35510173287E+03  0.41800000000E+01 0. -1.
         -5    1    4    4    0  501  0.15624386167E+02  0.48925898894E+01  0.76617630799E+01  0.18553541237E+02  0.41800000000E+01 0. -1.
</event>
<event>
11    1  0.8551154E-009  0.1580441E+03  0.7561462E-02  0.1088931E+00
         22   -1    0    0    0    0  0.00000000000E+00  0.00000000000E+00  0.41513153041E+03  0.41513153041E+03  0.00000000000E+00 0.  1.
         22   -1    0    0    0    0 -0.00000000000E+00 -0.00000000000E+00 -0.15460681034E+03  0.15460681034E+03  0.00000000000E+00 0.  1.
        -24    2    1    2    0    0  0.27554975394E+02  0.91033816182E+02 -0.68189051908E+02  0.14221708735E+03  0.80805450160E+02 0.  0.
         25    2    1    2    0    0 -0.10470033359E+02 -0.10402358709E+03  0.11829625575E+03  0.20142526947E+03  0.12509039446E+03 0.  0.
         24    2    1    2    0    0 -0.17084942035E+02  0.12989770911E+02  0.21041751623E+03  0.22609598394E+03  0.79895140191E+02 0.  0.
        -13    1    5    5    0    0 -0.22583697827E+02 -0.16974272021E+01  0.20913845674E+03  0.21036111512E+03  0.00000000000E+00 0.  1.
         14    1    5    5    0    0  0.54987557926E+01  0.14687198113E+02  0.12790594885E+01  0.15734868822E+02  0.00000000000E+00 0. -1.
         13    1    3    3    0    0  0.40138241590E+02  0.78139624674E+02 -0.19061444041E+02  0.89890032991E+02  0.00000000000E+00 0. -1.
        -14    1    3    3    0    0 -0.12583266196E+02  0.12894191508E+02 -0.49127607867E+02  0.52327054356E+02  0.00000000000E+00 0.  1.
          5    1    4    4  501    0 -0.14340275367E+01 -0.56008285640E+02 -0.16033159859E+02  0.58425329357E+02  0.41800000000E+01 0.  1.
         -5    1    4    4    0  501 -0.90360058223E+01 -0.48015301453E+02  0.13432941561E+03  0.14299994011E+03  0.41800000000E+01 0.  1.
</event>
<event>
11    1  0.8551154E-009  0.1771678E+03  0.7561462E-02  0.1071957E+00
         22   -1    0    0    0    0  0.00000000000E+00  0.00000000000E+00  0.98701095199E+03  0.98701095199E+03  0.00000000000E+00 0.  1.
         22   -1    0    0    0    0 -0.00000000000E+00 -0.00000000000E+00 -0.56365735324E+03  0.56365735324E+03  0.00000000000E+00 0.  1.
         24    2    1    2    0    0 -0.12254768726E+03  0.15085016676E+02 -0.49358169874E+03  0.51511663697E+03  0.80478338524E+02 0.  0.
         25    2    1    2    0    0  0.15449869765E+03 -0.75516558109E+02  0.14868829508E+03  0.25947675924E+03  0.12508949343E+03 0.  0.
        -24    2    1    2    0    0 -0.31951010389E+02  0.60431541433E+02  0.76824700241E+03  0.77607490902E+03  0.86116023130E+02 0.  0.
        -11    1    3    3    0    0 -0.54076281358E+02 -0.31081751738E+02 -0.25965394653E+03  0.26704024312E+03  0.00000000000E+00 0.  1.
         12    1    3    3    0    0 -0.68471405903E+02  0.46166768414E+02 -0.23392775220E+03  0.24807639384E+03  0.00000000000E+00 0. -1.
         13    1    5    5    0    0 -0.48380755664E+02  0.69170464925E+02  0.49091454427E+03  0.49811880161E+03  0.00000000000E+00 0. -1.
        -14    1    5    5    0    0  0.16429745275E+02 -0.87389234916E+01  0.27733245813E+03  0.27795610741E+03  0.00000000000E+00 0.  1.
          5    1    4    4  501    0  0.19075329077E+02  0.16831776429E+02  0.75753369382E+02  0.80020136528E+02  0.41800000000E+01 0.  1.
         -5    1    4    4    0  501  0.13542336857E+03 -0.92348334538E+02  0.72934925698E+02  0.17945662271E+03  0.41800000000E+01 0.  1.
</event>
<event>
11    1  0.8551154E-009  0.1855845E+03  0.7561462E-02  0.1065213E+00
         22   -1    0    0    0    0  0.00000000000E+00  0.00000000000E+00  0.23561081101E+03  0.23561081101E+03  0.00000000000E+00 0. -1.
         22   -1    0    0    0    0 -0.00000000000E+00 -0.00000000000E+00 -0.26053187193E+04  0.26053187193E+04  0.00000000000E+00 0.  1.
        -24    2    1    2    0    0  0.16178338742E+02  0.44612647116E+02 -0.17591390332E+04  0.17616269983E+04  0.80669177375E+02 0.  0.
         25    2    1    2    0    0 -0.97498718703E+02 -0.15306283169E+03 -0.80164551232E+03  0.83139670806E+03  0.12510287031E+03 0.  0.
         24    2    1    2    0    0  0.81320379961E+02  0.10845018457E+03  0.19107663728E+03  0.24790582387E+03  0.81071384999E+02 0.  0.
        -13    1    5    5    0    0  0.29182351797E+01  0.31646134507E+02  0.54269676233E+01  0.32240438946E+02  0.00000000000E+00 0.  1.
         14    1    5    5    0    0  0.78402144782E+02  0.76804050063E+02  0.18564966965E+03  0.21566538493E+03  0.00000000000E+00 0. -1.
         11    1    3    3    0    0  0.58795154263E+01  0.41713541336E+02 -0.36137871267E+03  0.36382573054E+03  0.00000000000E+00 0. -1.
        -12    1    3    3    0    0  0.10298823315E+02  0.28991057803E+01 -0.13977603205E+04  0.13978012678E+04  0.00000000000E+00 0.  1.
          5    1    4    4  501    0 -0.14355408092E+02 -0.10874867908E+03 -0.27017472816E+03  0.29162340283E+03  0.41800000000E+01 0. -1.
         -5    1    4    4    0  501 -0.83143310611E+02 -0.44314152602E+02 -0.53147078417E+03  0.53977330523E+03  0.41800000000E+01 0. -1.
</event>
<event>
11    1  0.8551154E-009  0.3434773E+03  0.7561462E-02  0.9833036E-01
         22   -1    0    0    0    0  0.00000000000E+00  0.00000000000E+00  0.37513263863E+03  0.37513263863E+03  0.00000000000E+00 0.  1.
         22   -1    0    0    0    0 -0.00000000000E+00 -0.00000000000E+00 -0.81213090147E+03  0.81213090147E+03  0.00000000000E+00 0.  1.
         24    2    1    2    0    0  0.15708411609E+03 -0.24761307675E+03 -0.40426716295E+03  0.50584918691E+03  0.80397795701E+02 0.  0.
         25    2    1    2    0    0 -0.16881461813E+03  0.34650326979E+03 -0.21510419045E+03  0.45876960121E+03  0.12504736294E+03 0.  0.
        -24    2    1    2    0    0  0.11730502032E+02 -0.98890193047E+02  0.18237309055E+03  0.22264475198E+03  0.79961656230E+02 0.  0.
        -13    1    3    3    0    0  0.10022674629E+03 -0.20611954372E+03 -0.26928658715E+03  0.35361834369E+03  0.00000000000E+00 0.  1.
         14    1    3    3    0    0  0.56857369800E+02 -0.41493533022E+02 -0.13498057580E+03  0.15223084322E+03  0.00000000000E+00 0. -1.
         13    1    5    5    0    0  0.21980925722E+02  0.26979818829E+01  0.55724308459E+02  0.59963645278E+02  0.00000000000E+00 0. -1.
        -14    1    5    5    0    0 -0.10250423690E+02 -0.10158817493E+03  0.12664878209E+03  0.16268110670E+03  0.00000000000E+00 0.  1.
          5    1    4    4  501    0 -0.18784285201E+03  0.31222177221E+03 -0.20484325767E+03  0.41802584215E+03  0.41800000000E+01 0. -1.
         -5    1    4    4    0  501  0.19028233881E+02  0.34281497578E+02 -0.10260932775E+02  0.40743759059E+02  0.41800000000E+01 0. -1.
</event>
<event>
11    1  0.8551154E-009  0.1690628E+03  0.7561462E-02  0.1078850E+00
         22   -1    0    0    0    0  0.00000000000E+00  0.00000000000E+00  0.20227946647E+04  0.20227946647E+04  0.00000000000E+00 0. -1.
         22   -1    0    0    0    0 -0.00000000000E+00 -0.00000000000E+00 -0.19871649743E+03  0.19871649743E+03  0.00000000000E+00 0. -1.
         24    2    1    2    0    0 -0.11450483511E+02 -0.60669086087E+02 -0.12764980838E+03  0.16846580887E+03  0.90963748818E+02 0.  0.
         25    2    1    2    0    0  0.65815930932E+01  0.17135216103E+03  0.18557665796E+03  0.28194198862E+03  0.12509080107E+03 0.  0.
        -24    2    1    2    0    0  0.48688904181E+01 -0.11068307494E+03  0.17661513177E+04  0.17711033647E+04  0.72403053115E+02 0.  0.
        -13    1    3    3    0    0 -0.16561829853E+01 -0.94680095368E+01  0.14309373979E+02  0.17237874879E+02  0.00000000000E+00 0.  1.
         14    1    3    3    0    0 -0.97943005260E+01 -0.51201076550E+02 -0.14195918236E+03  0.15122793399E+03  0.00000000000E+00 0. -1.
         13    1    5    5    0    0 -0.17887765252E+01  0.33121835127E+01  0.44784914956E+03  0.44786496965E+03  0.00000000000E+00 0. -1.
        -14    1    5    5    0    0  0.66576669433E+01 -0.11399525845E+03  0.13183021681E+04  0.13232383950E+04  0.00000000000E+00 0.  1.
          5    1    4    4  501    0  0.55626361942E+01  0.15467340440E+03  0.78694958745E+02  0.17368124217E+03  0.41800000000E+01 0.  1.
         -5    1    4    4    0  501  0.10189568990E+01  0.16678756628E+02  0.10688169921E+03  0.10826074645E+03  0.41800000000E+01 0.  1.
</event>
<event>
11    1  0.8551154E-009  0.1566747E+03  0.7561462E-02  0.1090247E+00
         22   -1    0    0    0    0  0.00000000000E+00  0.00000000000E+00  0.37152923701E+03  0.37152923701E+03  0.00000000000E+00 0. -1.
         22   -1    0    0    0    0 -0.00000000000E+00 -0.00000000000E+00 -0.14205501540E+04  0.14205501540E+04  0.00000000000E+00 0.  1.
        -24    2    1    2    0    0  0.65782078139E+02  0.35949810921E+02 -0.12090979089E+04  0.12140422059E+04  0.79756214262E+02 0.  0.
         25    2    1    2    0    0 -0.73872054521E+02 -0.12762839510E+03 -0.15033377519E+03  0.24492973409E+03  0.12507694834E+03 0.  0.
         24    2    1    2    0    0  0.80899763826E+01  0.91678584181E+02  0.31041076714E+03  0.33310745095E+03  0.78328277175E+02 0.  0.
        -13    1    5    5    0    0  0.64114230169E+01  0.39449518931E+01 -0.26504225644E+01  0.79808351887E+01  0.00000000000E+00 0.  1.
         14    1    5    5    0    0  0.16785533658E+01  0.87733632288E+02  0.31306118971E+03  0.32512661576E+03  0.00000000000E+00 0. -1.
         13    1    3    3    0    0  0.34414288677E+02  0.44437850466E+02 -0.36345934002E+03  0.36777949598E+03  0.00000000000E+00 0. -1.
        -14    1    3    3    0    0  0.31367789461E+02 -0.84880395450E+01 -0.84563856890E+03  0.84626270994E+03  0.00000000000E+00 0.  1.
          5    1    4    4  501    0  0.28058482116E+02 -0.16765070368E+02 -0.12476633961E+01  0.32975370613E+02  0.41800000000E+01 0.  1.
         -5    1    4    4    0  501 -0.10193053664E+03 -0.11086332473E+03 -0.14908611179E+03  0.21195436348E+03  0.41800000000E+01 0.  1.
</event>
<event>
11    1  0.8551154E-009  0.1396084E+03  0.7561462E-02  0.1107996E+00
         22   -1    0    0    0    0  0.00000000000E+00  0.00000000000E+00  0.79057245558E+03  0.79057245558E+03  0.00000000000E+00 0.  1.
         22   -1    0    0    0    0 -0.00000000000E+00 -0.00000000000E+00 -0.56380359947E+02  0.56380359947E+02  0.00000000000E+00 0.  1.
         24    2    1    2    0    0  0.44908323438E+02  0.43943290852E-01  0.88075337733E+02  0.12717992218E+03  0.80004425147E+02 0.  0.
         25    2    1    2    0    0 -0.91330322375E+02  0.33045139223E+02  0.16460917385E+03  0.22842341505E+03  0.12509143622E+03 0.  0.
        -24    2    1    2    0    0  0.46421998936E+02 -0.33089082514E+02  0.48150758405E+03  0.49134947830E+03  0.79529032211E+02 0.  0.
        -13    1    3    3    0    0  0.55855131408E+02  0.24177680874E+02  0.41737558661E+02  0.73799591869E+02  0.00000000000E+00 0.  1.
         14    1    3    3    0    0 -0.10946807970E+02 -0.24133737583E+02  0.46337779072E+02  0.53380330308E+02  0.00000000000E+00 0. -1.
         13    1    5    5    0    0 -0.18110511052E+02  0.93586406442E+01  0.11469041922E+03  0.11648805530E+03  0.00000000000E+00 0. -1.
        -14    1    5    5    0    0  0.64532509989E+02 -0.42447723158E+02  0.36681716483E+03  0.37486142300E+03  0.00000000000E+00 0.  1.
          5    1    4    4  501    0 -0.30963034241E+02 -0.47930818890E+02  0.62708609406E+02  0.84887660956E+02  0.41800000000E+01 0.  1.
         -5    1    4    4    0  501 -0.60367288134E+02  0.80975958113E+02  0.10190056445E+03  0.14353575410E+03  0.41800000000E+01 0.  1.
</event>
<event>
11    1  0.8551154E-009  0.1550436E+03  0.7561462E-02  0.1091834E+00
         22   -1    0    0    0    0  0.00000000000E+00  0.00000000000E+00  0.14357782178E+03  0.14357782178E+03  0.00000000000E+00 0.  1.
         22   -1    0    0    0    0 -0.00000000000E+00 -0.00000000000E+00 -0.11553801522E+04  0.11553801522E+04  0.00000000000E+00 0.  1.
        -24    2    1    2    0    0 -0.82191397036E+02  0.42671219823E+02 -0.10325459346E+04  0.10396501517E+04  0.78390511057E+02 0.  0.
         25    2    1    2    0    0  0.56087620970E+02 -0.55686893125E+02 -0.41355544008E+02  0.15364120718E+03  0.12509391765E+03 0.  0.
         24    2    1    2    0    0  0.26103776066E+02  0.13015673303E+02  0.62099148158E+02  0.10566661508E+03  0.80363638943E+02 0.  0.
        -11    1    5    5    0    0  0.29713142313E+02  0.10692993193E+02  0.80657205088E+02  0.86618679637E+02  0.00000000000E+00 0.  1.
         12    1    5    5    0    0 -0.36093662466E+01  0.23226801097E+01 -0.18558056930E+02  0.19047935443E+02  0.00000000000E+00 0. -1.
         13    1    3    3    0    0 -0.75204752070E+01  0.43693590430E+01 -0.84668200292E+01  0.12138199504E+02  0.00000000000E+00 0. -1.
        -14    1    3    3    0    0 -0.74670921829E+02  0.38301860780E+02 -0.10240791145E+04  0.10275119522E+04  0.00000000000E+00 0.  1.
          5    1    4    4  501    0  0.62980596173E+02 -0.81656724618E+02  0.11121756036E+01  0.10321378544E+03  0.41800000000E+01 0.  1.
         -5    1    4    4    0  501 -0.68929752035E+01  0.25969831493E+02 -0.42467719612E+02  0.50427421746E+02  0.41800000000E+01 0.  1.
</event>
<event>
11    1  0.8551154E-009  0.3078736E+03  0.7561462E-02  0.9969130E-01
         22   -1    0    0    0    0  0.00000000000E+00  0.00000000000E+00  0.16125116320E+04  0.16125116320E+04  0.00000000000E+00 0. -1.
         22   -1    0    0    0    0 -0.00000000000E+00 -0.00000000000E+00 -0.16547410227E+03  0.16547410227E+03  0.00000000000E+00 0.  1.
        -24    2    1    2    0    0  0.13294032158E+03  0.79074312028E+02  0.49741124630E+02  0.18141581219E+03  0.80694742758E+02 0.  0.
         25    2    1    2    0    0 -0.75435408624E+02  0.21517211108E+03  0.12790641552E+03  0.28982256331E+03  0.12509008279E+03 0.  0.
         24    2    1    2    0    0 -0.57504912959E+02 -0.29424642311E+03  0.12693899896E+04  0.13067473588E+04  0.79686520015E+02 0.  0.
        -13    1    5    5    0    0 -0.39730736818E+02 -0.15773655239E+03  0.52103042623E+03  0.54583152755E+03  0.00000000000E+00 0.  1.
         14    1    5    5    0    0 -0.17774176141E+02 -0.13650987071E+03  0.74835956339E+03  0.76091583126E+03  0.00000000000E+00 0. -1.
         13    1    3    3    0    0  0.72856114936E+01 -0.16472284354E+01 -0.16442279607E+02  0.18059403507E+02  0.00000000000E+00 0. -1.
        -14    1    3    3    0    0  0.12565471009E+03  0.80721540464E+02  0.66183404236E+02  0.16335640869E+03  0.00000000000E+00 0.  1.
          5    1    4    4  501    0 -0.98679382006E+02  0.13041462201E+03  0.46799182473E+02  0.17015648665E+03  0.41800000000E+01 0. -1.
         -5    1    4    4    0  501  0.23243973382E+02  0.84757489064E+02  0.81107233050E+02  0.11966607666E+03  0.41800000000E+01 0. -1.
</event>
<event>
11    1  0.8551154E-009  0.1373950E+03  0.7561462E-02  0.1110503E+00
         22   -1    0    0    0    0  0.00000000000E+00  0.00000000000E+00  0.39311392394E+03  0.39311392394E+03  0.00000000000E+00 0. -1.
         22   -1    0    0    0    0 -0.00000000000E+00 -0.00000000000E+00 -0.17533823914E+03  0.17533823914E+03  0.00000000000E+00 0.  1.
         24    2    1    2    0    0  0.30923728862E+02 -0.50683260578E+02 -0.99052948340E+02  0.14072714474E+03  0.80421220973E+02 0.  0.
         25    2    1    2    0    0  0.23901957335E+02  0.61917054834E+02  0.61572068739E+02  0.15437232944E+03  0.12503867884E+03 0.  0.
        -24    2    1    2    0    0 -0.54825686197E+02 -0.11233794256E+02  0.25525656440E+03  0.27335268890E+03  0.80210503407E+02 0.  0.
        -13    1    3    3    0    0  0.32571984052E+02 -0.35254248511E+02 -0.11113781267E+03  0.12105952911E+03  0.00000000000E+00 0.  1.
         14    1    3    3    0    0 -0.16482551899E+01 -0.15429012067E+02  0.12084864334E+02  0.19667615628E+02  0.00000000000E+00 0. -1.
         11    1    5    5    0    0 -0.63214691900E+02  0.14304714547E+02  0.21786578610E+03  0.22730205209E+03  0.00000000000E+00 0. -1.
        -12    1    5    5    0    0  0.83890057027E+01 -0.25538508803E+02  0.37390778301E+02  0.46050636809E+02  0.00000000000E+00 0.  1.
          5    1    4    4  501    0  0.54897905839E+02 -0.19643402787E+01 -0.70473514539E+01  0.55540762155E+02  0.41800000000E+01 0. -1.
         -5    1    4    4    0  501 -0.30995948504E+02  0.63881395113E+02  0.68619420193E+02  0.98831567289E+02  0.41800000000E+01 0. -1.
</event>
<event>
11    1  0.8551154E-009  0.2619117E+03  0.7561462E-02  0.1017738E+00
         22   -1    0    0    0    0  0.00000000000E+00  0.00000000000E+00  0.20698339053E+03  0.20698339053E+03  0.00000000000E+00 0.  1.
         22   -1    0    0    0    0 -0.00000000000E+00 -0.00000000000E+00 -0.15382283241E+04  0.15382283241E+04  0.00000000000E+00 0. -1.
        -24    2    1    2    0    0  0.15408259607E+03 -0.11782621564E+03 -0.74615813154E+03  0.77526211288E+03  0.81577710739E+02 0.  0.
         25    2    1    2    0    0 -0.28074203155E+03  0.20169224693E+03 -0.68012651482E+03  0.77312046366E+03  0.12508926578E+03 0.  0.
         24    2    1    2    0    0  0.12665943548E+03 -0.83866031294E+02  0.95039712782E+02  0.19682913812E+03  0.81443469999E+02 0.  0.
        -13    1    5    5    0    0  0.10203997561E+03 -0.53288757872E+02  0.26943531983E+02  0.11822775586E+03  0.00000000000E+00 0.  1.
         14    1    5    5    0    0  0.24619459863E+02 -0.30577273422E+02  0.68096180799E+02  0.78601382261E+02  0.00000000000E+00 0. -1.
         13    1    3    3    0    0  0.56721803697E+02 -0.25255752364E+02 -0.38403152797E+03  0.38901854778E+03  0.00000000000E+00 0. -1.
        -14    1    3    3    0    0  0.97360792374E+02 -0.92570463274E+02 -0.36212660358E+03  0.38624356510E+03  0.00000000000E+00 0.  1.
          5    1    4    4  501    0 -0.77292890319E+02  0.10620745406E+03 -0.34883475385E+03  0.37276986478E+03  0.41800000000E+01 0.  1.
         -5    1    4    4    0  501 -0.20344914123E+03  0.95484792876E+02 -0.33129176097E+03  0.40035059888E+03  0.41800000000E+01 0.  1.
</event>
<event>
11    1  0.8551154E-009  0.2146605E+03  0.7561462E-02  0.1044615E+00
         22   -1    0    0    0    0  0.00000000000E+00  0.00000000000E+00  0.58377884593E+03  0.58377884593E+03  0.00000000000E+00 0. -1.
         22   -1    0    0    0    0 -0.00000000000E+00 -0.00000000000E+00 -0.22085787352E+04  0.22085787352E+04  0.00000000000E+00 0. -1.
         24    2    1    2    0    0 -0.74339056743E+02 -0.68203616982E+01 -0.18630471228E+04  0.18662303934E+04  0.79363006499E+02 0.  0.
         25    2    1    2    0    0  0.18603436933E+02  0.17298083015E+03 -0.29178966041E+03  0.36201867723E+03  0.12509141170E+03 0.  0.
        -24    2    1    2    0    0  0.55735619809E+02 -0.16616046845E+03  0.53003689395E+03  0.56410851048E+03  0.81015690215E+02 0.  0.
        -11    1    3    3    0    0 -0.15322275686E+02  0.23338120198E+02 -0.10869656208E+04  0.10873241011E+04  0.00000000000E+00 0.  1.
         12    1    3    3    0    0 -0.59016781057E+02 -0.30158481896E+02 -0.77608150200E+03  0.77890629233E+03  0.00000000000E+00 0. -1.
         13    1    5    5    0    0  0.47528035713E+02 -0.15528865622E+03  0.52506741315E+03  0.54960828712E+03  0.00000000000E+00 0. -1.
        -14    1    5    5    0    0  0.82075840968E+01 -0.10871812232E+02  0.49694807994E+01  0.14500223354E+02  0.00000000000E+00 0.  1.
          5    1    4    4  501    0 -0.34828091929E+02  0.11356601061E+03 -0.10416553848E+03  0.15804482453E+03  0.41800000000E+01 0.  1.
         -5    1    4    4    0  501  0.53431528862E+02  0.59414819534E+02 -0.18762412193E+03  0.20397385270E+03  0.41800000000E+01 0.  1.
</event>
<event>
11    1  0.8551154E-009  0.1514461E+03  0.7561462E-02  0.1095410E+00
         22   -1    0    0    0    0  0.00000000000E+00  0.00000000000E+00  0.14711397423E+04  0.14711397423E+04  0.00000000000E+00 0. -1.
         22   -1    0    0    0    0 -0.00000000000E+00 -0.00000000000E+00 -0.16931391653E+03  0.16931391653E+03  0.00000000000E+00 0.  1.
         24    2    1    2    0    0 -0.12670223651E+02  0.21690762095E+02 -0.12278654127E+03  0.14884732578E+03  0.80299240007E+02 0.  0.
         25    2    1    2    0    0  0.49597978071E+02  0.56549650101E+02  0.14233964132E+03  0.20387545080E+03  0.12508718396E+03 0.  0.
        -24    2    1    2    0    0 -0.36927754420E+02 -0.78240412197E+02  0.12822727257E+04  0.12877308822E+04  0.80884243412E+02 0.  0.
        -11    1    3    3    0    0  0.12053487446E+02  0.49707033111E+01 -0.11788146009E+03  0.11860030811E+03  0.00000000000E+00 0.  1.
         12    1    3    3    0    0 -0.24723711097E+02  0.16720058784E+02 -0.49050811790E+01  0.30247017663E+02  0.00000000000E+00 0. -1.
         11    1    5    5    0    0 -0.14992821894E+02 -0.78059340863E+02  0.11985309543E+04  0.12011638080E+04  0.00000000000E+00 0. -1.
        -12    1    5    5    0    0 -0.21934932526E+02 -0.18107133334E+00  0.83741771432E+02  0.86567074193E+02  0.00000000000E+00 0.  1.
          5    1    4    4  501    0 -0.32210312817E+02 -0.72261207244E+01  0.82259673081E+01  0.34276230987E+02  0.41800000000E+01 0. -1.
         -5    1    4    4    0  501  0.81808290888E+02  0.63775770826E+02  0.13411367402E+03  0.16959921981E+03  0.41800000000E+01 0. -1.
</event>
<event>
11    1  0.8551154E-009  0.1269174E+03  0.7561462E-02  0.1123116E+00
         22   -1    0    0    0    0  0.00000000000E+00  0.00000000000E+00  0.13038225445E+04  0.13038225445E+04  0.00000000000E+00 0. -1.
         22   -1    0    0    0    0 -0.00000000000E+00 -0.00000000000E+00 -0.13692952143E+03  0.13692952143E+03  0.00000000000E+00 0. -1.
        -24    2    1    2    0    0  0.17023285022E+02 -0.22783782366E+02 -0.10895739597E+03  0.13842498188E+03  0.80503841520E+02 0.  0.
         25    2    1    2    0    0 -0.34088859437E+02  0.11307327002E+02  0.38000611511E+03  0.40167450519E+03  0.12509138508E+03 0.  0.
         24    2    1    2    0    0  0.17065574415E+02  0.11476455364E+02  0.89584430392E+03  0.90065257883E+03  0.90637233185E+02 0.  0.
        -13    1    5    5    0    0 -0.34888299599E+02 -0.65618743705E+01  0.45676039871E+03  0.45813787605E+03  0.00000000000E+00 0.  1.
         14    1    5    5    0    0  0.51953874014E+02  0.18038329735E+02  0.43908390521E+03  0.44251470278E+03  0.00000000000E+00 0. -1.
         11    1    3    3    0    0 -0.24895039844E+01  0.93527292431E+01 -0.99081282743E+02  0.99552859147E+02  0.00000000000E+00 0. -1.
        -12    1    3    3    0    0  0.19512789007E+02 -0.32136511609E+02 -0.98761132292E+01  0.38872122732E+02  0.00000000000E+00 0.  1.
          5    1    4    4  501    0 -0.76476977402E+01  0.62804962567E+02  0.26944540385E+03  0.27680543466E+03  0.41800000000E+01 0.  1.
         -5    1    4    4    0  501 -0.26441161697E+02 -0.51497635566E+02  0.11056071126E+03  0.12486907053E+03  0.41800000000E+01 0.  1.
</event>
<event>
11    1  0.8551154E-009  0.1706601E+03  0.7561462E-02  0.1077459E+00
         22   -1    0    0    0    0  0.00000000000E+00  0.00000000000E+00  0.14977450616E+03  0.14977450616E+03  0.00000000000E+00 0. -1.
         22   -1    0    0    0    0 -0.00000000000E+00 -0.00000000000E+00 -0.83840992576E+03  0.83840992576E+03  0.00000000000E+00 0.  1.
        -24    2    1    2    0    0 -0.44258449979E+02  0.61089363291E+02 -0.55935301235E+03  0.56987120482E+03  0.78655431849E+02 0.  0.
         25    2    1    2    0    0 -0.80077270208E+02 -0.51090629516E+02 -0.19511510090E+03  0.25047610408E+03  0.12508299040E+03 0.  0.
         24    2    1    2    0    0  0.12433572019E+03 -0.99987337756E+01  0.65832693655E+02  0.16783712302E+03  0.90972580032E+02 0.  0.
        -11    1    5    5    0    0  0.61248361370E+02  0.20748404429E+02  0.72725405400E+02  0.97318254441E+02  0.00000000000E+00 0.  1.
         12    1    5    5    0    0  0.63087358817E+02 -0.30747138204E+02 -0.68927117449E+01  0.70518868578E+02  0.00000000000E+00 0. -1.
         13    1    3    3    0    0  0.13875314645E+02 -0.10028999811E+02 -0.85379428065E+02  0.87078998217E+02  0.00000000000E+00 0. -1.
        -14    1    3    3    0    0 -0.58133764623E+02  0.71118363103E+02 -0.47397358428E+03  0.48279220660E+03  0.00000000000E+00 0.  1.
          5    1    4    4  501    0 -0.56413361187E+01 -0.20125915732E+02  0.14548982077E+02  0.25807410501E+02  0.41800000000E+01 0. -1.
         -5    1    4    4    0  501 -0.74435934090E+02 -0.30964713784E+02 -0.20966408298E+03  0.22466869358E+03  0.41800000000E+01 0. -1.
</event>
<event>
11    1  0.8551154E-009  0.1498758E+03  0.7561462E-02  0.1097006E+00
         22   -1    0    0    0    0  0.00000000000E+00  0.00000000000E+00  0.18175264672E+03  0.18175264672E+03  0.00000000000E+00 0. -1.
         22   -1    0    0    0    0 -0.00000000000E+00 -0.00000000000E+00 -0.90886346995E+03  0.90886346995E+03  0.00000000000E+00 0. -1.
        -24    2    1    2    0    0 -0.65654255415E+02  0.21401711206E+01 -0.74461300785E+03  0.75176380180E+03  0.79907575718E+02 0.  0.
         25    2    1    2    0    0  0.31049503941E+02  0.77167943337E+02 -0.93097911525E+02  0.17673055548E+03  0.12508998736E+03 0.  0.
         24    2    1    2    0    0  0.34604751474E+02 -0.79308114458E+02  0.11060009615E+03  0.16212175938E+03  0.81017391679E+02 0.  0.
        -11    1    5    5    0    0 -0.47997006357E+01 -0.25299308281E+02 -0.71421762970E+01  0.26722702108E+02  0.00000000000E+00 0.  1.
         12    1    5    5    0    0  0.39404452110E+02 -0.54008806176E+02  0.11774227245E+03  0.13539905728E+03  0.00000000000E+00 0. -1.
         11    1    3    3    0    0 -0.66213932649E+02 -0.28455487459E+02 -0.56243741769E+03  0.56703602043E+03  0.00000000000E+00 0. -1.
        -12    1    3    3    0    0  0.55967723409E+00  0.30595658580E+02 -0.18217559016E+03  0.18472778137E+03  0.00000000000E+00 0.  1.
          5    1    4    4  501    0  0.70372870833E+02  0.53124440336E+02 -0.95930189692E+02  0.13036341820E+03  0.41800000000E+01 0. -1.
         -5    1    4    4    0  501 -0.39323366893E+02  0.24043503001E+02  0.28322781670E+01  0.46367137285E+02  0.41800000000E+01 0. -1.
</event>
<event>
11    1  0.8551154E-009  0.1623347E+03  0.7561462E-02  0.1084902E+00
         22   -1    0    0    0    0  0.00000000000E+00  0.00000000000E+00  0.25270531263E+03  0.25270531263E+03  0.00000000000E+00 0.  1.
         22   -1    0    0    0    0 -0.00000000000E+00 -0.00000000000E+00 -0.41051373517E+03  0.41051373517E+03  0.00000000000E+00 0.  1.
         24    2    1    2    0    0 -0.53578406755E+02 -0.51336295363E+02 -0.76011964638E+02  0.13310757674E+03  0.80210643470E+02 0.  0.
         25    2    1    2    0    0  0.61715615299E+02  0.12162981930E+03 -0.26170794853E+03  0.32053259902E+03  0.12508983412E+03 0.  0.
        -24    2    1    2    0    0 -0.81372085442E+01 -0.70293523936E+02  0.17991149063E+03  0.20957887203E+03  0.80918264135E+02 0.  0.
        -11    1    3    3    0    0 -0.64195090987E+02 -0.62802565975E+02 -0.50065699216E+02  0.10281899746E+03  0.00000000000E+00 0.  1.
         12    1    3    3    0    0  0.10616684232E+02  0.11466270612E+02 -0.25946265421E+02  0.30288579285E+02  0.00000000000E+00 0. -1.
         11    1    5    5    0    0 -0.10705034634E+02 -0.20477943105E+02  0.23668247934E+00  0.23108438695E+02  0.00000000000E+00 0. -1.
        -12    1    5    5    0    0  0.25678260897E+01 -0.49815580831E+02  0.17967480815E+03  0.18647043334E+03  0.00000000000E+00 0.  1.
          5    1    4    4  501    0  0.86919266705E+02  0.57256997813E+02 -0.20892908164E+03  0.23345696880E+03  0.41800000000E+01 0. -1.
         -5    1    4    4    0  501 -0.25203651406E+02  0.64372821485E+02 -0.52778866883E+02  0.87075630228E+02  0.41800000000E+01 0. -1.
</event>
<event>
11    1  0.8551154E-009  0.1301632E+03  0.7561462E-02  0.1119069E+00
         22   -1    0    0    0    0  0.00000000000E+00  0.00000000000E+00  0.46561200794E+03  0.46561200794E+03  0.00000000000E+00 0.  1.
         22   -1    0    0    0    0 -0.00000000000E+00 -0.00000000000E+00 -0.21535983216E+03  0.21535983216E+03  0.00000000000E+00 0.  1.
        -24    2    1    2    0    0  0.33038276473E+02 -0.97207403677E+01 -0.16490082888E+03  0.18660865727E+03  0.80277562857E+02 0.  0.
         25    2    1    2    0    0 -0.49026819275E+02  0.37267863014E+02  0.11219831182E+03  0.17896838425E+03  0.12509475914E+03 0.  0.
         24    2    1    2    0    0  0.15988542802E+02 -0.27547122646E+02  0.30295469284E+03  0.31539479858E+03  0.81718147261E+02 0.  0.
        -13    1    5    5    0    0  0.11473193939E+02 -0.56526716392E+02  0.21883299186E+03  0.22630683192E+03  0.00000000000E+00 0.  1.
         14    1    5    5    0    0  0.45153488633E+01  0.28979593745E+02  0.84121700976E+02  0.89087966663E+02  0.00000000000E+00 0. -1.
         13    1    3    3    0    0 -0.73598967749E+01 -0.11019048220E+00  0.67616505106E+01  0.99950057582E+01  0.00000000000E+00 0. -1.
        -14    1    3    3    0    0  0.40398173248E+02 -0.96105498855E+01 -0.17166247939E+03  0.17661365151E+03  0.00000000000E+00 0.  1.
          5    1    4    4  501    0 -0.30877274500E+02  0.58383070136E+02  0.30506832010E+01  0.66247777525E+02  0.41800000000E+01 0.  1.
         -5    1    4    4    0  501 -0.18149544775E+02 -0.21115207122E+02  0.10914762862E+03  0.11272060673E+03  0.41800000000E+01 0.  1.
</event>
<event>
11    1  0.8551154E-009  0.1556057E+03  0.7561462E-02  0.1091285E+00
         22   -1    0    0    0    0  0.00000000000E+00  0.00000000000E+00  0.52724544054E+03  0.52724544054E+03  0.00000000000E+00 0. -1.
         22   -1    0    0    0    0 -0.00000000000E+00 -0.00000000000E+00 -0.60997273294E+03  0.60997273294E+03  0.00000000000E+00 0.  1.
         24    2    1    2    0    0  0.32039909088E+02  0.25351742841E+02 -0.54209013496E+03  0.54962605091E+03  0.80980335747E+02 0.  0.
         25    2    1    2    0    0 -0.95423506641E+02 -0.84386723966E+02  0.90706472635E+02  0.20025408913E+03  0.12508905321E+03 0.  0.
        -24    2    1    2    0    0  0.63383597554E+02  0.59034981125E+02  0.36865636992E+03  0.38733803345E+03  0.81367214785E+02 0.  0.
        -13    1    3    3    0    0  0.25454626321E+01  0.50903688930E+02 -0.34053673473E+03  0.34432968595E+03  0.00000000000E+00 0.  1.
         14    1    3    3    0    0  0.29494446456E+02 -0.25551946089E+02 -0.20155340022E+03  0.20529636495E+03  0.00000000000E+00 0. -1.
         13    1    5    5    0    0  0.69562795870E+02  0.60347466405E+02  0.36964520446E+03  0.38094405948E+03  0.00000000000E+00 0. -1.
        -14    1    5    5    0    0 -0.61791983165E+01 -0.13124852800E+01 -0.98883454124E+00  0.63939739751E+01  0.00000000000E+00 0.  1.
          5    1    4    4  501    0 -0.73048762835E+02  0.91074971921E+01  0.95000435565E+01  0.74342393588E+02  0.41800000000E+01 0.  1.
         -5    1    4    4    0  501 -0.22374743807E+02 -0.93494221158E+02  0.81206429078E+02  0.12591169554E+03  0.41800000000E+01 0.  1.
</event>
<event>
11    1  0.8551154E-009  0.1841248E+03  0.7561462E-02  0.1066354E+00
         22   -1    0    0    0    0  0.00000000000E+00  0.00000000000E+00  0.27677815628E+03  0.27677815628E+03  0.00000000000E+00 0.  1.
         22   -1    0    0    0    0 -0.00000000000E+00 -0.00000000000E+00 -0.31865298607E+03  0.31865298607E+03  0.00000000000E+00 0.  1.
        -24    2    1    2    0    0 -0.42698322794E+02 -0.40019503984E+02 -0.92442001218E+02  0.13626094840E+03  0.81220779362E+02 0.  0.
         25    2    1    2    0    0  0.16631306735E+03  0.70897561409E+02 -0.10429746871E+03  0.24333545050E+03  0.12509068273E+03 0.  0.
         24    2    1    2    0    0 -0.12361474455E+03 -0.30878057424E+02  0.15486464014E+03  0.21583474346E+03  0.79796743156E+02 0.  0.
        -13    1    5    5    0    0 -0.91594319959E+02 -0.31980515767E+02  0.56246289877E+02  0.11214240038E+03  0.00000000000E+00 0.  1.
         14    1    5    5    0    0 -0.32020424592E+02  0.11024583433E+01  0.98618350263E+02  0.10369234308E+03  0.00000000000E+00 0. -1.
         13    1    3    3    0    0  0.13413073502E+02  0.13821454903E+02 -0.33655109455E+02  0.38776404537E+02  0.00000000000E+00 0. -1.
        -14    1    3    3    0    0 -0.56111396296E+02 -0.53840958888E+02 -0.58786891763E+02  0.97484543859E+02  0.00000000000E+00 0.  1.
          5    1    4    4  501    0  0.14785998468E+03  0.10115776693E+03 -0.10489167066E+03  0.20764200889E+03  0.41800000000E+01 0.  1.
         -5    1    4    4    0  501  0.18453082663E+02 -0.30260205523E+02  0.59420194996E+00  0.35693441611E+02  0.41800000000E+01 0.  1.
</event>
<event>
11    1  0.8551154E-009  0.1852907E+03  0.7561462E-02  0.1065442E+00
         22   -1    0    0    0    0  0.00000000000E+00  0.00000000000E+00  0.75305400877E+03  0.75305400877E+03  0.00000000000E+00 0.  1.
         22   -1    0    0    0    0 -0.00000000000E+00 -0.00000000000E+00 -0.36563876018E+03  0.36563876018E+03  0.00000000000E+00 0.  1.
         24    2    1    2    0    0  0.11471918618E+03  0.19151325593E+02 -0.13988132085E+03  0.19962944747E+03  0.82206249302E+02 0.  0.
         25    2    1    2    0    0 -0.21794721114E+03 -0.10101818030E+03 -0.88045840893E+02  0.28478846101E+03  0.12508692110E+03 0.  0.
        -24    2    1    2    0    0  0.10322802496E+03  0.81866854707E+02  0.61534241033E+03  0.63427486047E+03  0.79373230000E+02 0.  0.
        -11    1    3    3    0    0  0.11646669274E+03  0.36697906249E+02 -0.10718055860E+03  0.16247737992E+03  0.00000000000E+00 0.  1.
         12    1    3    3    0    0 -0.17475065659E+01 -0.17546580657E+02 -0.32700762242E+02  0.37152067549E+02  0.00000000000E+00 0. -1.
         13    1    5    5    0    0  0.25113668050E+02 -0.15068784937E+02  0.12239591528E+03  0.12585120055E+03  0.00000000000E+00 0. -1.
        -14    1    5    5    0    0  0.78114356910E+02  0.96935639644E+02  0.49294649505E+03  0.50842365993E+03  0.00000000000E+00 0.  1.
          5    1    4    4  501    0 -0.14677954197E+03 -0.47019533452E+02  0.69223313667E+01  0.15433878819E+03  0.41800000000E+01 0. -1.
         -5    1    4    4    0  501 -0.71167669165E+02 -0.53998646848E+02 -0.94968172259E+02  0.13044967282E+03  0.41800000000E+01 0. -1.
</event>
<event>
11    1  0.8551154E-009  0.1410421E+03  0.7561462E-02  0.1106400E+00
         22   -1    0    0    0    0  0.00000000000E+00  0.00000000000E+00  0.10254815829E+03  0.10254815829E+03  0.00000000000E+00 0. -1.
         22   -1    0    0    0    0 -0.00000000000E+00 -0.00000000000E+00 -0.88278265286E+03  0.88278265286E+03  0.00000000000E+00 0. -1.
         24    2    1    2    0    0  0.20389041814E+02  0.38999124809E+02 -0.38216720874E+03  0.39428073227E+03  0.86422656986E+02 0.  0.
         25    2    1    2    0    0 -0.73038638592E+02 -0.72926427945E+02 -0.44799984330E+03  0.47645037104E+03  0.12509272501E+03 0.  0.
        -24    2    1    2    0    0  0.52649596778E+02  0.33927303136E+02  0.49932557481E+02  0.11459970784E+03  0.81956029677E+02 0.  0.
        -11    1    3    3    0    0 -0.22487576611E+02 -0.10164735002E+02 -0.18412025916E+03  0.18576674292E+03  0.00000000000E+00 0.  1.
         12    1    3    3    0    0  0.42876618425E+02  0.49163859811E+02 -0.19804694958E+03  0.20851398935E+03  0.00000000000E+00 0. -1.
         13    1    5    5    0    0  0.66564466758E+02  0.43708384265E+02  0.55085083793E+02  0.96827772599E+02  0.00000000000E+00 0. -1.
        -14    1    5    5    0    0 -0.13914869981E+02 -0.97810811295E+01 -0.51525263126E+01  0.17771935236E+02  0.00000000000E+00 0.  1.
          5    1    4    4  501    0 -0.10593987691E+03 -0.70821705657E+02 -0.37884713618E+03  0.39972690241E+03  0.41800000000E+01 0. -1.
         -5    1    4    4    0  501  0.32901238316E+02 -0.21047222882E+01 -0.69152707116E+02  0.76723468640E+02  0.41800000000E+01 0. -1.
</event>
<event>
11    1  0.8551154E-009  0.1472644E+03  0.7561462E-02  0.1099707E+00
         22   -1    0    0    0    0  0.00000000000E+00  0.00000000000E+00  0.61480399621E+02  0.61480399621E+02  0.00000000000E+00 0.  1.
         22   -1    0    0    0    0 -0.00000000000E+00 -0.00000000000E+00 -0.21787231163E+04  0.21787231163E+04  0.00000000000E+00 0. -1.
        -24    2    1    2    0    0 -0.52217776185E+02  0.55819465463E+02 -0.15024872455E+04  0.15064550665E+04  0.78079674587E+02 0.  0.
         25    2    1    2    0    0  0.94104804486E+02 -0.23141722238E+02 -0.61730620458E+03  0.63726322007E+03  0.12508480283E+03 0.  0.
         24    2    1    2    0    0 -0.41887028301E+02 -0.32677743225E+02  0.25507333944E+01  0.96485229374E+02  0.80501771436E+02 0.  0.
        -11    1    5    5    0    0 -0.61527274446E+02 -0.41188023746E+01  0.39984373186E+01  0.61794478190E+02  0.00000000000E+00 0.  1.
         12    1    5    5    0    0  0.19640246145E+02 -0.28558940850E+02 -0.14477039242E+01  0.34690751185E+02  0.00000000000E+00 0. -1.
         11    1    3    3    0    0 -0.78274063275E+01  0.60994400633E+02 -0.10389824388E+04  0.10408006981E+04  0.00000000000E+00 0. -1.
        -12    1    3    3    0    0 -0.44390369857E+02 -0.51749351703E+01 -0.46350480676E+03  0.46565436837E+03  0.00000000000E+00 0.  1.
          5    1    4    4  501    0  0.41423576409E+02  0.44758991774E+02 -0.37903149377E+03  0.38392919359E+03  0.41800000000E+01 0.  1.
         -5    1    4    4    0  501  0.52681228077E+02 -0.67900714011E+02 -0.23827471082E+03  0.25333402648E+03  0.41800000000E+01 0.  1.
</event>
<event>
11    1  0.8551154E-009  0.2218218E+03  0.7561462E-02  0.1040082E+00
         22   -1    0    0    0    0  0.00000000000E+00  0.00000000000E+00  0.91299034219E+03  0.91299034219E+03  0.00000000000E+00 0.  1.
         22   -1    0    0    0    0 -0.00000000000E+00 -0.00000000000E+00 -0.15002579790E+03  0.15002579790E+03  0.00000000000E+00 0. -1.
         24    2    1    2    0    0  0.50922166284E+02  0.51306464190E+02 -0.15400116297E+02  0.10614350317E+03  0.76183065019E+02 0.  0.
         25    2    1    2    0    0 -0.99358654760E+02 -0.21797462643E+03  0.16495605325E+03  0.31661214548E+03  0.12509065161E+03 0.  0.
        -24    2    1    2    0    0  0.48436488476E+02  0.16666816224E+03  0.61340860734E+03  0.64026049144E+03  0.59489558983E+02 0.  0.
        -13    1    3    3    0    0  0.42964672462E+01  0.27582122823E+02  0.26976075796E+02  0.38819348211E+02  0.00000000000E+00 0.  1.
         14    1    3    3    0    0  0.46625699038E+02  0.23724341367E+02 -0.42376192093E+02  0.67324154955E+02  0.00000000000E+00 0. -1.
         13    1    5    5    0    0 -0.10356465340E+02  0.66446182121E+02  0.21901829624E+03  0.22910994212E+03  0.00000000000E+00 0. -1.
        -14    1    5    5    0    0  0.58792953816E+02  0.10022198012E+03  0.39439031110E+03  0.41115054932E+03  0.00000000000E+00 0.  1.
          5    1    4    4  501    0 -0.34635083707E+02 -0.14812466249E+03  0.36218861098E+02  0.15642820385E+03  0.41800000000E+01 0.  1.
         -5    1    4    4    0  501 -0.64723571053E+02 -0.69849963933E+02  0.12873719215E+03  0.16018394162E+03  0.41800000000E+01 0.  1.
</event>
<event>
11    1  0.8551154E-009  0.1566299E+03  0.7561462E-02  0.1090291E+00
         22   -1    0    0    0    0  0.00000000000E+00  0.00000000000E+00  0.83714377734E+02  0.83714377734E+02  0.00000000000E+00 0.  1.
         22   -1    0    0    0    0 -0.00000000000E+00 -0.00000000000E+00 -0.24906240663E+04  0.24906240663E+04  0.00000000000E+00 0. -1.
         24    2    1    2    0    0  0.33198566871E+01 -0.19637621759E+02 -0.19383208367E+04  0.19400684849E+04  0.79883681041E+02 0.  0.
         25    2    1    2    0    0  0.23502432301E+02 -0.72660835010E+02 -0.48853843228E+03  0.51005122435E+03  0.12510191997E+03 0.  0.
        -24    2    1    2    0    0 -0.26822288988E+02  0.92298456768E+02  0.19949580392E+02  0.12421873480E+03  0.76117461920E+02 0.  0.
        -13    1    3    3    0    0 -0.19745064953E+02  0.22859147426E+02 -0.48227088141E+03  0.48321590543E+03  0.00000000000E+00 0.  1.
         14    1    3    3    0    0  0.23064921640E+02 -0.42496769184E+02 -0.14560499553E+04  0.14568525795E+04  0.00000000000E+00 0. -1.
         11    1    5    5    0    0  0.21165472233E+02  0.24907950143E+02 -0.12988962624E+02  0.35172380432E+02  0.00000000000E+00 0. -1.
        -12    1    5    5    0    0 -0.47987761222E+02  0.67390506625E+02  0.32938543016E+02  0.89046354368E+02  0.00000000000E+00 0.  1.
          5    1    4    4  501    0  0.14523859458E+01  0.28219934786E+02 -0.36495771768E+02  0.46345311534E+02  0.41800000000E+01 0. -1.
         -5    1    4    4    0  501  0.22050046356E+02 -0.10088076980E+03 -0.45204266051E+03  0.46370591281E+03  0.41800000000E+01 0. -1.
</event>
<event>
11    1  0.8551154E-009  0.6863123E+03  0.7561462E-02  0.9052722E-01
         22   -1    0    0    0    0  0.00000000000E+00  0.00000000000E+00  0.80854838486E+02  0.80854838486E+02  0.00000000000E+00 0. -1.
         22   -1    0    0    0    0 -0.00000000000E+00 -0.00000000000E+00 -0.14563896762E+04  0.14563896762E+04  0.00000000000E+00 0. -1.
         24    2    1    2    0    0 -0.11555603341E+03  0.56207677605E+02 -0.54113537061E+03  0.56166217805E+03  0.78258629190E+02 0.  0.
         25    2    1    2    0    0  0.20025459708E+03 -0.19731178352E+03 -0.39517907440E+03  0.50084768829E+03  0.12509221579E+03 0.  0.
        -24    2    1    2    0    0 -0.84698563676E+02  0.14110410592E+03 -0.43922039273E+03  0.47473464838E+03  0.73309055278E+02 0.  0.
        -11    1    3    3    0    0 -0.42856198787E+02  0.63569710350E+02 -0.30438693858E+03  0.31389356513E+03  0.00000000000E+00 0.  1.
         12    1    3    3    0    0 -0.72699834621E+02 -0.73620327454E+01 -0.23674843203E+03  0.24776861292E+03  0.00000000000E+00 0. -1.
         13    1    5    5    0    0 -0.80948168912E+02  0.11985085856E+03 -0.42488636805E+03  0.44882653677E+03  0.00000000000E+00 0. -1.
        -14    1    5    5    0    0 -0.37503947639E+01  0.21253247353E+02 -0.14334024681E+02  0.25908111616E+02  0.00000000000E+00 0.  1.
          5    1    4    4  501    0  0.16339583280E+03 -0.17406835465E+03 -0.38927849610E+03  0.45667626410E+03  0.41800000000E+01 0. -1.
         -5    1    4    4    0  501  0.36858764288E+02 -0.23243428871E+02 -0.59005782986E+01  0.44171424188E+02  0.41800000000E+01 0. -1.
</event>
<event>
11    1  0.8551154E-009  0.1578218E+03  0.7561462E-02  0.1089144E+00
         22   -1    0    0    0    0  0.00000000000E+00  0.00000000000E+00  0.19748284657E+03  0.19748284657E+03  0.00000000000E+00 0.  1.
         22   -1    0    0    0    0 -0.00000000000E+00 -0.00000000000E+00 -0.16639941846E+04  0.16639941846E+04  0.00000000000E+00 0.  1.
        -24    2    1    2    0    0 -0.76453963295E+02 -0.54358098975E+02 -0.13036549145E+04  0.13095811729E+04  0.81772249980E+02 0.  0.
         25    2    1    2    0    0  0.89817195431E+02  0.68532546276E+02 -0.32692639668E+03  0.36782149573E+03  0.12509174786E+03 0.  0.
         24    2    1    2    0    0 -0.13363232135E+02 -0.14174447300E+02  0.16406997313E+03  0.18407436257E+03  0.81147544284E+02 0.  0.
        -13    1    5    5    0    0 -0.91431158210E+01 -0.42012551024E+02  0.14180117914E+03  0.14817633217E+03  0.00000000000E+00 0.  1.
         14    1    5    5    0    0 -0.42201163142E+01  0.27838103724E+02  0.22268793988E+02  0.35898030396E+02  0.00000000000E+00 0. -1.
         11    1    3    3    0    0 -0.12736843090E+02 -0.26415619893E+02 -0.10821187954E+03  0.11211522207E+03  0.00000000000E+00 0. -1.
        -12    1    3    3    0    0 -0.63717120206E+02 -0.27942479082E+02 -0.11954430350E+04  0.11974659508E+04  0.00000000000E+00 0.  1.
          5    1    4    4  501    0  0.98260569042E+02  0.96210544810E+02 -0.24727487093E+03  0.28297339549E+03  0.41800000000E+01 0. -1.
         -5    1    4    4    0  501 -0.84433736109E+01 -0.27677998535E+02 -0.79651525750E+02  0.84848100244E+02  0.41800000000E+01 0. -1.
</event>
<event>
11    1  0.8551154E-009  0.1547032E+03  0.7561462E-02  0.1092168E+00
         22   -1    0    0    0    0  0.00000000000E+00  0.00000000000E+00  0.97384654096E+03  0.97384654096E+03  0.00000000000E+00 0.  1.
         22   -1    0    0    0    0 -0.00000000000E+00 -0.00000000000E+00 -0.40638650249E+03  0.40638650249E+03  0.00000000000E+00 0.  1.
        -24    2    1    2    0    0 -0.85909702152E+02 -0.75201951444E+01 -0.26376316923E+03  0.28902607165E+03  0.80796227565E+02 0.  0.
         25    2    1    2    0    0  0.11230722629E+03 -0.43459819923E+00 -0.72845818845E+02  0.18321231187E+03  0.12508851245E+03 0.  0.
         24    2    1    2    0    0 -0.26397524134E+02  0.79547933437E+01  0.90406902654E+03  0.90799465993E+03  0.79708153290E+02 0.  0.
        -11    1    5    5    0    0 -0.35273828851E+02  0.21631396951E+01  0.88825324939E+03  0.88895599285E+03  0.00000000000E+00 0.  1.
         12    1    5    5    0    0  0.88763047167E+01  0.57916536486E+01  0.15815777154E+02  0.19038667085E+02  0.00000000000E+00 0. -1.
         13    1    3    3    0    0 -0.48238501356E+02  0.29234105926E+02 -0.80076539842E+02  0.97948140337E+02  0.00000000000E+00 0. -1.
        -14    1    3    3    0    0 -0.37671200796E+02 -0.36754301070E+02 -0.18368662939E+03  0.19107793131E+03  0.00000000000E+00 0.  1.
          5    1    4    4  501    0 -0.44461506497E+01  0.42571853144E+02 -0.12021604400E+02  0.44655596604E+02  0.41800000000E+01 0.  1.
         -5    1    4    4    0  501  0.11675337694E+03 -0.43006451343E+02 -0.60824214445E+02  0.13855671527E+03  0.41800000000E+01 0.  1.
</event>
<event>
11    1  0.8551154E-009  0.1336696E+03  0.7561462E-02  0.1114841E+00
         22   -1    0    0    0    0  0.00000000000E+00  0.00000000000E+00  0.82559889594E+03  0.82559889594E+03  0.00000000000E+00 0.  1.
         22   -1    0    0    0    0 -0.00000000000E+00 -0.00000000000E+00 -0.17035122979E+03  0.17035122979E+03  0.00000000000E+00 0.  1.
         24    2    1    2    0    0 -0.97958651146E+01 -0.49554535090E-01 -0.13727436969E+03  0.15966970154E+03  0.80958011260E+02 0.  0.
         25    2    1    2    0    0 -0.29807176097E+02 -0.28146148610E+02  0.22594860204E+03  0.26149635303E+03  0.12508756316E+03 0.  0.
        -24    2    1    2    0    0  0.39603041212E+02  0.28195703145E+02  0.56657343380E+03  0.57478407116E+03  0.83713045690E+02 0.  0.
        -11    1    3    3    0    0  0.32406015574E+02 -0.14924450147E+02 -0.47980018562E+02  0.59791063201E+02  0.00000000000E+00 0.  1.
         12    1    3    3    0    0 -0.42201880688E+02  0.14874895612E+02 -0.89294351130E+02  0.99878638341E+02  0.00000000000E+00 0. -1.
         11    1    5    5    0    0  0.21321571666E+02 -0.29416133235E+02  0.21988533553E+03  0.22286650510E+03  0.00000000000E+00 0. -1.
        -12    1    5    5    0    0  0.18281469546E+02  0.57611836379E+02  0.34668809827E+03  0.35191756606E+03  0.00000000000E+00 0.  1.
          5    1    4    4  501    0  0.13326033668E+02  0.52023174043E+01 -0.10870094759E+02  0.18446643049E+02  0.41800000000E+01 0. -1.
         -5    1    4    4    0  501 -0.43133209765E+02 -0.33348466014E+02  0.23681869680E+03  0.24304970998E+03  0.41800000000E+01 0. -1.
</event>
<event>
11    1  0.8551154E-009  0.2980647E+03  0.7561462E-02  0.1001014E+00
         22   -1    0    0    0    0  0.00000000000E+00  0.00000000000E+00  0.45308437105E+03  0.45308437105E+03  0.00000000000E+00 0.  1.
         22   -1    0    0    0    0 -0.00000000000E+00 -0.00000000000E+00 -0.39413687514E+03  0.39413687514E+03  0.00000000000E+00 0. -1.
         24    2    1    2    0    0 -0.20376394071E+03  0.17940682876E+03 -0.33826447993E+02  0.28425432689E+03  0.77134557953E+02 0.  0.
         25    2    1    2    0    0  0.46979176007E+02 -0.30824161276E+03  0.40767224339E+02  0.33842277439E+03  0.12509225726E+03 0.  0.
        -24    2    1    2    0    0  0.15678476471E+03  0.12883478400E+03  0.52006719566E+02  0.22454414492E+03  0.80842501968E+02 0.  0.
        -13    1    3    3    0    0 -0.77918971879E+02  0.10519791248E+03 -0.43206888649E+02  0.13785790582E+03  0.00000000000E+00 0.  1.
         14    1    3    3    0    0 -0.12584496883E+03  0.74208916277E+02  0.93804406566E+01  0.14639642107E+03  0.00000000000E+00 0. -1.
         13    1    5    5    0    0  0.26807047547E+02  0.69072908482E+02  0.62915840733E+01  0.74359051329E+02  0.00000000000E+00 0. -1.
        -14    1    5    5    0    0  0.12997771716E+03  0.59761875521E+02  0.45715135492E+02  0.15018509359E+03  0.00000000000E+00 0.  1.
          5    1    4    4  501    0  0.55347640857E+02 -0.15380738099E+03  0.75106781507E+02  0.17994047022E+03  0.41800000000E+01 0.  1.
         -5    1    4    4    0  501 -0.83684648501E+01 -0.15443423177E+03 -0.34339557168E+02  0.15848230417E+03  0.41800000000E+01 0.  1.
</event>
<event>
11    1  0.8551154E-009  0.1913795E+03  0.7561462E-02  0.1060793E+00
         22   -1    0    0    0    0  0.00000000000E+00  0.00000000000E+00  0.38401081749E+03  0.38401081749E+03  0.00000000000E+00 0. -1.
         22   -1    0    0    0    0 -0.00000000000E+00 -0.00000000000E+00 -0.35463412898E+03  0.35463412898E+03  0.00000000000E+00 0.  1.
         24    2    1    2    0    0 -0.10124960628E+03 -0.10120925448E+03 -0.23061679093E+03  0.28308497973E+03  0.80362961126E+02 0.  0.
         25    2    1    2    0    0  0.72486982523E+02  0.14061478608E+03  0.25791174232E+02  0.20332182572E+03  0.12509076484E+03 0.  0.
        -24    2    1    2    0    0  0.28762623753E+02 -0.39405531595E+02  0.23420230521E+03  0.25223814102E+03  0.79957961283E+02 0.  0.
        -11    1    3    3    0    0 -0.10264076959E+03 -0.76906418979E+02 -0.14273085977E+03  0.19189013313E+03  0.00000000000E+00 0.  1.
         12    1    3    3    0    0  0.13911633142E+01 -0.24302835506E+02 -0.87885931160E+02  0.91194846592E+02  0.00000000000E+00 0. -1.
         11    1    5    5    0    0 -0.18157631604E+02 -0.53424588106E+01  0.14244434454E+03  0.14369632126E+03  0.00000000000E+00 0. -1.
        -12    1    5    5    0    0  0.46920255358E+02 -0.34063072784E+02  0.91757960671E+02  0.10854181976E+03  0.00000000000E+00 0.  1.
          5    1    4    4  501    0  0.21249333034E+02  0.10005890094E+03 -0.40545026267E+02  0.11011216721E+03  0.41800000000E+01 0. -1.
         -5    1    4    4    0  501  0.51237649489E+02  0.40555885140E+02  0.66336200499E+02  0.93209658519E+02  0.41800000000E+01 0. -1.
</event>
<event>
11    1  0.8551154E-009  0.1403443E+03  0.7561462E-02  0.1107175E+00
         22   -1    0    0    0    0  0.00000000000E+00  0.00000000000E+00  0.14098558692E+04  0.14098558692E+04  0.00000000000E+00 0. -1.
         22   -1    0    0    0    0 -0.00000000000E+00 -0.00000000000E+00 -0.13266182108E+04  0.13266182108E+04  0.00000000000E+00 0. -1.
         24    2    1    2    0    0  0.15548643760E+02  0.29894275243E+02 -0.13128871678E+04  0.13148553447E+04  0.63532936672E+02 0.  0.
         25    2    1    2    0    0 -0.54670235051E+02 -0.69671935568E+02  0.59792230820E+03  0.61725409366E+03  0.12509402981E+03 0.  0.
        -24    2    1    2    0    0  0.39121591291E+02  0.39777660325E+02  0.79820251798E+03  0.80436464177E+03  0.82234153863E+02 0.  0.
        -11    1    3    3    0    0 -0.33417763734E+01  0.43010279943E+02 -0.57766819312E+03  0.57927678444E+03  0.00000000000E+00 0.  1.
         12    1    3    3    0    0  0.18890420133E+02 -0.13116004700E+02 -0.73521897466E+03  0.73557856022E+03  0.00000000000E+00 0. -1.
         11    1    5    5    0    0  0.57460765665E+02  0.51277154142E+02  0.65983607848E+03  0.66431523887E+03  0.00000000000E+00 0. -1.
        -12    1    5    5    0    0 -0.18339174374E+02 -0.11499493817E+02  0.13836643949E+03  0.14004940290E+03  0.00000000000E+00 0.  1.
          5    1    4    4  501    0 -0.12975922009E+01  0.34671483705E+02  0.10909642083E+03  0.11455695948E+03  0.41800000000E+01 0. -1.
         -5    1    4    4    0  501 -0.53372642850E+02 -0.10434341927E+03  0.48882588737E+03  0.50269713418E+03  0.41800000000E+01 0. -1.
</event>
<event>
11    1  0.8551154E-009  0.1353325E+03  0.7561462E-02  0.1112885E+00
         22   -1    0    0    0    0  0.00000000000E+00  0.00000000000E+00  0.17039073078E+04  0.17039073078E+04  0.00000000000E+00 0. -1.
         22   -1    0    0    0    0 -0.00000000000E+00 -0.00000000000E+00 -0.53974310257E+03  0.53974310257E+03  0.00000000000E+00 0. -1.
        -24    2    1    2    0    0 -0.12762416134E+02  0.31320647080E+01 -0.43972195125E+03  0.44426623535E+03  0.62003260917E+02 0.  0.
         25    2    1    2    0    0 -0.33377138566E+01 -0.52218282022E+02 -0.48645483456E+02  0.14405530614E+03  0.12509060259E+03 0.  0.
         24    2    1    2    0    0  0.16100129991E+02  0.49086217314E+02  0.16525316399E+04  0.16553288689E+04  0.81142912637E+02 0.  0.
        -11    1    5    5    0    0  0.36439328360E+02  0.51144243628E+02  0.76869377189E+03  0.77125460987E+03  0.00000000000E+00 0.  1.
         12    1    5    5    0    0 -0.20339198369E+02 -0.20580263147E+01  0.88383786801E+03  0.88407425898E+03  0.00000000000E+00 0. -1.
         13    1    3    3    0    0  0.35802170783E+01  0.72021908626E+01 -0.41019434893E+03  0.41027319362E+03  0.00000000000E+00 0. -1.
        -14    1    3    3    0    0 -0.16342633213E+02 -0.40701261546E+01 -0.29527602314E+02  0.33993041724E+02  0.00000000000E+00 0.  1.
          5    1    4    4  501    0  0.44443837818E+01 -0.87451443274E+02 -0.57584644257E+01  0.87852944120E+02  0.41800000000E+01 0. -1.
         -5    1    4    4    0  501 -0.77820976385E+01  0.35233161253E+02 -0.42887019030E+02  0.56202362022E+02  0.41800000000E+01 0. -1.
</event>
<event>
11    1  0.8551154E-009  0.1459250E+03  0.7561462E-02  0.1101117E+00
         22   -1    0    0    0    0  0.00000000000E+00  0.00000000000E+00  0.30186697075E+03  0.30186697075E+03  0.00000000000E+00 0.  1.
         22   -1    0    0    0    0 -0.00000000000E+00 -0.00000000000E+00 -0.52496779518E+03  0.52496779518E+03  0.00000000000E+00 0. -1.
        -24    2    1    2    0    0 -0.68921218144E+02  0.34641137056E+02 -0.38158903495E+03  0.39794045958E+03  0.82439523808E+02 0.  0.
         25    2    1    2    0    0  0.49194369492E+02 -0.46874705650E+02 -0.88902524773E+02  0.16783991130E+03  0.12509697397E+03 0.  0.
         24    2    1    2    0    0  0.19726848652E+02  0.12233568594E+02  0.24739073530E+03  0.26105439505E+03  0.80052560899E+02 0.  0.
        -11    1    5    5    0    0 -0.21811625200E+02 -0.15721948615E+02  0.14008633194E+03  0.14264328606E+03  0.00000000000E+00 0.  1.
         12    1    5    5    0    0  0.41538473852E+02  0.27955517208E+02  0.10730440336E+03  0.11841110899E+03  0.00000000000E+00 0. -1.
         11    1    3    3    0    0 -0.11835903042E+02  0.17599920611E+02 -0.27512708740E+03  0.27594340004E+03  0.00000000000E+00 0. -1.
        -12    1    3    3    0    0 -0.57085315102E+02  0.17041216445E+02 -0.10646194755E+03  0.12199705953E+03  0.00000000000E+00 0.  1.
          5    1    4    4  501    0  0.90788632715E+02 -0.21703919551E+02 -0.61698331967E+02  0.11197228461E+03  0.41800000000E+01 0.  1.
         -5    1    4    4    0  501 -0.41594263223E+02 -0.25170786099E+02 -0.27204192806E+02  0.55867626691E+02  0.41800000000E+01 0.  1.
</event>
<event>
11    1  0.8551154E-009  0.1379677E+03  0.7561462E-02  0.1109849E+00
         22   -1    0    0    0    0  0.00000000000E+00  0.00000000000E+00  0.15922671053E+03  0.15922671053E+03  0.00000000000E+00 0. -1.
         22   -1    0    0    0    0 -0.00000000000E+00 -0.00000000000E+00 -0.50685016054E+03  0.50685016054E+03  0.00000000000E+00 0.  1.
         24    2    1    2    0    0  0.56127681879E+02  0.43473411950E+02 -0.31027449366E+03  0.32890756349E+03  0.82883470520E+02 0.  0.
         25    2    1    2    0    0 -0.23113809553E+02 -0.11213368179E+02 -0.14563332571E+03  0.19369213732E+03  0.12509033009E+03 0.  0.
        -24    2    1    2    0    0 -0.33013872326E+02 -0.32260043771E+02  0.10828436936E+03  0.14347717027E+03  0.82033941456E+02 0.  0.
        -11    1    3    3    0    0  0.20788452315E+02 -0.28229491730E+01 -0.22299312925E+03  0.22397782141E+03  0.00000000000E+00 0.  1.
         12    1    3    3    0    0  0.35339229564E+02  0.46296361123E+02 -0.87281364412E+02  0.10492974208E+03  0.00000000000E+00 0. -1.
         13    1    5    5    0    0  0.50074304052E+01 -0.49127399249E+02  0.76816979761E+02  0.91320447304E+02  0.00000000000E+00 0. -1.
        -14    1    5    5    0    0 -0.38021302732E+02  0.16867355478E+02  0.31467389596E+02  0.52156722963E+02  0.00000000000E+00 0.  1.
          5    1    4    4  501    0 -0.27034659716E+02  0.33731439229E+02 -0.24364538494E+01  0.43498178419E+02  0.41800000000E+01 0. -1.
         -5    1    4    4    0  501  0.39208501629E+01 -0.44944807408E+02 -0.14319687186E+03  0.15019395890E+03  0.41800000000E+01 0. -1.
</event>
<event>
11    1  0.8551154E-009  0.1169276E+04  0.7561462E-02  0.8532820E-01
         22   -1    0    0    0    0  0.00000000000E+00  0.00000000000E+00  0.14913079295E+04  0.14913079295E+04  0.00000000000E+00 0. -1.
         22   -1    0    0    0    0 -0.00000000000E+00 -0.00000000000E+00 -0.16489562380E+04  0.16489562380E+04  0.00000000000E+00 0. -1.
        -24    2    1    2    0    0 -0.11521535744E+04 -0.10142523717E+03 -0.10542941378E+04  0.15671021235E+04  0.80796033014E+02 0.  0.
         25    2    1    2    0    0  0.11805364575E+04  0.14651350142E+03  0.82232031601E+03  0.14515473882E+04  0.12508630759E+03 0.  0.
         24    2    1    2    0    0 -0.28382883139E+02 -0.45088264249E+02  0.74325513312E+02  0.12161465584E+03  0.80170461878E+02 0.  0.
        -13    1    5    5    0    0 -0.27181975016E+02  0.14162280719E+02  0.47576920013E+02  0.56594993408E+02  0.00000000000E+00 0.  1.
         14    1    5    5    0    0 -0.12009081231E+01 -0.59250544968E+02  0.26748593299E+02  0.65019662432E+02  0.00000000000E+00 0. -1.
         11    1    3    3    0    0 -0.36587286765E+03  0.50323688655E+01 -0.34051293048E+03  0.49983730938E+03  0.00000000000E+00 0. -1.
        -12    1    3    3    0    0 -0.78628070671E+03 -0.10645760603E+03 -0.71378120732E+03  0.10672648142E+04  0.00000000000E+00 0.  1.
          5    1    4    4  501    0  0.18158147068E+03  0.17310499427E+02  0.18351884872E+03  0.25878200115E+03  0.41800000000E+01 0.  1.
         -5    1    4    4    0  501  0.99895498682E+03  0.12920300199E+03  0.63880146729E+03  0.11927653870E+04  0.41800000000E+01 0.  1.
</event>
<event>
11    1  0.8551154E-009  0.3410858E+03  0.7561462E-02  0.9841612E-01
         22   -1    0    0    0    0  0.00000000000E+00  0.00000000000E+00  0.24591057851E+04  0.24591057851E+04  0.00000000000E+00 0.  1.
         22   -1    0    0    0    0 -0.00000000000E+00 -0.00000000000E+00 -0.18978245176E+04  0.18978245176E+04  0.00000000000E+00 0. -1.
        -24    2    1    2    0    0  0.19991442039E+03  0.23823260543E+03 -0.14231911112E+04  0.14583345046E+04  0.67424317621E+02 0.  0.
         25    2    1    2    0    0 -0.23248652372E+03 -0.25354679938E+03 -0.38286472199E+03  0.52968627787E+03  0.12508474903E+03 0.  0.
         24    2    1    2    0    0  0.32572103324E+02  0.15314193943E+02  0.23673371007E+04  0.23689095202E+04  0.78434048953E+02 0.  0.
        -11    1    5    5    0    0  0.26883914970E+02  0.21690954856E+02  0.23402847783E+04  0.23405396997E+04  0.00000000000E+00 0.  1.
         12    1    5    5    0    0  0.56881883539E+01 -0.63767609127E+01  0.27052322456E+02  0.28369820527E+02  0.00000000000E+00 0. -1.
         13    1    3    3    0    0  0.11955808563E+03  0.17114461153E+03 -0.82194586895E+03  0.84804458926E+03  0.00000000000E+00 0. -1.
        -14    1    3    3    0    0  0.80356334765E+02  0.67087993900E+02 -0.60124524224E+03  0.61028991535E+03  0.00000000000E+00 0.  1.
          5    1    4    4  501    0 -0.22013466581E+03 -0.24464636526E+03 -0.30003247885E+03  0.44536285868E+03  0.41800000000E+01 0. -1.
         -5    1    4    4    0  501 -0.12351857910E+02 -0.89004341130E+01 -0.82832243139E+02  0.84323419195E+02  0.41800000000E+01 0. -1.
</event>
<event>
11    1  0.8551154E-009  0.1405917E+03  0.7561462E-02  0.1106899E+00
         22   -1    0    0    0    0  0.00000000000E+00  0.00000000000E+00  0.87296399706E+03  0.87296399706E+03  0.00000000000E+00 0. -1.
         22   -1    0    0    0    0 -0.00000000000E+00 -0.00000000000E+00 -0.44536239820E+03  0.44536239820E+03  0.00000000000E+00 0. -1.
         24    2    1    2    0    0 -0.47591744128E+01  0.64167643095E+02 -0.41976830768E+03  0.43293768527E+03  0.84198996639E+02 0.  0.
         25    2    1    2    0    0 -0.33994913930E+02 -0.58820248711E+02  0.31598337191E+03  0.34656432939E+03  0.12508344114E+03 0.  0.
        -24    2    1    2    0    0  0.38754088343E+02 -0.53473943834E+01  0.53138653463E+03  0.53882438060E+03  0.80184723937E+02 0.  0.
        -13    1    3    3    0    0  0.19019517959E+02 -0.11520935910E+02 -0.49500808593E+02  0.54266049046E+02  0.00000000000E+00 0.  1.
         14    1    3    3    0    0 -0.23778692372E+02  0.75688579005E+02 -0.37026749909E+03  0.37867163623E+03  0.00000000000E+00 0. -1.
         13    1    5    5    0    0  0.72128030891E+01  0.24504614553E+02  0.39194857096E+03  0.39278006943E+03  0.00000000000E+00 0. -1.
        -14    1    5    5    0    0  0.31541285254E+02 -0.29852008937E+02  0.13943796367E+03  0.14604431117E+03  0.00000000000E+00 0.  1.
          5    1    4    4  501    0 -0.54815076830E+02 -0.73957502556E+02  0.13343622048E+03  0.16216381276E+03  0.41800000000E+01 0.  1.
         -5    1    4    4    0  501  0.20820162899E+02  0.15137253844E+02  0.18254715143E+03  0.18440051663E+03  0.41800000000E+01 0.  1.
</event>
<event>
11    1  0.8551154E-009  0.1551888E+03  0.7561462E-02  0.1091692E+00
         22   -1    0    0    0    0  0.00000000000E+00  0.00000000000E+00  0.37945438370E+03  0.37945438370E+03  0.00000000000E+00 0. -1.
         22   -1    0    0    0    0 -0.00000000000E+00 -0.00000000000E+00 -0.25219720554E+03  0.25219720554E+03  0.00000000000E+00 0.  1.
        -24    2    1    2    0    0 -0.38750874974E+02 -0.26237414304E+02 -0.11374194655E+03  0.14628140132E+03  0.79189555793E+02 0.  0.
         25    2    1    2    0    0  0.10057815432E+03 -0.40558013273E+02 -0.47852926150E+02  0.17234099791E+03  0.12510235591E+03 0.  0.
         24    2    1    2    0    0 -0.61827279349E+02  0.66795427577E+02  0.28885205086E+03  0.31302919001E+03  0.79167701095E+02 0.  0.
        -13    1    5    5    0    0  0.18541653775E+02  0.49006436408E+01  0.44327570242E+02  0.48298475301E+02  0.00000000000E+00 0.  1.
         14    1    5    5    0    0 -0.80368933125E+02  0.61894783936E+02  0.24452448062E+03  0.26473071471E+03  0.00000000000E+00 0. -1.
         11    1    3    3    0    0 -0.21604162656E+02 -0.85905128081E+01  0.60214504725E+01  0.24016548881E+02  0.00000000000E+00 0. -1.
        -12    1    3    3    0    0 -0.17146712318E+02 -0.17646901495E+02 -0.11976339702E+03  0.12226485244E+03  0.00000000000E+00 0.  1.
          5    1    4    4  501    0  0.28328318870E+02  0.44077924344E+02 -0.41938154952E+01  0.52729664829E+02  0.41800000000E+01 0. -1.
         -5    1    4    4    0  501  0.72249835453E+02 -0.84635937618E+02 -0.43659110655E+02  0.11961133309E+03  0.41800000000E+01 0. -1.
</event>
<event>
11    1  0.8551154E-009  0.1324715E+03  0.7561462E-02  0.1116269E+00
         22   -1    0    0    0    0  0.00000000000E+00  0.00000000000E+00  0.64016838981E+03  0.64016838981E+03  0.00000000000E+00 0. -1.
         22   -1    0    0    0    0 -0.00000000000E+00 -0.00000000000E+00 -0.22891474572E+03  0.22891474572E+03  0.00000000000E+00 0. -1.
        -24    2    1    2    0    0  0.48047410617E+02  0.49740952341E+01 -0.18569382622E+03  0.20779883586E+03  0.79780096510E+02 0.  0.
         25    2    1    2    0    0 -0.45979551568E+01 -0.27921640890E+02  0.12129245232E+03  0.17651905631E+03  0.12508540694E+03 0.  0.
         24    2    1    2    0    0 -0.43449455460E+02  0.22947545656E+02  0.47565501799E+03  0.48476524335E+03  0.79593969541E+02 0.  0.
        -13    1    5    5    0    0 -0.75498298882E+01  0.47648024900E+02  0.20325298284E+03  0.20889975884E+03  0.00000000000E+00 0.  1.
         14    1    5    5    0    0 -0.35899625572E+02 -0.24700479245E+02  0.27240203515E+03  0.27586548451E+03  0.00000000000E+00 0. -1.
         13    1    3    3    0    0 -0.17517856979E+02 -0.11748154055E+01 -0.89611416727E+02  0.91315176790E+02  0.00000000000E+00 0. -1.
        -14    1    3    3    0    0  0.65565267595E+02  0.61489106396E+01 -0.96082409495E+02  0.11648365907E+03  0.00000000000E+00 0.  1.
          5    1    4    4  501    0 -0.13083327059E+02 -0.20608376210E+02  0.14652171012E+03  0.14860000859E+03  0.41800000000E+01 0. -1.
         -5    1    4    4    0  501  0.84853719019E+01 -0.73132646804E+01 -0.25229257798E+02  0.27919047721E+02  0.41800000000E+01 0. -1.
</event>
<event>
11    1  0.8551154E-009  0.4433128E+03  0.7561462E-02  0.9529953E-01
         22   -1    0    0    0    0  0.00000000000E+00  0.00000000000E+00  0.56742560529E+03  0.56742560529E+03  0.00000000000E+00 0. -1.
         22   -1    0    0    0    0 -0.00000000000E+00 -0.00000000000E+00 -0.80342300955E+03  0.80342300955E+03  0.00000000000E+00 0. -1.
         24    2    1    2    0    0 -0.77337224778E+02  0.26289133677E+03 -0.28010693182E+03  0.40035413456E+03  0.82040468827E+02 0.  0.
         25    2    1    2    0    0 -0.13347187644E+03 -0.55950842893E+03 -0.33382900257E+02  0.58960160920E+03  0.12510481884E+03 0.  0.
        -24    2    1    2    0    0  0.21080910122E+03  0.29661709216E+03  0.77492427808E+02  0.38089287107E+03  0.81560568575E+02 0.  0.
        -13    1    3    3    0    0 -0.29718791545E+02  0.27295718457E+02 -0.16438880525E+02  0.43571775381E+02  0.00000000000E+00 0.  1.
         14    1    3    3    0    0 -0.47618433234E+02  0.23559561831E+03 -0.26366805129E+03  0.35678235918E+03  0.00000000000E+00 0. -1.
         11    1    5    5    0    0  0.17676561858E+03  0.19915936969E+03  0.78621057390E+02  0.27765411777E+03  0.00000000000E+00 0. -1.
        -12    1    5    5    0    0  0.34043482643E+02  0.97457722472E+02 -0.11286295817E+01  0.10323875331E+03  0.00000000000E+00 0.  1.
          5    1    4    4  501    0 -0.14645512441E+03 -0.55450102688E+03 -0.36678870412E+02  0.57470279642E+03  0.41800000000E+01 0.  1.
         -5    1    4    4    0  501  0.12983247965E+02 -0.50074020479E+01  0.32959701558E+01  0.14898812781E+02  0.41800000000E+01 0. -1.
</event>
<event>
11    1  0.8551154E-009  0.3931767E+03  0.7561462E-02  0.9670108E-01
         22   -1    0    0    0    0  0.00000000000E+00  0.00000000000E+00  0.32802989724E+04  0.32802989724E+04  0.00000000000E+00 0.  1.
         22   -1    0    0    0    0 -0.00000000000E+00 -0.00000000000E+00 -0.28910908965E+03  0.28910908965E+03  0.00000000000E+00 0.  1.
        -24    2    1    2    0    0 -0.91517508535E+02 -0.17565853315E+03  0.11055032213E+02  0.21388495867E+03  0.79957408484E+02 0.  0.
         25    2    1    2    0    0  0.41538795654E+03 -0.94251889049E+01  0.93444100440E+02  0.44386494282E+03  0.12509316101E+03 0.  0.
         24    2    1    2    0    0 -0.32387044801E+03  0.18508372205E+03  0.28866907500E+04  0.29116581605E+04  0.74978036871E+02 0.  0.
        -13    1    5    5    0    0 -0.14625504662E+03  0.57119760897E+02  0.98958974999E+03  0.10019686018E+04  0.00000000000E+00 0.  1.
         14    1    5    5    0    0 -0.17761540138E+03  0.12796396116E+03  0.18971010001E+04  0.19096895587E+04  0.00000000000E+00 0. -1.
         11    1    3    3    0    0  0.51236156195E+01 -0.64674622639E+02  0.15314885626E+02  0.66660362827E+02  0.00000000000E+00 0. -1.
        -12    1    3    3    0    0 -0.96641124154E+02 -0.11098391051E+03 -0.42598534130E+01  0.14722459584E+03  0.00000000000E+00 0.  1.
          5    1    4    4  501    0  0.32099016638E+03  0.39820956072E+02  0.44202815924E+02  0.32648393037E+03  0.41800000000E+01 0. -1.
         -5    1    4    4    0  501  0.94397790164E+02 -0.49246144977E+02  0.49241284516E+02  0.11738101245E+03  0.41800000000E+01 0. -1.
</event>
<event>
11    1  0.8551154E-009  0.1512698E+03  0.7561462E-02  0.1095588E+00
         22   -1    0    0    0    0  0.00000000000E+00  0.00000000000E+00  0.25863491833E+03  0.25863491833E+03  0.00000000000E+00 0. -1.
         22   -1    0    0    0    0 -0.00000000000E+00 -0.00000000000E+00 -0.21328495714E+03  0.21328495714E+03  0.00000000000E+00 0. -1.
         24    2    1    2    0    0  0.84866921473E+02 -0.89344065936E+01 -0.12762377581E+03  0.17329041907E+03  0.80371159069E+02 0.  0.
         25    2    1    2    0    0 -0.84587117216E+02 -0.70789159292E+01  0.71779369243E+02  0.16734574682E+03  0.12508888711E+03 0.  0.
        -24    2    1    2    0    0 -0.27980425691E+00  0.16013322523E+02  0.10119436776E+03  0.13128370958E+03  0.82089022077E+02 0.  0.
        -11    1    3    3    0    0  0.88453564672E+02  0.16452395963E+02 -0.11033250661E+03  0.14236564350E+03  0.00000000000E+00 0.  1.
         12    1    3    3    0    0 -0.35866431993E+01 -0.25386802557E+02 -0.17291269200E+02  0.30924775570E+02  0.00000000000E+00 0. -1.
         11    1    5    5    0    0  0.17198333407E+02  0.54828965838E+01  0.10821060546E+03  0.10970587933E+03  0.00000000000E+00 0. -1.
        -12    1    5    5    0    0 -0.17478137664E+02  0.10530425939E+02 -0.70162376976E+01  0.21577830245E+02  0.00000000000E+00 0.  1.
          5    1    4    4  501    0 -0.10503908726E+03 -0.81957512229E+01  0.90749997306E+02  0.13911655042E+03  0.41800000000E+01 0.  1.
         -5    1    4    4    0  501  0.20451970046E+02  0.11168352937E+01 -0.18970628063E+02  0.28229196392E+02  0.41800000000E+01 0.  1.
</event>
<event>
11    1  0.8551154E-009  0.1671927E+03  0.7561462E-02  0.1080501E+00
         22   -1    0    0    0    0  0.00000000000E+00  0.00000000000E+00  0.36059339075E+03  0.36059339075E+03  0.00000000000E+00 0. -1.
         22   -1    0    0    0    0 -0.00000000000E+00 -0.00000000000E+00 -0.11602656394E+04  0.11602656394E+04  0.00000000000E+00 0.  1.
        -24    2    1    2    0    0 -0.10657665031E+03 -0.26888554811E+02 -0.10541374473E+04  0.10629337287E+04  0.80875070725E+02 0.  0.
         25    2    1    2    0    0  0.11291961353E+03  0.11408419851E+03  0.32449484034E+02  0.20607351004E+03  0.12508908447E+03 0.  0.
         24    2    1    2    0    0 -0.63429632161E+01 -0.87195643702E+02  0.22201571456E+03  0.25185179146E+03  0.80591773086E+02 0.  0.
        -11    1    5    5    0    0  0.25998905909E+01 -0.26907763294E+02  0.63900116660E+01  0.27778038189E+02  0.00000000000E+00 0.  1.
         12    1    5    5    0    0 -0.89428538071E+01 -0.60287880409E+02  0.21562570289E+03  0.22407375327E+03  0.00000000000E+00 0. -1.
         13    1    3    3    0    0  0.10737457834E+02 -0.13270350325E+02 -0.18958048416E+03  0.19034745906E+03  0.00000000000E+00 0. -1.
        -14    1    3    3    0    0 -0.11731410815E+03 -0.13618204486E+02 -0.86455696312E+03  0.87258626962E+03  0.00000000000E+00 0.  1.
          5    1    4    4  501    0  0.77705767745E+02  0.12003100357E+03  0.65411329812E+02  0.15729508138E+03  0.41800000000E+01 0. -1.
         -5    1    4    4    0  501  0.35213845783E+02 -0.59468050535E+01 -0.32961845778E+02  0.48778428657E+02  0.41800000000E+01 0. -1.
</event>
<event>
11    1  0.8551154E-009  0.1387790E+03  0.7561462E-02  0.1108930E+00
         22   -1    0    0    0    0  0.00000000000E+00  0.00000000000E+00  0.92931332371E+03  0.92931332371E+03  0.00000000000E+00 0.  1.
         22   -1    0    0    0    0 -0.00000000000E+00 -0.00000000000E+00 -0.17597451812E+04  0.17597451812E+04  0.00000000000E+00 0. -1.
        -24    2    1    2    0    0  0.50570100929E+01  0.12596019648E+02 -0.16207433270E+04  0.16235756673E+04  0.94893531672E+02 0.  0.
         25    2    1    2    0    0 -0.37414784412E+02  0.38245474926E+02 -0.10042007908E+03  0.16909766971E+03  0.12508895704E+03 0.  0.
         24    2    1    2    0    0  0.32357774319E+02 -0.50841494574E+02  0.89073154862E+03  0.89638516787E+03  0.80447463242E+02 0.  0.
        -13    1    5    5    0    0 -0.13050108563E+02 -0.64860273785E+01  0.52386301940E+03  0.52406568003E+03  0.00000000000E+00 0.  1.
         14    1    5    5    0    0  0.45407882882E+02 -0.44355467195E+02  0.36686852922E+03  0.37231948784E+03  0.00000000000E+00 0. -1.
         11    1    3    3    0    0  0.44363221294E+02  0.23848888026E+02 -0.11340912015E+04  0.11352091077E+04  0.00000000000E+00 0. -1.
        -12    1    3    3    0    0 -0.39306211201E+02 -0.11252868378E+02 -0.48665212553E+03  0.48836655963E+03  0.00000000000E+00 0.  1.
          5    1    4    4  501    0  0.30214804030E+00 -0.22195715397E+02 -0.94863005925E+02  0.97515144304E+02  0.41800000000E+01 0. -1.
         -5    1    4    4    0  501 -0.37716932452E+02  0.60441190323E+02 -0.55570731514E+01  0.71582525404E+02  0.41800000000E+01 0. -1.
</event>
<event>
11    1  0.8551154E-009  0.1285463E+03  0.7561462E-02  0.1121068E+00
         22   -1    0    0    0    0  0.00000000000E+00  0.00000000000E+00  0.27288393222E+03  0.27288393222E+03  0.00000000000E+00 0.  1.
         22   -1    0    0    0    0 -0.00000000000E+00 -0.00000000000E+00 -0.28839129652E+03  0.28839129652E+03  0.00000000000E+00 0. -1.
        -24    2    1    2    0    0 -0.55547148988E+00  0.25313954878E+02 -0.17672165795E+03  0.19713360908E+03  0.83606283139E+02 0.  0.
         25    2    1    2    0    0 -0.15549893508E+02 -0.49703198467E+02 -0.43802542600E+02  0.14240816255E+03  0.12509682209E+03 0.  0.
         24    2    1    2    0    0  0.16105364997E+02  0.24389243589E+02  0.20501683625E+03  0.22173345712E+03  0.79243957982E+02 0.  0.
        -11    1    5    5    0    0 -0.21004551033E+02 -0.93899540917E+01  0.12632354233E+03  0.12840171240E+03  0.00000000000E+00 0.  1.
         12    1    5    5    0    0  0.37109916030E+02  0.33779197681E+02  0.78693293918E+02  0.93331744714E+02  0.00000000000E+00 0. -1.
         13    1    3    3    0    0  0.17453465181E+02 -0.23561080718E+02 -0.10141299028E+03  0.10556676830E+03  0.00000000000E+00 0. -1.
        -14    1    3    3    0    0 -0.18008936671E+02  0.48875035596E+02 -0.75308667667E+02  0.91566840780E+02  0.00000000000E+00 0.  1.
          5    1    4    4  501    0 -0.18622246501E+02  0.18149317641E+02  0.31402406674E+02  0.40984989210E+02  0.41800000000E+01 0. -1.
         -5    1    4    4    0  501  0.30723529930E+01 -0.67852516108E+02 -0.75204949275E+02  0.10142317334E+03  0.41800000000E+01 0. -1.
</event>
<event>
11    1  0.8551154E-009  0.1604470E+03  0.7561462E-02  0.1086658E+00
         22   -1    0    0    0    0  0.00000000000E+00  0.00000000000E+00  0.62159345071E+03  0.62159345071E+03  0.00000000000E+00 0.  1.
         22   -1    0    0    0    0 -0.00000000000E+00 -0.00000000000E+00 -0.25628934031E+03  0.25628934031E+03  0.00000000000E+00 0.  1.
        -24    2    1    2    0    0  0.87983932476E+02 -0.68345148754E+02 -0.16075180309E+03  0.21173592830E+03  0.81109366920E+02 0.  0.
         25    2    1    2    0    0 -0.60678052251E+02  0.31574233488E+02  0.11097069356E+02  0.14299443755E+03  0.12508199701E+03 0.  0.
         24    2    1    2    0    0 -0.27305880225E+02  0.36770915267E+02  0.51495884414E+03  0.52315242517E+03  0.80050843193E+02 0.  0.
        -11    1    5    5    0    0 -0.52542431213E+02  0.40640245376E+02  0.38924894795E+03  0.39487603131E+03  0.00000000000E+00 0.  1.
         12    1    5    5    0    0  0.25236550987E+02 -0.38693301097E+01  0.12570989619E+03  0.12827639386E+03  0.00000000000E+00 0. -1.
         11    1    3    3    0    0  0.14646448625E+01 -0.45142622617E+02 -0.34031071855E+02  0.56551882488E+02  0.00000000000E+00 0. -1.
        -12    1    3    3    0    0  0.86519287614E+02 -0.23202526137E+02 -0.12672073124E+03  0.15518404581E+03  0.00000000000E+00 0.  1.
          5    1    4    4  501    0 -0.98265194856E+02  0.11481479709E+02  0.14302851200E+02  0.10004957196E+03  0.41800000000E+01 0.  1.
         -5    1    4    4    0  501  0.37587142605E+02  0.20092753779E+02 -0.32057818441E+01  0.42944865593E+02  0.41800000000E+01 0.  1.
</event>
<event>
11    1  0.8551154E-009  0.1338661E+03  0.7561462E-02  0.1114608E+00
         22   -1    0    0    0    0  0.00000000000E+00  0.00000000000E+00  0.93458193037E+02  0.93458193037E+02  0.00000000000E+00 0.  1.
         22   -1    0    0    0    0 -0.00000000000E+00 -0.00000000000E+00 -0.95501017687E+03  0.95501017687E+03  0.00000000000E+00 0.  1.
         24    2    1    2    0    0  0.20979664004E+02  0.17258522533E+01 -0.54865540426E+03  0.55476241118E+03  0.79343905650E+02 0.  0.
         25    2    1    2    0    0 -0.12374826678E+02 -0.48735932107E+02 -0.36350374057E+03  0.38769961546E+03  0.12509074710E+03 0.  0.
        -24    2    1    2    0    0 -0.86048373252E+01  0.47010079854E+02  0.50607160992E+02  0.10600634327E+03  0.79951668125E+02 0.  0.
        -13    1    3    3    0    0 -0.12104942008E+02 -0.14488731601E+02 -0.43231789817E+03  0.43272995972E+03  0.00000000000E+00 0.  1.
         14    1    3    3    0    0  0.33084606012E+02  0.16214583854E+02 -0.11633750609E+03  0.12203245146E+03  0.00000000000E+00 0. -1.
         11    1    5    5    0    0  0.14013842520E+02  0.48729060017E+02  0.17162990931E+00  0.50704423171E+02  0.00000000000E+00 0. -1.
        -12    1    5    5    0    0 -0.22618679845E+02 -0.17189801627E+01  0.50435531083E+02  0.55301920096E+02  0.00000000000E+00 0.  1.
          5    1    4    4  501    0  0.22198029632E+01  0.39867202400E+02 -0.69527259397E+02  0.80285948656E+02  0.41800000000E+01 0. -1.
         -5    1    4    4    0  501 -0.14594629642E+02 -0.88603134507E+02 -0.29397648117E+03  0.30741366681E+03  0.41800000000E+01 0. -1.
</event>
<event>
11    1  0.8551154E-009  0.1271951E+03  0.7561462E-02  0.1122764E+00
         22   -1    0    0    0    0  0.00000000000E+00  0.00000000000E+00  0.20307377812E+04  0.20307377812E+04  0.00000000000E+00 0. -1.
         22   -1    0    0    0    0 -0.00000000000E+00 -0.00000000000E+00 -0.17284369048E+03  0.17284369048E+03  0.00000000000E+00 0.  1.
        -24    2    1    2    0    0 -0.13846292542E+02 -0.10433792845E+02 -0.13094348319E+03  0.15433235152E+03  0.79822898254E+02 0.  0.
         25    2    1    2    0    0  0.40217181834E+01  0.31155258214E+02  0.11255857189E+03  0.17118398274E+03  0.12509076509E+03 0.  0.
         24    2    1    2    0    0  0.98245743585E+01 -0.20721465369E+02  0.18762790020E+04  0.18780651374E+04  0.78612120980E+02 0.  0.
        -13    1    5    5    0    0 -0.18171129345E+02 -0.51958813550E+01  0.11874412549E+03  0.12023873944E+03  0.00000000000E+00 0.  1.
         14    1    5    5    0    0  0.27995703703E+02 -0.15525584014E+02  0.17575348765E+04  0.17578263980E+04  0.00000000000E+00 0. -1.
         13    1    3    3    0    0 -0.15223028632E+02 -0.27528624309E+01  0.64187076332E+01  0.16748691291E+02  0.00000000000E+00 0. -1.
        -14    1    3    3    0    0  0.13767360900E+01 -0.76809304137E+01 -0.13736219082E+03  0.13758366023E+03  0.00000000000E+00 0.  1.
          5    1    4    4  501    0  0.27120709006E+02  0.58149522340E+02  0.11859575504E+03  0.13490487508E+03  0.41800000000E+01 0.  1.
         -5    1    4    4    0  501 -0.23098990822E+02 -0.26994264127E+02 -0.60371831495E+01  0.36279107667E+02  0.41800000000E+01 0.  1.
</event>
<event>
11    1  0.8551154E-009  0.5738397E+03  0.7561462E-02  0.9242152E-01
         22   -1    0    0    0    0  0.00000000000E+00  0.00000000000E+00  0.29228136808E+03  0.29228136808E+03  0.00000000000E+00 0.  1.
         22   -1    0    0    0    0 -0.00000000000E+00 -0.00000000000E+00 -0.16826537917E+04  0.16826537917E+04  0.00000000000E+00 0.  1.
         24    2    1    2    0    0 -0.59513601669E+02 -0.15204346461E+02 -0.24598977824E+03  0.26571160879E+03  0.79489918319E+02 0.  0.
         25    2    1    2    0    0 -0.34735633375E+03  0.41258254976E+03 -0.95601902565E+03  0.11047620418E+04  0.12508400669E+03 0.  0.
        -24    2    1    2    0    0  0.40686993542E+03 -0.39737820330E+03 -0.18836361972E+03  0.60446150913E+03  0.80251367420E+02 0.  0.
        -11    1    3    3    0    0 -0.15191843301E+02 -0.44830312816E+01 -0.31698288818E+00  0.15842668668E+02  0.00000000000E+00 0.  1.
         12    1    3    3    0    0 -0.44321758368E+02 -0.10721315180E+02 -0.24567279535E+03  0.24986894013E+03  0.00000000000E+00 0. -1.
         11    1    5    5    0    0  0.15904868663E+03 -0.10533372344E+03 -0.75435493967E+02  0.20513944468E+03  0.00000000000E+00 0. -1.
        -12    1    5    5    0    0  0.24782124879E+03 -0.29204447986E+03 -0.11292812575E+03  0.39932206445E+03  0.00000000000E+00 0.  1.
          5    1    4    4  501    0 -0.18578373120E+03  0.22344327709E+03 -0.63730512672E+03  0.70044113942E+03  0.41800000000E+01 0. -1.
         -5    1    4    4    0  501 -0.16157260255E+03  0.18913927267E+03 -0.31871389893E+03  0.40432090242E+03  0.41800000000E+01 0. -1.
</event>
<event>
11    1  0.8551154E-009  0.1277601E+03  0.7561462E-02  0.1122052E+00
         22   -1    0    0    0    0  0.00000000000E+00  0.00000000000E+00  0.34702099897E+03  0.34702099897E+03  0.00000000000E+00 0. -1.
         22   -1    0    0    0    0 -0.00000000000E+00 -0.00000000000E+00 -0.12874644280E+04  0.12874644280E+04  0.00000000000E+00 0.  1.
         24    2    1    2    0    0  0.17428693411E+02 -0.12671307672E+02 -0.12389718258E+04  0.12417202355E+04  0.79709703706E+02 0.  0.
         25    2    1    2    0    0  0.11299464605E+02  0.90568295131E+01  0.60603433483E+02  0.13974932345E+03  0.12508954070E+03 0.  0.
        -24    2    1    2    0    0 -0.28728158016E+02  0.36144781589E+01  0.23792496323E+03  0.25301586803E+03  0.81057817844E+02 0.  0.
        -11    1    3    3    0    0 -0.65038734989E+01  0.22473024506E+02 -0.86872050088E+03  0.86903546870E+03  0.00000000000E+00 0.  1.
         12    1    3    3    0    0  0.23932566910E+02 -0.35144332178E+02 -0.37025132487E+03  0.37268476681E+03  0.00000000000E+00 0. -1.
         11    1    5    5    0    0 -0.90032672496E+01  0.43562121589E+01  0.23226685198E+03  0.23248209809E+03  0.00000000000E+00 0. -1.
        -12    1    5    5    0    0 -0.19724890767E+02 -0.74173399995E+00  0.56581112517E+01  0.20533769942E+02  0.00000000000E+00 0.  1.
          5    1    4    4  501    0  0.10203863971E+02 -0.71167320426E+01  0.97948409205E+02  0.98823731870E+02  0.41800000000E+01 0. -1.
         -5    1    4    4    0  501  0.10956006338E+01  0.16173561556E+02 -0.37344975722E+02  0.40925591576E+02  0.41800000000E+01 0. -1.
</event>
<event>
11    1  0.8551154E-009  0.1662578E+03  0.7561462E-02  0.1081335E+00
         22   -1    0    0    0    0  0.00000000000E+00  0.00000000000E+00  0.70403288741E+03  0.70403288741E+03  0.00000000000E+00 0.  1.
         22   -1    0    0    0    0 -0.00000000000E+00 -0.00000000000E+00 -0.25660911922E+03  0.25660911922E+03  0.00000000000E+00 0.  1.
         24    2    1    2    0    0 -0.89619048861E+02  0.58288797631E+02 -0.14299230395E+03  0.19653026126E+03  0.82147347821E+02 0.  0.
         25    2    1    2    0    0  0.89284280704E+02 -0.78942329013E+02  0.52511950270E+01  0.17285323457E+03  0.12508833504E+03 0.  0.
        -24    2    1    2    0    0  0.33476815688E+00  0.20653531382E+02  0.58516487711E+03  0.59125851080E+03  0.82109760464E+02 0.  0.
        -13    1    3    3    0    0 -0.46501599331E+02  0.45469687532E+01 -0.11126204850E+03  0.12067442605E+03  0.00000000000E+00 0.  1.
         14    1    3    3    0    0 -0.43117449530E+02  0.53741828877E+02 -0.31730255450E+02  0.75855835214E+02  0.00000000000E+00 0. -1.
         13    1    5    5    0    0  0.11912588683E+02  0.44564326951E+02  0.49808065731E+03  0.50021218517E+03  0.00000000000E+00 0. -1.
        -14    1    5    5    0    0 -0.11577820526E+02 -0.23910795569E+02  0.87084219805E+02  0.91046325636E+02  0.00000000000E+00 0.  1.
          5    1    4    4  501    0  0.67997360930E+01  0.79119640662E+01  0.45154232707E+02  0.46531846275E+02  0.41800000000E+01 0. -1.
         -5    1    4    4    0  501  0.82484544611E+02 -0.86854293079E+02 -0.39903037680E+02  0.12632138830E+03  0.41800000000E+01 0. -1.
</event>
<event>
11    1  0.8551154E-009  0.1443219E+03  0.7561462E-02  0.1102826E+00
         22   -1    0    0    0    0  0.00000000000E+00  0.00000000000E+00  0.15492932959E+04  0.15492932959E+04  0.00000000000E+00 0. -1.
         22   -1    0    0    0    0 -0.00000000000E+00 -0.00000000000E+00 -0.11476653493E+03  0.11476653493E+03  0.00000000000E+00 0. -1.
         24    2    1    2    0    0  0.74656907761E+02 -0.26387240433E+02 -0.33506685175E+02  0.12028475934E+03  0.84117685677E+02 0.  0.
         25    2    1    2    0    0 -0.58585883113E+02 -0.29795903523E+02  0.10193178375E+03  0.17423125549E+03  0.12508533202E+03 0.  0.
        -24    2    1    2    0    0 -0.16071024648E+02  0.56183143957E+02  0.13661016624E+04  0.13695438160E+04  0.77470564891E+02 0.  0.
        -13    1    3    3    0    0  0.30770216394E+02  0.17943928560E+02  0.17517659753E+02  0.39694573840E+02  0.00000000000E+00 0.  1.
         14    1    3    3    0    0  0.43886691367E+02 -0.44331168993E+02 -0.51024344928E+02  0.80590185499E+02  0.00000000000E+00 0. -1.
         11    1    5    5    0    0  0.19279316418E+02  0.20305712180E+02  0.94887397513E+03  0.94928701385E+03  0.00000000000E+00 0. -1.
        -12    1    5    5    0    0 -0.35350341066E+02  0.35877431776E+02  0.41722768726E+03  0.42025680214E+03  0.00000000000E+00 0.  1.
          5    1    4    4  501    0 -0.24888398414E+02  0.64910310576E+01 -0.26106817684E+02  0.36886368612E+02  0.41800000000E+01 0. -1.
         -5    1    4    4    0  501 -0.33697484699E+02 -0.36286934581E+02  0.12803860143E+03  0.13734488688E+03  0.41800000000E+01 0. -1.
</event>
<event>
11    1  0.1138106E-008  0.1611663E+03  0.7561462E-02  0.1085985E+00
         22   -1    0    0    0    0  0.00000000000E+00  0.00000000000E+00  0.40485784485E+03  0.40485784485E+03  0.00000000000E+00 0. -1.
         22   -1    0    0    0    0 -0.00000000000E+00 -0.00000000000E+00 -0.81468793116E+03  0.81468793116E+03  0.00000000000E+00 0. -1.
         24    2    1    2    0    0 -0.61509998934E+01 -0.78598766074E+02 -0.64870285427E+03  0.65843161857E+03  0.80630033917E+02 0.  0.
         25    2    1    2    0    0  0.10661619206E+03  0.84262242988E+02 -0.91406939570E+02  0.20608656472E+03  0.12509718443E+03 0.  0.
        -24    2    1    2    0    0 -0.10046519217E+03 -0.56634769141E+01  0.33027970753E+03  0.35502759273E+03  0.82671498038E+02 0.  0.
        -11    1    3    3    0    0  0.36512524322E+02 -0.28748648814E+02 -0.23398210018E+03  0.23855245219E+03  0.00000000000E+00 0.  1.
         12    1    3    3    0    0 -0.42663524215E+02 -0.49850117260E+02 -0.41472075409E+03  0.41987916638E+03  0.00000000000E+00 0. -1.
         13    1    5    5    0    0 -0.96369314403E+02  0.24657009964E+02  0.25985393813E+03  0.27824284728E+03  0.00000000000E+00 0. -1.
        -14    1    5    5    0    0 -0.40958777636E+01 -0.30320486879E+02  0.70425769396E+02  0.76784745453E+02  0.00000000000E+00 0.  1.
          5    1    4    4  501    0 -0.12938852588E+02 -0.18069982995E+02 -0.28922340540E+02  0.36713926160E+02  0.41800000000E+01 0. -1.
         -5    1    4    4    0  501  0.11955504465E+03  0.10233222598E+03 -0.62484599030E+02  0.16937263856E+03  0.41800000000E+01 0. -1.
</event>
<event>
11    1  0.8551154E-009  0.1536508E+03  0.7561462E-02  0.1093206E+00
         22   -1    0    0    0    0  0.00000000000E+00  0.00000000000E+00  0.14794927881E+03  0.14794927881E+03  0.00000000000E+00 0. -1.
         22   -1    0    0    0    0 -0.00000000000E+00 -0.00000000000E+00 -0.10077417073E+04  0.10077417073E+04  0.00000000000E+00 0. -1.
         24    2    1    2    0    0  0.49404021665E+02 -0.72572481972E+02 -0.76259268424E+03  0.77184504470E+03  0.80558354448E+02 0.  0.
         25    2    1    2    0    0 -0.37857829102E+02  0.92449618563E+02 -0.19603249834E+03  0.25309345001E+03  0.12508959523E+03 0.  0.
        -24    2    1    2    0    0 -0.11546192563E+02 -0.19877136591E+02  0.98832754115E+02  0.13075249138E+03  0.82461418825E+02 0.  0.
        -13    1    3    3    0    0  0.37854646203E+02 -0.54166741670E+02 -0.24379715141E+03  0.25259465786E+03  0.00000000000E+00 0.  1.
         14    1    3    3    0    0  0.11549375462E+02 -0.18405740302E+02 -0.51879553283E+03  0.51925038684E+03  0.00000000000E+00 0. -1.
         11    1    5    5    0    0 -0.47116994062E+02 -0.11237509378E+02  0.63609398072E+02  0.79952787753E+02  0.00000000000E+00 0. -1.
        -12    1    5    5    0    0  0.35570801499E+02 -0.86396272136E+01  0.35223356043E+02  0.50799703627E+02  0.00000000000E+00 0.  1.
          5    1    4    4  501    0 -0.10602605795E+02  0.12030784617E+03 -0.15050810043E+03  0.19301956842E+03  0.41800000000E+01 0.  1.
         -5    1    4    4    0  501 -0.27255223307E+02 -0.27858227612E+02 -0.45524397918E+02  0.60073881587E+02  0.41800000000E+01 0.  1.
</event>
<event>
11    1  0.8551154E-009  0.1447178E+03  0.7561462E-02  0.1102402E+00
         22   -1    0    0    0    0  0.00000000000E+00  0.00000000000E+00  0.10619441789E+04  0.10619441789E+04  0.00000000000E+00 0. -1.
         22   -1    0    0    0    0 -0.00000000000E+00 -0.00000000000E+00 -0.36700663859E+03  0.36700663859E+03  0.00000000000E+00 0.  1.
         24    2    1    2    0    0  0.46395320082E+02  0.31591344030E+02 -0.34274451975E+03  0.35643127808E+03  0.80118109265E+02 0.  0.
         25    2    1    2    0    0  0.32482089514E+02 -0.54405755942E+02  0.38615929312E+03  0.41083091010E+03  0.12509182472E+03 0.  0.
        -24    2    1    2    0    0 -0.78877409596E+02  0.22814411911E+02  0.65152276698E+03  0.66168862936E+03  0.81288272168E+02 0.  0.
        -13    1    3    3    0    0  0.29200070188E+02  0.28449831971E+02 -0.33472677855E+03  0.33720031630E+03  0.00000000000E+00 0.  1.
         14    1    3    3    0    0  0.17195249894E+02  0.31415120590E+01 -0.80177412044E+01  0.19230961779E+02  0.00000000000E+00 0. -1.
         13    1    5    5    0    0 -0.59811870133E+02 -0.18824095547E+02  0.48303807536E+03  0.48709094493E+03  0.00000000000E+00 0. -1.
        -14    1    5    5    0    0 -0.19065539463E+02  0.41638507458E+02  0.16848469162E+03  0.17459768443E+03  0.00000000000E+00 0.  1.
          5    1    4    4  501    0 -0.41699599052E+02 -0.17709419426E+02  0.22566642857E+03  0.23020705784E+03  0.41800000000E+01 0.  1.
         -5    1    4    4    0  501  0.74181688565E+02 -0.36696336516E+02  0.16049286455E+03  0.18062385226E+03  0.41800000000E+01 0.  1.
</event>
<event>
11    1  0.8551154E-009  0.6942616E+03  0.7561462E-02  0.9040804E-01
         22   -1    0    0    0    0  0.00000000000E+00  0.00000000000E+00  0.47920737732E+03  0.47920737732E+03  0.00000000000E+00 0.  1.
         22   -1    0    0    0    0 -0.00000000000E+00 -0.00000000000E+00 -0.24606229227E+04  0.24606229227E+04  0.00000000000E+00 0.  1.
         24    2    1    2    0    0 -0.55944548684E+03  0.61906563031E+02 -0.70112635703E+03  0.90270902092E+03  0.80583699654E+02 0.  0.
         25    2    1    2    0    0  0.76622270609E+03 -0.35305909200E+03 -0.14107605122E+04  0.16485268819E+04  0.12509076681E+03 0.  0.
        -24    2    1    2    0    0 -0.20677721925E+03  0.29115252897E+03  0.13047132384E+03  0.38859439715E+03  0.80350641726E+02 0.  0.
        -13    1    3    3    0    0 -0.41167495758E+03  0.41424510698E+02 -0.56829894017E+03  0.70296226511E+03  0.00000000000E+00 0.  1.
         14    1    3    3    0    0 -0.14777052926E+03  0.20482052333E+02 -0.13282741686E+03  0.19974675581E+03  0.00000000000E+00 0. -1.
         13    1    5    5    0    0 -0.10585668537E+03  0.17627564256E+03  0.11317984269E+03  0.23470921751E+03  0.00000000000E+00 0. -1.
        -14    1    5    5    0    0 -0.10092053388E+03  0.11487688641E+03  0.17291481155E+02  0.15388517964E+03  0.00000000000E+00 0.  1.
          5    1    4    4  501    0  0.66337845501E+03 -0.27277787142E+03 -0.12528185779E+04  0.14436241212E+04  0.41800000000E+01 0. -1.
         -5    1    4    4    0  501  0.10284425108E+03 -0.80281220579E+02 -0.15794193423E+03  0.20490276071E+03  0.41800000000E+01 0. -1.
</event>
<event>
11    1  0.8551154E-009  0.2358404E+03  0.7561462E-02  0.1031725E+00
         22   -1    0    0    0    0  0.00000000000E+00  0.00000000000E+00  0.44777067719E+03  0.44777067719E+03  0.00000000000E+00 0.  1.
         22   -1    0    0    0    0 -0.00000000000E+00 -0.00000000000E+00 -0.12208193162E+04  0.12208193162E+04  0.00000000000E+00 0.  1.
         24    2    1    2    0    0 -0.18698397935E+03 -0.41165373059E+02 -0.80335679848E+03  0.82955399575E+03  0.78231002374E+02 0.  0.
         25    2    1    2    0    0  0.21588165367E+03  0.75325737340E+02 -0.35643773265E+03  0.44155842586E+03  0.12508849307E+03 0.  0.
        -24    2    1    2    0    0 -0.28897674327E+02 -0.34160364280E+02  0.38674589215E+03  0.39747757175E+03  0.80087632519E+02 0.  0.
        -13    1    3    3    0    0 -0.16863343460E+03 -0.59565364802E+02 -0.65694353758E+03  0.68085246531E+03  0.00000000000E+00 0.  1.
         14    1    3    3    0    0 -0.18350544744E+02  0.18399991743E+02 -0.14641326090E+03  0.14870153044E+03  0.00000000000E+00 0. -1.
         13    1    5    5    0    0 -0.12152167436E+01  0.19590266332E+02  0.31436713074E+02  0.37061060638E+02  0.00000000000E+00 0. -1.
        -14    1    5    5    0    0 -0.27682457584E+02 -0.53750630612E+02  0.35530917907E+03  0.36041651111E+03  0.00000000000E+00 0.  1.
          5    1    4    4  501    0  0.23047574356E+03  0.74826939912E+02 -0.34831577619E+03  0.42433417450E+03  0.41800000000E+01 0.  1.
         -5    1    4    4    0  501 -0.14594089882E+02  0.49879742753E+00 -0.81219564528E+01  0.17224251362E+02  0.41800000000E+01 0.  1.
</event>
<event>
11    1  0.8551154E-009  0.1562872E+03  0.7561462E-02  0.1090622E+00
         22   -1    0    0    0    0  0.00000000000E+00  0.00000000000E+00  0.71156734346E+03  0.71156734346E+03  0.00000000000E+00 0.  1.
         22   -1    0    0    0    0 -0.00000000000E+00 -0.00000000000E+00 -0.10686799224E+04  0.10686799224E+04  0.00000000000E+00 0. -1.
        -24    2    1    2    0    0 -0.11024933924E+02 -0.30723884589E+02 -0.10125532005E+04  0.10163609110E+04  0.81608892329E+02 0.  0.
         25    2    1    2    0    0  0.43597605717E+02 -0.60430562291E+02  0.64143557137E+02  0.15910181835E+03  0.12508552513E+03 0.  0.
         24    2    1    2    0    0 -0.32572671793E+02  0.91154446880E+02  0.59129706438E+03  0.60478453657E+03  0.82231412476E+02 0.  0.
        -11    1    5    5    0    0  0.27202296556E+02  0.39701979557E+02  0.22871034091E+03  0.23371913091E+03  0.00000000000E+00 0.  1.
         12    1    5    5    0    0 -0.59774968349E+02  0.51452467323E+02  0.36258672347E+03  0.37106540565E+03  0.00000000000E+00 0. -1.
         11    1    3    3    0    0 -0.16181051579E+02 -0.39928902418E+02 -0.99463154786E+03  0.99556419164E+03  0.00000000000E+00 0. -1.
        -12    1    3    3    0    0  0.51561176554E+01  0.92050178293E+01 -0.17921652619E+02  0.20796719335E+02  0.00000000000E+00 0.  1.
          5    1    4    4  501    0  0.87871524667E+02 -0.41258205257E+02  0.42141559079E+02  0.10591047044E+03  0.41800000000E+01 0.  1.
         -5    1    4    4    0  501 -0.44273918950E+02 -0.19172357034E+02  0.22001998058E+02  0.53191347905E+02  0.41800000000E+01 0.  1.
</event>
<event>
11    1  0.8551154E-009  0.1573938E+03  0.7561462E-02  0.1089554E+00
         22   -1    0    0    0    0  0.00000000000E+00  0.00000000000E+00  0.28815421128E+04  0.28815421128E+04  0.00000000000E+00 0. -1.
         22   -1    0    0    0    0 -0.00000000000E+00 -0.00000000000E+00 -0.40998317739E+02  0.40998317739E+02  0.00000000000E+00 0.  1.
        -24    2    1    2    0    0  0.33623779195E+02  0.37453826360E+02  0.57182266106E+02  0.11082235225E+03  0.80488723219E+02 0.  0.
         25    2    1    2    0    0 -0.91341204645E+02  0.39938257544E+02  0.50070431861E+03  0.52563262897E+03  0.12508623382E+03 0.  0.
         24    2    1    2    0    0  0.57717425451E+02 -0.77392083904E+02  0.22826572103E+04  0.22860854493E+04  0.79636083138E+02 0.  0.
        -13    1    5    5    0    0 -0.61318063325E+01  0.41557833157E+01  0.25519930802E+02  0.26573228107E+02  0.00000000000E+00 0.  1.
         14    1    5    5    0    0  0.63849231783E+02 -0.81547867220E+02  0.22571372795E+04  0.22595122212E+04  0.00000000000E+00 0. -1.
         13    1    3    3    0    0  0.53452603822E+02  0.28277008539E+02  0.63886672314E+02  0.87967476755E+02  0.00000000000E+00 0. -1.
        -14    1    3    3    0    0 -0.19828824627E+02  0.91768178205E+01 -0.67044062086E+01  0.22854875498E+02  0.00000000000E+00 0.  1.
          5    1    4    4  501    0 -0.91826822432E+01 -0.37091562596E+02  0.64323207813E+02  0.74933658208E+02  0.41800000000E+01 0.  1.
         -5    1    4    4    0  501 -0.82158522402E+02  0.77029820140E+02  0.43638111079E+03  0.45069897077E+03  0.41800000000E+01 0.  1.
</event>
<event>
11    1  0.8551154E-009  0.1321047E+03  0.7561462E-02  0.1116710E+00
         22   -1    0    0    0    0  0.00000000000E+00  0.00000000000E+00  0.14933845553E+04  0.14933845553E+04  0.00000000000E+00 0. -1.
         22   -1    0    0    0    0 -0.00000000000E+00 -0.00000000000E+00 -0.12436414868E+03  0.12436414868E+03  0.00000000000E+00 0. -1.
         24    2    1    2    0    0 -0.31640018186E+02 -0.30944628411E+02 -0.87370618439E+02  0.12819302981E+03  0.82711348356E+02 0.  0.
         25    2    1    2    0    0  0.34506882076E+01  0.61989461355E+02  0.32031899015E+03  0.34943688983E+03  0.12508910407E+03 0.  0.
        -24    2    1    2    0    0  0.28189329979E+02 -0.31044832943E+02  0.11360720349E+04  0.11401187844E+04  0.86329334134E+02 0.  0.
        -11    1    3    3    0    0 -0.27802047272E+02  0.19133879378E+02 -0.86940326848E+01  0.34851762895E+02  0.00000000000E+00 0.  1.
         12    1    3    3    0    0 -0.38379709142E+01 -0.50078507790E+02 -0.78676585755E+02  0.93341266914E+02  0.00000000000E+00 0. -1.
         11    1    5    5    0    0 -0.80012276728E+01 -0.83897386231E+01  0.90862147666E+03  0.90869543589E+03  0.00000000000E+00 0. -1.
        -12    1    5    5    0    0  0.36190557651E+02 -0.22655094320E+02  0.22745055827E+03  0.23142334848E+03  0.00000000000E+00 0.  1.
          5    1    4    4  501    0  0.12679211118E+02 -0.36094182380E+02  0.12252619706E+03  0.12842777644E+03  0.41800000000E+01 0.  1.
         -5    1    4    4    0  501 -0.92285229103E+01  0.98083643735E+02  0.19779279309E+03  0.22100911339E+03  0.41800000000E+01 0.  1.
</event>
<event>
11    1  0.8551154E-009  0.1521654E+03  0.7561462E-02  0.1094687E+00
         22   -1    0    0    0    0  0.00000000000E+00  0.00000000000E+00  0.35939673560E+03  0.35939673560E+03  0.00000000000E+00 0. -1.
         22   -1    0    0    0    0 -0.00000000000E+00 -0.00000000000E+00 -0.50468764188E+03  0.50468764188E+03  0.00000000000E+00 0.  1.
        -24    2    1    2    0    0  0.28203158235E+02 -0.26870378696E+02 -0.36190089995E+03  0.37389919621E+03  0.85503872169E+02 0.  0.
         25    2    1    2    0    0 -0.18204447289E+02 -0.61682503016E+02 -0.85912067032E+02  0.16481416168E+03  0.12508673610E+03 0.  0.
         24    2    1    2    0    0 -0.99987109458E+01  0.88552881712E+02  0.30252206070E+03  0.32537101960E+03  0.80031969259E+02 0.  0.
        -11    1    5    5    0    0 -0.13707488639E-01 -0.15379127803E+01  0.13408219822E+03  0.13409101851E+03  0.00000000000E+00 0.  1.
         12    1    5    5    0    0 -0.99850034571E+01  0.90090794492E+02  0.16843986248E+03  0.19128000109E+03  0.00000000000E+00 0. -1.
         11    1    3    3    0    0  0.12575104916E+02 -0.48645794520E+02 -0.32158586525E+03  0.32548735048E+03  0.00000000000E+00 0. -1.
        -12    1    3    3    0    0  0.15628053319E+02  0.21775415824E+02 -0.40315034696E+02  0.48411845734E+02  0.00000000000E+00 0.  1.
          5    1    4    4  501    0  0.40648558773E+02 -0.65856935772E+02 -0.29060133204E+02  0.82773214638E+02  0.41800000000E+01 0.  1.
         -5    1    4    4    0  501 -0.58853006063E+02  0.41744327555E+01 -0.56851933828E+02  0.82040947041E+02  0.41800000000E+01 0.  1.
</event>
<event>
11    1  0.8551154E-009  0.1567942E+03  0.7561462E-02  0.1090132E+00
         22   -1    0    0    0    0  0.00000000000E+00  0.00000000000E+00  0.27722712555E+03  0.27722712555E+03  0.00000000000E+00 0.  1.
         22   -1    0    0    0    0 -0.00000000000E+00 -0.00000000000E+00 -0.53491928684E+03  0.53491928684E+03  0.00000000000E+00 0. -1.
        -24    2    1    2    0    0 -0.23427277980E+02  0.29146171679E+02 -0.30625767982E+03  0.31961010160E+03  0.83417707457E+02 0.  0.
         25    2    1    2    0    0  0.11550021988E+03 -0.39063363955E+02 -0.16888011826E+03  0.24296936279E+03  0.12508944686E+03 0.  0.
         24    2    1    2    0    0 -0.92072941904E+02  0.99171922767E+01  0.21744563679E+03  0.24956694799E+03  0.80157839540E+02 0.  0.
        -11    1    5    5    0    0 -0.39972088617E+02 -0.82725939584E+01  0.17567786264E+03  0.18035774200E+03  0.00000000000E+00 0.  1.
         12    1    5    5    0    0 -0.52100853287E+02  0.18189786235E+02  0.41767774148E+02  0.69209205990E+02  0.00000000000E+00 0. -1.
         13    1    3    3    0    0 -0.50191584715E+02 -0.95510585773E+00 -0.14690391756E+03  0.15524454386E+03  0.00000000000E+00 0. -1.
        -14    1    3    3    0    0  0.26764306735E+02  0.30101277536E+02 -0.15935376226E+03  0.16436555774E+03  0.00000000000E+00 0.  1.
          5    1    4    4  501    0 -0.25983263407E+02 -0.16004624040E+02 -0.23353669117E+02  0.38654161861E+02  0.41800000000E+01 0.  1.
         -5    1    4    4    0  501  0.14148348329E+03 -0.23058739915E+02 -0.14552644914E+03  0.20431520093E+03  0.41800000000E+01 0.  1.
</event>
<event>
11    1  0.8551154E-009  0.5553681E+03  0.7561462E-02  0.9277656E-01
         22   -1    0    0    0    0  0.00000000000E+00  0.00000000000E+00  0.97466982429E+03  0.97466982429E+03  0.00000000000E+00 0. -1.
         22   -1    0    0    0    0 -0.00000000000E+00 -0.00000000000E+00 -0.22904027503E+04  0.22904027503E+04  0.00000000000E+00 0.  1.
         24    2    1    2    0    0  0.24819625289E+03  0.81570484303E+01 -0.19509687144E+04  0.19684988954E+04  0.83911018491E+02 0.  0.
         25    2    1    2    0    0 -0.66209964933E+03  0.29954761388E+02  0.53668007069E+03  0.86194316068E+03  0.12508909058E+03 0.  0.
        -24    2    1    2    0    0  0.41390339645E+03 -0.38111809818E+02  0.98555717690E+02  0.43463051858E+03  0.80136923789E+02 0.  0.
        -11    1    3    3    0    0  0.17919742160E+03 -0.11485164978E+01 -0.16437693895E+04  0.16535086456E+04  0.00000000000E+00 0.  1.
         12    1    3    3    0    0  0.68998831282E+02  0.93055649281E+01 -0.30719932487E+03  0.31499024978E+03  0.00000000000E+00 0. -1.
         11    1    5    5    0    0  0.38846631733E+03 -0.52574334618E+02  0.10228565091E+03  0.40513268782E+03  0.00000000000E+00 0. -1.
        -12    1    5    5    0    0  0.25437079121E+02  0.14462524800E+02 -0.37299332205E+01  0.29497830762E+02  0.00000000000E+00 0.  1.
          5    1    4    4  501    0 -0.15776864865E+03  0.60844600297E+02  0.13063424771E+03  0.21371895320E+03  0.41800000000E+01 0.  1.
         -5    1    4    4    0  501 -0.50433100068E+03 -0.30889838909E+02  0.40604582299E+03  0.64822420748E+03  0.41800000000E+01 0.  1.
</event>
<event>
11    1  0.8551154E-009  0.1374237E+03  0.7561462E-02  0.1110470E+00
         22   -1    0    0    0    0  0.00000000000E+00  0.00000000000E+00  0.11535343438E+03  0.11535343438E+03  0.00000000000E+00 0.  1.
         22   -1    0    0    0    0 -0.00000000000E+00 -0.00000000000E+00 -0.17843961816E+04  0.17843961816E+04  0.00000000000E+00 0.  1.
         24    2    1    2    0    0  0.68604270299E+00  0.76526564413E+02 -0.65573149513E+03  0.66503639523E+03  0.80204909828E+02 0.  0.
         25    2    1    2    0    0 -0.32171187846E+02 -0.12167087345E+03 -0.10838073254E+04  0.10982367487E+04  0.12508737232E+03 0.  0.
        -24    2    1    2    0    0  0.31485145143E+02  0.45144309038E+02  0.70496073363E+02  0.13647647205E+03  0.10308641065E+03 0.  0.
        -11    1    3    3    0    0  0.40442174247E+02  0.37752979395E+02 -0.32799092038E+03  0.33262426364E+03  0.00000000000E+00 0.  1.
         12    1    3    3    0    0 -0.39756131544E+02  0.38773585018E+02 -0.32774057475E+03  0.33241213159E+03  0.00000000000E+00 0. -1.
         11    1    5    5    0    0  0.66815294152E+02  0.12124880888E+02  0.34334797403E+02  0.76093196686E+02  0.00000000000E+00 0. -1.
        -12    1    5    5    0    0 -0.35330149009E+02  0.33019428151E+02  0.36161275960E+02  0.60383275362E+02  0.00000000000E+00 0.  1.
          5    1    4    4  501    0 -0.64523395649E+02 -0.93653436429E+02 -0.96865285854E+03  0.97531536822E+03  0.41800000000E+01 0.  1.
         -5    1    4    4    0  501  0.32352207803E+02 -0.28017437023E+02 -0.11515446690E+03  0.12292138046E+03  0.41800000000E+01 0.  1.
</event>
<event>
11    1  0.8551154E-009  0.1407091E+03  0.7561462E-02  0.1106769E+00
         22   -1    0    0    0    0  0.00000000000E+00  0.00000000000E+00  0.14515536381E+03  0.14515536381E+03  0.00000000000E+00 0. -1.
         22   -1    0    0    0    0 -0.00000000000E+00 -0.00000000000E+00 -0.65973650627E+03  0.65973650627E+03  0.00000000000E+00 0. -1.
        -24    2    1    2    0    0  0.18528204520E+02 -0.38651583528E+02 -0.40279899827E+03  0.41301294720E+03  0.80594182618E+02 0.  0.
         25    2    1    2    0    0  0.22629946125E+02  0.86427950093E+02 -0.20736803047E+03  0.25812990814E+03  0.12509054480E+03 0.  0.
         24    2    1    2    0    0 -0.41158150645E+02 -0.47776366565E+02  0.95585886284E+02  0.13374901475E+03  0.69105446399E+02 0.  0.
        -11    1    5    5    0    0 -0.32158663552E+01 -0.40598832449E+01  0.70452269824E+02  0.70642386509E+02  0.00000000000E+00 0.  1.
         12    1    5    5    0    0 -0.37942284290E+02 -0.43716483320E+02  0.25133616461E+02  0.63106628237E+02  0.00000000000E+00 0. -1.
         13    1    3    3    0    0 -0.64581131935E+01 -0.48511613652E+02 -0.35349399184E+03  0.35686564160E+03  0.00000000000E+00 0. -1.
        -14    1    3    3    0    0  0.24986317714E+02  0.98600301242E+01 -0.49305006428E+02  0.56147305597E+02  0.00000000000E+00 0.  1.
          5    1    4    4  501    0  0.22823955327E+02  0.79197824593E+02 -0.22443558036E+03  0.23912764476E+03  0.41800000000E+01 0. -1.
         -5    1    4    4    0  501 -0.19400920223E+00  0.72301255004E+01  0.17067549891E+02  0.19002263381E+02  0.41800000000E+01 0. -1.
</event>
<event>
11    1  0.8551154E-009  0.1811212E+03  0.7561462E-02  0.1068740E+00
         22   -1    0    0    0    0  0.00000000000E+00  0.00000000000E+00  0.98027503307E+03  0.98027503307E+03  0.00000000000E+00 0. -1.
         22   -1    0    0    0    0 -0.00000000000E+00 -0.00000000000E+00 -0.29010328577E+03  0.29010328577E+03  0.00000000000E+00 0.  1.
         24    2    1    2    0    0 -0.12796289160E+03  0.17497787476E+02 -0.20781243203E+03  0.25763672176E+03  0.80684566660E+02 0.  0.
         25    2    1    2    0    0  0.12860065198E+03 -0.12042809846E+03  0.17512254843E+03  0.27813005952E+03  0.12508944180E+03 0.  0.
        -24    2    1    2    0    0 -0.63776038070E+00  0.10293031099E+03  0.72286163091E+03  0.73461153757E+03  0.80809145719E+02 0.  0.
        -11    1    3    3    0    0 -0.12543846122E+03  0.32754537566E+02 -0.20399939766E+03  0.24170937410E+03  0.00000000000E+00 0.  1.
         12    1    3    3    0    0 -0.25244303845E+01 -0.15256750090E+02 -0.38130343676E+01  0.15927347650E+02  0.00000000000E+00 0. -1.
         11    1    5    5    0    0 -0.12703694101E+02 -0.36341309594E+01  0.22219219583E+03  0.22258473137E+03  0.00000000000E+00 0. -1.
        -12    1    5    5    0    0  0.12065933720E+02  0.10656444195E+03  0.50066943508E+03  0.51202680620E+03  0.00000000000E+00 0.  1.
          5    1    4    4  501    0  0.12941830601E+03 -0.13690594251E+03  0.17982363965E+03  0.26047331687E+03  0.41800000000E+01 0.  1.
         -5    1    4    4    0  501 -0.81765402322E+00  0.16477844042E+02 -0.47010912222E+01  0.17656742652E+02  0.41800000000E+01 0.  1.
</event>
<event>
11    1  0.8551154E-009  0.1410717E+03  0.7561462E-02  0.1106367E+00
         22   -1    0    0    0    0  0.00000000000E+00  0.00000000000E+00  0.58209267365E+03  0.58209267365E+03  0.00000000000E+00 0. -1.
         22   -1    0    0    0    0 -0.00000000000E+00 -0.00000000000E+00 -0.15572532726E+04  0.15572532726E+04  0.00000000000E+00 0. -1.
         24    2    1    2    0    0  0.99388629632E+01  0.64372314326E+02 -0.14658262925E+04  0.14695558933E+04  0.81885455311E+02 0.  0.
         25    2    1    2    0    0 -0.81345749935E+01 -0.67455238152E+02 -0.27964762894E+02  0.14507209973E+03  0.12508999037E+03 0.  0.
        -24    2    1    2    0    0 -0.18042879697E+01  0.30829238259E+01  0.51863045644E+03  0.52471795327E+03  0.79615452399E+02 0.  0.
        -11    1    3    3    0    0  0.28792132032E+02  0.96813971785E+01 -0.18949123077E+03  0.19191050742E+03  0.00000000000E+00 0.  1.
         12    1    3    3    0    0 -0.18853269069E+02  0.54690917147E+02 -0.12763350618E+04  0.12776453859E+04  0.00000000000E+00 0. -1.
         13    1    5    5    0    0  0.97185559815E+01  0.39059781448E+02  0.32056164940E+03  0.32307876427E+03  0.00000000000E+00 0. -1.
        -14    1    5    5    0    0 -0.11522843951E+02 -0.35976857622E+02  0.19806880704E+03  0.20163918900E+03  0.00000000000E+00 0.  1.
          5    1    4    4  501    0 -0.54571925680E+02 -0.75134919849E+02 -0.65318741921E+01  0.93185240428E+02  0.41800000000E+01 0. -1.
         -5    1    4    4    0  501  0.46437350686E+02  0.76796816971E+01 -0.21432888702E+02  0.51886859298E+02  0.41800000000E+01 0. -1.
</event>
<event>
11    1  0.8551154E-009  0.1410114E+03  0.7561462E-02  0.1106434E+00
         22   -1    0    0    0    0  0.00000000000E+00  0.00000000000E+00  0.19053161451E+03  0.19053161451E+03  0.00000000000E+00 0.  1.
         22   -1    0    0    0    0 -0.00000000000E+00 -0.00000000000E+00 -0.66134277884E+03  0.66134277884E+03  0.00000000000E+00 0.  1.
        -24    2    1    2    0    0  0.32286459235E+02  0.45318587795E+02 -0.51567958270E+03  0.52566553218E+03  0.85455426181E+02 0.  0.
         25    2    1    2    0    0  0.49193361436E+01 -0.94422883237E+02 -0.63875961013E+02  0.16931485460E+03  0.12508997100E+03 0.  0.
         24    2    1    2    0    0 -0.37205795378E+02  0.49104295442E+02  0.10874437938E+03  0.15689400656E+03  0.94841373918E+02 0.  0.
        -13    1    5    5    0    0 -0.44038290758E+02 -0.16569401319E+02  0.44025892142E+02  0.64437530150E+02  0.00000000000E+00 0.  1.
         14    1    5    5    0    0  0.68324953797E+01  0.65673696761E+02  0.64718487243E+02  0.92456476412E+02  0.00000000000E+00 0. -1.
         11    1    3    3    0    0 -0.26902346171E+02 -0.27057747246E+00 -0.15688441334E+03  0.15917452243E+03  0.00000000000E+00 0. -1.
        -12    1    3    3    0    0  0.59188805406E+02  0.45589165268E+02 -0.35879516936E+03  0.36649100975E+03  0.00000000000E+00 0.  1.
          5    1    4    4  501    0  0.21453867353E+02 -0.12218593612E+03 -0.52966257935E+02  0.13495394877E+03  0.41800000000E+01 0. -1.
         -5    1    4    4    0  501 -0.16534531209E+02  0.27763052884E+02 -0.10909703079E+02  0.34360905824E+02  0.41800000000E+01 0. -1.
</event>
<event>
11    1  0.8551154E-009  0.1330825E+03  0.7561462E-02  0.1115539E+00
         22   -1    0    0    0    0  0.00000000000E+00  0.00000000000E+00  0.31688959570E+03  0.31688959570E+03  0.00000000000E+00 0. -1.
         22   -1    0    0    0    0 -0.00000000000E+00 -0.00000000000E+00 -0.27664019530E+04  0.27664019530E+04  0.00000000000E+00 0.  1.
         24    2    1    2    0    0 -0.40155057998E+02 -0.21425008889E+02 -0.27069324890E+04  0.27085569348E+04  0.82010422263E+02 0.  0.
         25    2    1    2    0    0  0.41946531901E+02 -0.33093015825E+01  0.35524110407E+02  0.13667636185E+03  0.12509197598E+03 0.  0.
        -24    2    1    2    0    0 -0.17914739028E+01  0.24734310471E+02  0.22189602134E+03  0.23805825199E+03  0.82576579957E+02 0.  0.
        -13    1    3    3    0    0 -0.62288082862E+02  0.85763592966E+00 -0.17419804880E+04  0.17430939623E+04  0.00000000000E+00 0.  1.
         14    1    3    3    0    0  0.22133024865E+02 -0.22282644818E+02 -0.96495200101E+03  0.96546297252E+03  0.00000000000E+00 0. -1.
         11    1    5    5    0    0  0.75560174598E+01  0.49341970055E+02  0.19126011110E+03  0.19766677391E+03  0.00000000000E+00 0. -1.
        -12    1    5    5    0    0 -0.93474913626E+01 -0.24607659584E+02  0.30635910243E+02  0.40391478079E+02  0.00000000000E+00 0.  1.
          5    1    4    4  501    0 -0.32932856648E+02  0.25075820708E+02  0.38147743975E+02  0.56445483447E+02  0.41800000000E+01 0. -1.
         -5    1    4    4    0  501  0.74879388549E+02 -0.28385122290E+02 -0.26236335682E+01  0.80230878407E+02  0.41800000000E+01 0. -1.
</event>
<event>
11    1  0.8551154E-009  0.1519923E+03  0.7561462E-02  0.1094860E+00
         22   -1    0    0    0    0  0.00000000000E+00  0.00000000000E+00  0.15305006126E+03  0.15305006126E+03  0.00000000000E+00 0. -1.
         22   -1    0    0    0    0 -0.00000000000E+00 -0.00000000000E+00 -0.12523135305E+04  0.12523135305E+04  0.00000000000E+00 0. -1.
        -24    2    1    2    0    0 -0.54223579903E+02 -0.69022159281E+02 -0.10753988300E+04  0.10819239720E+04  0.79828456735E+02 0.  0.
         25    2    1    2    0    0 -0.17131027254E+02  0.96213868471E+02 -0.10070631224E+03  0.18798586947E+03  0.12508535173E+03 0.  0.
         24    2    1    2    0    0  0.71354607157E+02 -0.27191709190E+02  0.76841672934E+02  0.13545375036E+03  0.81315476856E+02 0.  0.
        -13    1    5    5    0    0 -0.33395674420E+00 -0.25925464201E+02 -0.52552636829E+01  0.26454848658E+02  0.00000000000E+00 0.  1.
         14    1    5    5    0    0  0.71688563901E+02 -0.12662449894E+01  0.82096936617E+02  0.10899890170E+03  0.00000000000E+00 0. -1.
         13    1    3    3    0    0 -0.31935642183E+02 -0.28407713787E+02 -0.88270503371E+03  0.88373924886E+03  0.00000000000E+00 0. -1.
        -14    1    3    3    0    0 -0.22287937720E+02 -0.40614445494E+02 -0.19269379625E+03  0.19818472309E+03  0.00000000000E+00 0.  1.
          5    1    4    4  501    0  0.43746124489E+02  0.42713149431E+02 -0.35365787016E+01  0.61384984573E+02  0.41800000000E+01 0. -1.
         -5    1    4    4    0  501 -0.60877151743E+02  0.53500719040E+02 -0.97169733537E+02  0.12660088490E+03  0.41800000000E+01 0. -1.
</event>
<event>
11    1  0.8551154E-009  0.1723072E+03  0.7561462E-02  0.1076041E+00
         22   -1    0    0    0    0  0.00000000000E+00  0.00000000000E+00  0.44168285722E+03  0.44168285722E+03  0.00000000000E+00 0. -1.
         22   -1    0    0    0    0 -0.00000000000E+00 -0.00000000000E+00 -0.12080645232E+04  0.12080645232E+04  0.00000000000E+00 0. -1.
        -24    2    1    2    0    0 -0.38068467195E+02  0.95943997665E+01 -0.99074176658E+03  0.99479181746E+03  0.80624136275E+02 0.  0.
         25    2    1    2    0    0  0.48545271561E+02 -0.12681969996E+03 -0.16033958248E+03  0.24453920033E+03  0.12510299397E+03 0.  0.
         24    2    1    2    0    0 -0.10476804366E+02  0.11722530019E+03  0.38469968309E+03  0.41041636262E+03  0.81217055486E+02 0.  0.
        -11    1    5    5    0    0  0.16250570367E+02  0.96580610648E+01  0.14623255234E+03  0.14744937621E+03  0.00000000000E+00 0.  1.
         12    1    5    5    0    0 -0.26727374734E+02  0.10756723912E+03  0.23846713075E+03  0.26296698641E+03  0.00000000000E+00 0. -1.
         13    1    3    3    0    0  0.85847723243E+01 -0.57117778776E+01 -0.68932479676E+03  0.68940191337E+03  0.00000000000E+00 0. -1.
        -14    1    3    3    0    0 -0.46653239519E+02  0.15306177644E+02 -0.30141696981E+03  0.30538990409E+03  0.00000000000E+00 0.  1.
          5    1    4    4  501    0  0.59939657900E+01  0.10169801748E+01 -0.94023066514E+02  0.94312095255E+02  0.41800000000E+01 0. -1.
         -5    1    4    4    0  501  0.42551305771E+02 -0.12783668013E+03 -0.66316515969E+02  0.15022710508E+03  0.41800000000E+01 0. -1.
</event>
<event>
11    1  0.8551154E-009  0.1523207E+03  0.7561462E-02  0.1094531E+00
         22   -1    0    0    0    0  0.00000000000E+00  0.00000000000E+00  0.26292675996E+03  0.26292675996E+03  0.00000000000E+00 0.  1.
         22   -1    0    0    0    0 -0.00000000000E+00 -0.00000000000E+00 -0.65042315839E+03  0.65042315839E+03  0.00000000000E+00 0.  1.
        -24    2    1    2    0    0 -0.81519122960E+02 -0.30018595209E+02 -0.56397831922E+03  0.57619553548E+03  0.79895350833E+02 0.  0.
         25    2    1    2    0    0  0.91280346233E+02  0.41379557284E+01  0.17865886060E+02  0.15594151577E+03  0.12509733078E+03 0.  0.
         24    2    1    2    0    0 -0.97612232726E+01  0.25880639481E+02  0.15861603473E+03  0.18121286711E+03  0.83150272110E+02 0.  0.
        -13    1    5    5    0    0 -0.88924000154E+01  0.44745161238E+02  0.15552399485E+03  0.16207688671E+03  0.00000000000E+00 0.  1.
         14    1    5    5    0    0 -0.86882325718E+00 -0.18864521757E+02  0.30920398783E+01  0.19135980393E+02  0.00000000000E+00 0. -1.
         11    1    3    3    0    0  0.76736991583E+01 -0.62978481911E+01 -0.84020674303E+01  0.13005509898E+02  0.00000000000E+00 0. -1.
        -12    1    3    3    0    0 -0.89192822118E+02 -0.23720747018E+02 -0.55557625179E+03  0.56319002558E+03  0.00000000000E+00 0.  1.
          5    1    4    4  501    0  0.44097948479E+02  0.61501439642E+02 -0.10107501806E+02  0.76463652350E+02  0.41800000000E+01 0.  1.
         -5    1    4    4    0  501  0.47182397754E+02 -0.57363483913E+02  0.27973387866E+02  0.79477863416E+02  0.41800000000E+01 0.  1.
</event>
<event>
11    1  0.8551154E-009  0.1615655E+03  0.7561462E-02  0.1085614E+00
         22   -1    0    0    0    0  0.00000000000E+00  0.00000000000E+00  0.87510487054E+02  0.87510487054E+02  0.00000000000E+00 0. -1.
         22   -1    0    0    0    0 -0.00000000000E+00 -0.00000000000E+00 -0.14132923242E+04  0.14132923242E+04  0.00000000000E+00 0. -1.
         24    2    1    2    0    0 -0.16211133438E+02 -0.22251281942E+02 -0.90940350078E+03  0.91320093915E+03  0.78506736296E+02 0.  0.
         25    2    1    2    0    0 -0.10028672833E+01  0.12070361108E+03 -0.42508416979E+03  0.45925459521E+03  0.12509142396E+03 0.  0.
        -24    2    1    2    0    0  0.17214000721E+02 -0.98452329137E+02  0.87058334379E+01  0.12834727687E+03  0.80050290517E+02 0.  0.
        -13    1    3    3    0    0  0.23785059064E+02 -0.33360510335E+02 -0.51139701929E+03  0.51303563621E+03  0.00000000000E+00 0.  1.
         14    1    3    3    0    0 -0.39996192502E+02  0.11109228393E+02 -0.39800648149E+03  0.40016530294E+03  0.00000000000E+00 0. -1.
         11    1    5    5    0    0  0.45954306966E+02 -0.41248494006E+02  0.16337750139E+02  0.63876119685E+02  0.00000000000E+00 0. -1.
        -12    1    5    5    0    0 -0.28740306244E+02 -0.57203835132E+02 -0.76319167015E+01  0.64471157189E+02  0.00000000000E+00 0.  1.
          5    1    4    4  501    0 -0.46830429666E+02  0.64027167699E+02 -0.10915224370E+03  0.13499722979E+03  0.41800000000E+01 0.  1.
         -5    1    4    4    0  501  0.45827562382E+02  0.56676443380E+02 -0.31593192608E+03  0.32425736542E+03  0.41800000000E+01 0.  1.
</event>
<event>
11    1  0.8551154E-009  0.1310570E+03  0.7561462E-02  0.1117977E+00
         22   -1    0    0    0    0  0.00000000000E+00  0.00000000000E+00  0.54597515931E+03  0.54597515931E+03  0.00000000000E+00 0. -1.
         22   -1    0    0    0    0 -0.00000000000E+00 -0.00000000000E+00 -0.38989909826E+03  0.38989909826E+03  0.00000000000E+00 0. -1.
         24    2    1    2    0    0  0.23370733947E+02 -0.31056949815E+02 -0.35790017833E+03  0.36869347450E+03  0.79571446883E+02 0.  0.
         25    2    1    2    0    0 -0.40731249248E+02  0.29710061066E+02  0.19457989982E+03  0.23674949489E+03  0.12508902239E+03 0.  0.
        -24    2    1    2    0    0  0.17360515301E+02  0.13468887485E+01  0.31939633955E+03  0.33043128818E+03  0.82871061803E+02 0.  0.
        -11    1    3    3    0    0 -0.52984651902E+01  0.17455802233E+02 -0.24396233608E+02  0.30462353474E+02  0.00000000000E+00 0.  1.
         12    1    3    3    0    0  0.28669199137E+02 -0.48512752048E+02 -0.33350394472E+03  0.33823112103E+03  0.00000000000E+00 0. -1.
         11    1    5    5    0    0  0.35395055539E+01 -0.32950747671E+02  0.24624487228E+03  0.24846492105E+03  0.00000000000E+00 0. -1.
        -12    1    5    5    0    0  0.13821009747E+02  0.34297636420E+02  0.73151467279E+02  0.81966367124E+02  0.00000000000E+00 0.  1.
          5    1    4    4  501    0 -0.83338662554E+01  0.23512033233E+02 -0.11656706087E+02  0.27849959251E+02  0.41800000000E+01 0.  1.
         -5    1    4    4    0  501 -0.32397382993E+02  0.61980278339E+01  0.20623660591E+03  0.20889953564E+03  0.41800000000E+01 0.  1.
</event>
<event>
11    1  0.8551154E-009  0.2687438E+03  0.7561462E-02  0.1014362E+00
         22   -1    0    0    0    0  0.00000000000E+00  0.00000000000E+00  0.26589237695E+03  0.26589237695E+03  0.00000000000E+00 0. -1.
         22   -1    0    0    0    0 -0.00000000000E+00 -0.00000000000E+00 -0.15558417285E+04  0.15558417285E+04  0.00000000000E+00 0.  1.
        -24    2    1    2    0    0  0.14106905986E+02  0.58508730664E+01 -0.10895757175E+04  0.10925882816E+04  0.79628332214E+02 0.  0.
         25    2    1    2    0    0  0.10119099689E+03 -0.21415732622E+03 -0.34482798276E+03  0.43665924291E+03  0.12514782657E+03 0.  0.
         24    2    1    2    0    0 -0.11529790288E+03  0.20830645315E+03  0.14445434874E+03  0.29248658097E+03  0.89421229830E+02 0.  0.
        -11    1    5    5    0    0 -0.44385906560E+02  0.14335835065E+03  0.51284191992E+02  0.15859317057E+03  0.00000000000E+00 0.  1.
         12    1    5    5    0    0 -0.70911996316E+02  0.64948102500E+02  0.93170156749E+02  0.13389341040E+03  0.00000000000E+00 0. -1.
         11    1    3    3    0    0 -0.28775954837E+02  0.25529750402E+01 -0.21200232317E+03  0.21396158134E+03  0.00000000000E+00 0. -1.
        -12    1    3    3    0    0  0.42882860823E+02  0.32978980262E+01 -0.87757339434E+03  0.87862670022E+03  0.00000000000E+00 0.  1.
          5    1    4    4  501    0  0.27428252370E+02 -0.11683316539E+03 -0.26435479964E+03  0.29035018522E+03  0.41800000000E+01 0.  1.
         -5    1    4    4    0  501  0.73762744520E+02 -0.97324160828E+02 -0.80473183123E+02  0.14630905769E+03  0.41800000000E+01 0.  1.
</event>
<event>
11    1  0.8551154E-009  0.1556301E+03  0.7561462E-02  0.1091261E+00
         22   -1    0    0    0    0  0.00000000000E+00  0.00000000000E+00  0.21002812409E+03  0.21002812409E+03  0.00000000000E+00 0.  1.
         22   -1    0    0    0    0 -0.00000000000E+00 -0.00000000000E+00 -0.59546739773E+03  0.59546739773E+03  0.00000000000E+00 0. -1.
         24    2    1    2    0    0  0.38774017323E+02 -0.55011274224E+02 -0.44498346743E+03  0.45673776621E+03  0.77906585632E+02 0.  0.
         25    2    1    2    0    0 -0.24944512359E+01  0.13296687349E+03 -0.48433180991E+02  0.18889090870E+03  0.12509032991E+03 0.  0.
        -24    2    1    2    0    0 -0.36279566087E+02 -0.77955599261E+02  0.10797737479E+03  0.15986684691E+03  0.80653660197E+02 0.  0.
        -13    1    3    3    0    0  0.22422115374E+02  0.15730086126E+02 -0.78769455572E+02  0.83395527449E+02  0.00000000000E+00 0.  1.
         14    1    3    3    0    0  0.16351901949E+02 -0.70741360350E+02 -0.36621401186E+03  0.37334223876E+03  0.00000000000E+00 0. -1.
         13    1    5    5    0    0 -0.15772221423E+02  0.87572582015E+01 -0.21927400836E+01  0.18173074833E+02  0.00000000000E+00 0. -1.
        -14    1    5    5    0    0 -0.20507344664E+02 -0.86712857463E+02  0.11017011487E+03  0.14169377208E+03  0.00000000000E+00 0.  1.
          5    1    4    4  501    0  0.49301742101E+02  0.10299340548E+03 -0.41677249147E+01  0.11433785759E+03  0.41800000000E+01 0. -1.
         -5    1    4    4    0  501 -0.51796193337E+02  0.29973468004E+02 -0.44265456076E+02  0.74553051112E+02  0.41800000000E+01 0. -1.
</event>
<event>
11    1  0.8551154E-009  0.1821796E+03  0.7561462E-02  0.1067893E+00
         22   -1    0    0    0    0  0.00000000000E+00  0.00000000000E+00  0.49174079703E+03  0.49174079703E+03  0.00000000000E+00 0. -1.
         22   -1    0    0    0    0 -0.00000000000E+00 -0.00000000000E+00 -0.20025108602E+04  0.20025108602E+04  0.00000000000E+00 0. -1.
         24    2    1    2    0    0  0.22673316263E+02  0.12315179119E+03 -0.15857973622E+04  0.15931700050E+04  0.88073535650E+02 0.  0.
         25    2    1    2    0    0 -0.35316993293E+01 -0.20367759856E+03 -0.37047203906E+03  0.44090461448E+03  0.12510120020E+03 0.  0.
        -24    2    1    2    0    0 -0.19141616934E+02  0.80525807368E+02  0.44549933814E+03  0.46017703778E+03  0.80264803379E+02 0.  0.
        -11    1    3    3    0    0 -0.12713385022E+02 -0.79485478059E+01 -0.92052871212E+02  0.93265967370E+02  0.00000000000E+00 0.  1.
         12    1    3    3    0    0  0.35386701285E+02  0.13110033900E+03 -0.14937444910E+04  0.14999040376E+04  0.00000000000E+00 0. -1.
         13    1    5    5    0    0 -0.25968070074E+02  0.87535259033E+02  0.28259828789E+03  0.29698241456E+03  0.00000000000E+00 0. -1.
        -14    1    5    5    0    0  0.68264531398E+01 -0.70094516651E+01  0.16290105025E+03  0.16319462322E+03  0.00000000000E+00 0.  1.
          5    1    4    4  501    0  0.17046660642E+02 -0.80650321682E+02 -0.26481819871E+03  0.27738279289E+03  0.41800000000E+01 0. -1.
         -5    1    4    4    0  501 -0.20578359971E+02 -0.12302727688E+03 -0.10565384035E+03  0.16352182159E+03  0.41800000000E+01 0. -1.
</event>
<event>
11    1  0.8551154E-009  0.1767748E+03  0.7561462E-02  0.1072282E+00
         22   -1    0    0    0    0  0.00000000000E+00  0.00000000000E+00  0.18479386787E+04  0.18479386787E+04  0.00000000000E+00 0.  1.
         22   -1    0    0    0    0 -0.00000000000E+00 -0.00000000000E+00 -0.23030250657E+03  0.23030250657E+03  0.00000000000E+00 0. -1.
        -24    2    1    2    0    0 -0.40247619217E+02 -0.87627417716E+02 -0.17328187707E+03  0.21381064316E+03  0.79937144179E+02 0.  0.
         25    2    1    2    0    0  0.12585192531E+03  0.16630414046E+03  0.41202027455E+03  0.47844168269E+03  0.12509981158E+03 0.  0.
         24    2    1    2    0    0 -0.85604306095E+02 -0.78676722745E+02  0.13788977746E+04  0.13859888594E+04  0.78025134211E+02 0.  0.
        -13    1    5    5    0    0 -0.60709279718E+02 -0.12878986904E+02  0.87582535688E+03  0.87802137827E+03  0.00000000000E+00 0.  1.
         14    1    5    5    0    0 -0.24895026376E+02 -0.65797735842E+02  0.50307241776E+03  0.50796748114E+03  0.00000000000E+00 0. -1.
         11    1    3    3    0    0 -0.26652496184E+02 -0.41252455750E+02 -0.15423520928E+03  0.16186605709E+03  0.00000000000E+00 0. -1.
        -12    1    3    3    0    0 -0.13595123032E+02 -0.46374961966E+02 -0.19046667792E+02  0.51944586066E+02  0.00000000000E+00 0.  1.
          5    1    4    4  501    0  0.12750854808E+03  0.10416060683E+03  0.20911026188E+03  0.26618120871E+03  0.41800000000E+01 0.  1.
         -5    1    4    4    0  501 -0.16566227695E+01  0.62143533628E+02  0.20291001267E+03  0.21226047398E+03  0.41800000000E+01 0.  1.
</event>
<event>
11    1  0.8551154E-009  0.2308721E+03  0.7561462E-02  0.1034613E+00
         22   -1    0    0    0    0  0.00000000000E+00  0.00000000000E+00  0.41907710342E+03  0.41907710342E+03  0.00000000000E+00 0.  1.
         22   -1    0    0    0    0 -0.00000000000E+00 -0.00000000000E+00 -0.63381185724E+03  0.63381185724E+03  0.00000000000E+00 0. -1.
         24    2    1    2    0    0 -0.55564035149E+02 -0.18923392987E+03 -0.54160961166E+03  0.58161927107E+03  0.77737782446E+02 0.  0.
         25    2    1    2    0    0 -0.22174273666E+02  0.17353931373E+03  0.14928973492E+03  0.26180841623E+03  0.12509448441E+03 0.  0.
        -24    2    1    2    0    0  0.77738308815E+02  0.15694616138E+02  0.17758512292E+03  0.20946127337E+03  0.77768782465E+02 0.  0.
        -13    1    3    3    0    0 -0.33629193900E+02 -0.23476752592E+02 -0.68573481954E+02  0.79902459423E+02  0.00000000000E+00 0.  1.
         14    1    3    3    0    0 -0.21934841249E+02 -0.16575717728E+03 -0.47303612970E+03  0.50171681164E+03  0.00000000000E+00 0. -1.
         13    1    5    5    0    0  0.34355627526E+02  0.35193521441E+02  0.38472227779E+02  0.62442016338E+02  0.00000000000E+00 0. -1.
        -14    1    5    5    0    0  0.43382681289E+02 -0.19498905302E+02  0.13911289514E+03  0.14701925703E+03  0.00000000000E+00 0.  1.
          5    1    4    4  501    0  0.12330268896E+01  0.13391568392E+03  0.34929482810E+02  0.13846469558E+03  0.41800000000E+01 0.  1.
         -5    1    4    4    0  501 -0.23407300555E+02  0.39623629819E+02  0.11436025211E+03  0.12334372064E+03  0.41800000000E+01 0.  1.
</event>
<event>
11    1  0.8551154E-009  0.2940758E+03  0.7561462E-02  0.1002730E+00
         22   -1    0    0    0    0  0.00000000000E+00  0.00000000000E+00  0.28172640683E+03  0.28172640683E+03  0.00000000000E+00 0. -1.
         22   -1    0    0    0    0 -0.00000000000E+00 -0.00000000000E+00 -0.18115215047E+04  0.18115215047E+04  0.00000000000E+00 0.  1.
         24    2    1    2    0    0 -0.19180725952E+03  0.19619696041E+03 -0.12755301002E+04  0.13077024550E+04  0.88461302397E+02 0.  0.
         25    2    1    2    0    0  0.18485165919E+03 -0.16437230578E+03 -0.47402512145E+03  0.54912262533E+03  0.12508977204E+03 0.  0.
        -24    2    1    2    0    0  0.69556003347E+01 -0.31824654630E+02  0.21976012379E+03  0.23642283127E+03  0.80870601072E+02 0.  0.
        -11    1    3    3    0    0 -0.18759861307E+03  0.20499960676E+03 -0.12456851066E+04  0.12763030452E+04  0.00000000000E+00 0.  1.
         12    1    3    3    0    0 -0.42086464589E+01 -0.88026463492E+01 -0.29844993585E+02  0.31399409705E+02  0.00000000000E+00 0. -1.
         13    1    5    5    0    0 -0.17230024701E+02 -0.30004931573E+02  0.20527927587E+03  0.20817480821E+03  0.00000000000E+00 0. -1.
        -14    1    5    5    0    0  0.24185625035E+02 -0.18197230577E+01  0.14480847919E+02  0.28248023060E+02  0.00000000000E+00 0.  1.
          5    1    4    4  501    0  0.99002691386E+02 -0.14103746997E+03 -0.39124166040E+03  0.42752849036E+03  0.41800000000E+01 0.  1.
         -5    1    4    4    0  501  0.85848967804E+02 -0.23334835814E+02 -0.82783461051E+02  0.12159413497E+03  0.41800000000E+01 0.  1.
</event>
<event>
11    1  0.8551154E-009  0.2152752E+03  0.7561462E-02  0.1044218E+00
         22   -1    0    0    0    0  0.00000000000E+00  0.00000000000E+00  0.12956804736E+04  0.12956804736E+04  0.00000000000E+00 0. -1.
         22   -1    0    0    0    0 -0.00000000000E+00 -0.00000000000E+00 -0.75803016793E+03  0.75803016793E+03  0.00000000000E+00 0. -1.
         24    2    1    2    0    0 -0.84872549815E+02 -0.11771448701E+02 -0.65035004645E+03  0.66086071766E+03  0.80248292936E+02 0.  0.
         25    2    1    2    0    0  0.17508133868E+03 -0.13509661241E+03  0.76864061073E+02  0.26544365069E+03  0.12509067899E+03 0.  0.
        -24    2    1    2    0    0 -0.90208788863E+02  0.14686806111E+03  0.11111362911E+04  0.11274062732E+04  0.81934086767E+02 0.  0.
        -13    1    3    3    0    0 -0.52842765952E+02  0.25437374241E+02 -0.21867345856E+03  0.22640119125E+03  0.00000000000E+00 0.  1.
         14    1    3    3    0    0 -0.32029783864E+02 -0.37208822942E+02 -0.43167658789E+03  0.43445952641E+03  0.00000000000E+00 0. -1.
         11    1    5    5    0    0 -0.88594601319E+02  0.15121020509E+03  0.11080871716E+04  0.11218603788E+04  0.00000000000E+00 0. -1.
        -12    1    5    5    0    0 -0.16141875441E+01 -0.43421439812E+01  0.30491194272E+01  0.55458944330E+01  0.00000000000E+00 0.  1.
          5    1    4    4  501    0  0.45214758779E+01 -0.71685861995E+02  0.18309238121E+02  0.74242892957E+02  0.41800000000E+01 0. -1.
         -5    1    4    4    0  501  0.17055986280E+03 -0.63410750410E+02  0.58554822952E+02  0.19120075773E+03  0.41800000000E+01 0. -1.
</event>
<event>
11    1  0.8551154E-009  0.1338457E+03  0.7561462E-02  0.1114632E+00
         22   -1    0    0    0    0  0.00000000000E+00  0.00000000000E+00  0.23262365811E+03  0.23262365811E+03  0.00000000000E+00 0.  1.
         22   -1    0    0    0    0 -0.00000000000E+00 -0.00000000000E+00 -0.55964388691E+03  0.55964388691E+03  0.00000000000E+00 0. -1.
        -24    2    1    2    0    0  0.10941485472E+02 -0.23840168505E+02 -0.39516516127E+03  0.40507941392E+03  0.85122013373E+02 0.  0.
         25    2    1    2    0    0  0.26258394687E+02  0.52779913188E+02 -0.11526046287E+03  0.18002100575E+03  0.12508943074E+03 0.  0.
         24    2    1    2    0    0 -0.37199880159E+02 -0.28939744683E+02  0.18340539534E+03  0.20716712535E+03  0.84019871923E+02 0.  0.
        -13    1    5    5    0    0 -0.61225911731E+02 -0.82752662822E+01  0.14330896159E+03  0.15605944627E+03  0.00000000000E+00 0.  1.
         14    1    5    5    0    0  0.24026031572E+02 -0.20664478400E+02  0.40096433757E+02  0.51107679078E+02  0.00000000000E+00 0. -1.
         13    1    3    3    0    0  0.79188496345E+01  0.36534442139E+01 -0.36107284375E+03  0.36117814763E+03  0.00000000000E+00 0. -1.
        -14    1    3    3    0    0  0.30226358372E+01 -0.27493612719E+02 -0.34092317530E+02  0.43901266295E+02  0.00000000000E+00 0.  1.
          5    1    4    4  501    0  0.47458279572E+02 -0.27545596372E+02 -0.43074482156E+02  0.69885131412E+02  0.41800000000E+01 0. -1.
         -5    1    4    4    0  501 -0.21199884885E+02  0.80325509560E+02 -0.72185980710E+02  0.11013587434E+03  0.41800000000E+01 0. -1.
</event>
<event>
11    1  0.8551154E-009  0.1431388E+03  0.7561462E-02  0.1104103E+00
         22   -1    0    0    0    0  0.00000000000E+00  0.00000000000E+00  0.46638838039E+03  0.46638838039E+03  0.00000000000E+00 0. -1.
         22   -1    0    0    0    0 -0.00000000000E+00 -0.00000000000E+00 -0.24573831065E+03  0.24573831065E+03  0.00000000000E+00 0. -1.
        -24    2    1    2    0    0 -0.18345473763E+02  0.17402039778E+02 -0.14985387861E+03  0.17520214911E+03  0.87179244790E+02 0.  0.
         25    2    1    2    0    0  0.81321097187E+02  0.10023839638E+02 -0.23195380250E+01  0.14955322612E+03  0.12508872442E+03 0.  0.
         24    2    1    2    0    0 -0.62975623424E+02 -0.27425879416E+02  0.37282348637E+03  0.38737131581E+03  0.79630875383E+02 0.  0.
        -11    1    5    5    0    0  0.95793332523E+01 -0.27911648886E+02  0.69787305477E+02  0.75769992575E+02  0.00000000000E+00 0.  1.
         12    1    5    5    0    0 -0.72554956676E+02  0.48576946983E+00  0.30303618090E+03  0.31160132324E+03  0.00000000000E+00 0. -1.
         11    1    3    3    0    0 -0.13577784756E+02  0.18391805058E+02 -0.16122217945E+03  0.16283490375E+03  0.00000000000E+00 0. -1.
        -12    1    3    3    0    0 -0.47676890077E+01 -0.98976527960E+00  0.11368300841E+02  0.12367245360E+02  0.00000000000E+00 0.  1.
          5    1    4    4  501    0  0.87707747645E+02  0.53078686453E+02  0.12549466629E+02  0.10336806792E+03  0.41800000000E+01 0. -1.
         -5    1    4    4    0  501 -0.63866504577E+01 -0.43054846815E+02 -0.14869004654E+02  0.46185158198E+02  0.41800000000E+01 0. -1.
</event>
<event>
11    1  0.8551154E-009  0.1422285E+03  0.7561462E-02  0.1105095E+00
         22   -1    0    0    0    0  0.00000000000E+00  0.00000000000E+00  0.55926415760E+03  0.55926415760E+03  0.00000000000E+00 0.  1.
         22   -1    0    0    0    0 -0.00000000000E+00 -0.00000000000E+00 -0.10558494926E+04  0.10558494926E+04  0.00000000000E+00 0. -1.
         24    2    1    2    0    0 -0.62195975815E+02  0.39771221040E+01 -0.55003669694E+03  0.55958317406E+03  0.81907287868E+02 0.  0.
         25    2    1    2    0    0  0.45077088252E+02  0.61792359313E+02 -0.48330655993E+03  0.50505575885E+03  0.12508336868E+03 0.  0.
        -24    2    1    2    0    0  0.17118887563E+02 -0.65769481417E+02  0.53675792186E+03  0.55047471729E+03  0.10146263699E+03 0.  0.
        -11    1    3    3    0    0 -0.71122895140E+02  0.27686196951E+02 -0.44759714662E+03  0.45405748246E+03  0.00000000000E+00 0.  1.
         12    1    3    3    0    0  0.89269193250E+01 -0.23709074847E+02 -0.10243955032E+03  0.10552569160E+03  0.00000000000E+00 0. -1.
         11    1    5    5    0    0  0.12797833686E+01  0.22561531315E+02  0.22280422324E+03  0.22394727601E+03  0.00000000000E+00 0. -1.
        -12    1    5    5    0    0  0.15839104195E+02 -0.88331012732E+02  0.31395369862E+03  0.32652744128E+03  0.00000000000E+00 0.  1.
          5    1    4    4  501    0  0.65390314426E+02  0.86995621469E+02 -0.41922221140E+03  0.43313839164E+03  0.41800000000E+01 0. -1.
         -5    1    4    4    0  501 -0.20313226174E+02 -0.25203262156E+02 -0.64084348527E+02  0.71917367214E+02  0.41800000000E+01 0. -1.
</event>
<event>
11    1  0.8551154E-009  0.1435390E+03  0.7561462E-02  0.1103670E+00
         22   -1    0    0    0    0  0.00000000000E+00  0.00000000000E+00  0.12002935699E+04  0.12002935699E+04  0.00000000000E+00 0. -1.
         22   -1    0    0    0    0 -0.00000000000E+00 -0.00000000000E+00 -0.45873814778E+03  0.45873814778E+03  0.00000000000E+00 0.  1.
         24    2    1    2    0    0 -0.69350857660E+02  0.10046194855E+02 -0.42211351831E+03  0.43534265575E+03  0.80205598850E+02 0.  0.
         25    2    1    2    0    0  0.84073156714E+02  0.20807745956E+02  0.17744832818E+03  0.23374492467E+03  0.12509005821E+03 0.  0.
        -24    2    1    2    0    0 -0.14722299054E+02 -0.30853940811E+02  0.98622061224E+03  0.98994413724E+03  0.78673929067E+02 0.  0.
        -13    1    3    3    0    0 -0.48744696466E+02  0.25568775652E+02 -0.39131176242E+03  0.39516414707E+03  0.00000000000E+00 0.  1.
         14    1    3    3    0    0 -0.20606161194E+02 -0.15522580797E+02 -0.30801755885E+02  0.40178508675E+02  0.00000000000E+00 0. -1.
         13    1    5    5    0    0  0.97486071659E+01 -0.23808959180E+02  0.89117672737E+03  0.89154801401E+03  0.00000000000E+00 0. -1.
        -14    1    5    5    0    0 -0.24470906220E+02 -0.70449816311E+01  0.95043884863E+02  0.98396123233E+02  0.00000000000E+00 0.  1.
          5    1    4    4  501    0  0.50721389773E+02 -0.49657568194E+02  0.10769700195E+03  0.12905289647E+03  0.41800000000E+01 0. -1.
         -5    1    4    4    0  501  0.33351766941E+02  0.70465314150E+02  0.69751326234E+02  0.10469202820E+03  0.41800000000E+01 0. -1.
</event>
<event>
11    1  0.8551154E-009  0.1305373E+03  0.7561462E-02  0.1118611E+00
         22   -1    0    0    0    0  0.00000000000E+00  0.00000000000E+00  0.36551303879E+04  0.36551303879E+04  0.00000000000E+00 0. -1.
         22   -1    0    0    0    0 -0.00000000000E+00 -0.00000000000E+00 -0.11824731641E+03  0.11824731641E+03  0.00000000000E+00 0.  1.
        -24    2    1    2    0    0  0.36198594251E+02 -0.65475962666E+00 -0.89027731716E+02  0.12511726337E+03  0.80110084531E+02 0.  0.
         25    2    1    2    0    0 -0.66709386682E+02  0.10256143069E+02  0.46754795007E+03  0.48867524544E+03  0.12508828540E+03 0.  0.
         24    2    1    2    0    0  0.30510792431E+02 -0.96013834425E+01  0.31583628531E+04  0.31595851955E+04  0.81851087895E+02 0.  0.
        -11    1    5    5    0    0 -0.26466417313E+01 -0.61711376424E+01  0.21045121820E+02  0.22090378102E+02  0.00000000000E+00 0.  1.
         12    1    5    5    0    0  0.33157434162E+02 -0.34302458001E+01  0.31373177313E+04  0.31374948174E+04  0.00000000000E+00 0. -1.
         13    1    3    3    0    0 -0.44646963456E+00  0.12934326838E+02 -0.84827011263E+02  0.85808612539E+02  0.00000000000E+00 0. -1.
        -14    1    3    3    0    0  0.36645063886E+02 -0.13589086465E+02 -0.42007204529E+01  0.39308650835E+02  0.00000000000E+00 0.  1.
          5    1    4    4  501    0 -0.44265402334E+02  0.56976363310E+02  0.14554830853E+03  0.16250389022E+03  0.41800000000E+01 0. -1.
         -5    1    4    4    0  501 -0.22443984348E+02 -0.46720220241E+02  0.32199964154E+03  0.32617135522E+03  0.41800000000E+01 0. -1.
</event>
<event>
11    1  0.8551154E-009  0.1762979E+03  0.7561462E-02  0.1072677E+00
         22   -1    0    0    0    0  0.00000000000E+00  0.00000000000E+00  0.11925279719E+04  0.11925279719E+04  0.00000000000E+00 0.  1.
         22   -1    0    0    0    0 -0.00000000000E+00 -0.00000000000E+00 -0.86475654970E+03  0.86475654970E+03  0.00000000000E+00 0.  1.
        -24    2    1    2    0    0  0.67364307530E+01 -0.14162794468E+02 -0.80731668171E+03  0.81151965250E+03  0.80981217511E+02 0.  0.
         25    2    1    2    0    0  0.11816258782E+03  0.13342517506E+02  0.99581241747E+02  0.19925973811E+03  0.12509036570E+03 0.  0.
         24    2    1    2    0    0 -0.12489901858E+03  0.82027696263E+00  0.10355068621E+04  0.10465051310E+04  0.85428858719E+02 0.  0.
        -11    1    5    5    0    0 -0.88156660728E+02 -0.20193314537E+02  0.90021680783E+03  0.90474840032E+03  0.00000000000E+00 0.  1.
         12    1    5    5    0    0 -0.36742357848E+02  0.21013591499E+02  0.13529005431E+03  0.14175673064E+03  0.00000000000E+00 0. -1.
         11    1    3    3    0    0 -0.11445840431E+02 -0.15477100620E+02 -0.44498188457E+02  0.48483365010E+02  0.00000000000E+00 0. -1.
        -12    1    3    3    0    0  0.18182271184E+02  0.13143061517E+01 -0.76281849325E+03  0.76303628749E+03  0.00000000000E+00 0.  1.
          5    1    4    4  501    0  0.37683451776E+02  0.65805685644E+02  0.51390740069E+02  0.91700116497E+02  0.41800000000E+01 0.  1.
         -5    1    4    4    0  501  0.80479136046E+02 -0.52463168138E+02  0.48190501679E+02  0.10755962161E+03  0.41800000000E+01 0.  1.
</event>
<event>
11    1  0.8551154E-009  0.1388020E+03  0.7561462E-02  0.1108904E+00
         22   -1    0    0    0    0  0.00000000000E+00  0.00000000000E+00  0.67091269571E+03  0.67091269571E+03  0.00000000000E+00 0. -1.
         22   -1    0    0    0    0 -0.00000000000E+00 -0.00000000000E+00 -0.28453089841E+04  0.28453089841E+04  0.00000000000E+00 0.  1.
        -24    2    1    2    0    0 -0.53082706535E+02  0.16837791248E+02 -0.27693956622E+04  0.27711775953E+04  0.82290010147E+02 0.  0.
         25    2    1    2    0    0 -0.97722721867E+01 -0.87144883782E+01 -0.14594526494E+02  0.12661710593E+03  0.12508977456E+03 0.  0.
         24    2    1    2    0    0  0.62854978722E+02 -0.81233028696E+01  0.60959390030E+03  0.61842697860E+03  0.82646646538E+02 0.  0.
        -13    1    5    5    0    0  0.57981837491E+02 -0.23749258033E+02  0.22715893948E+03  0.23564189891E+03  0.00000000000E+00 0.  1.
         14    1    5    5    0    0  0.48731412315E+01  0.15625955164E+02  0.38243496082E+03  0.38278507970E+03  0.00000000000E+00 0. -1.
         11    1    3    3    0    0 -0.84906160644E+01 -0.31584457832E+02 -0.75848615086E+03  0.75919095726E+03  0.00000000000E+00 0. -1.
        -12    1    3    3    0    0 -0.44592090471E+02  0.48422249080E+02 -0.20109095114E+04  0.20119866380E+04  0.00000000000E+00 0.  1.
          5    1    4    4  501    0  0.50614433163E+02 -0.27011230432E+02  0.10700035886E+02  0.58509747750E+02  0.41800000000E+01 0.  1.
         -5    1    4    4    0  501 -0.60386705350E+02  0.18296742053E+02 -0.25294562380E+02  0.68107358184E+02  0.41800000000E+01 0.  1.
</event>
<event>
11    1  0.8551154E-009  0.1418198E+03  0.7561462E-02  0.1105543E+00
         22   -1    0    0    0    0  0.00000000000E+00  0.00000000000E+00  0.19383079058E+04  0.19383079058E+04  0.00000000000E+00 0. -1.
         22   -1    0    0    0    0 -0.00000000000E+00 -0.00000000000E+00 -0.31018196364E+03  0.31018196364E+03  0.00000000000E+00 0. -1.
        -24    2    1    2    0    0  0.19491211318E+01 -0.37452976880E+02 -0.20039249669E+03  0.21909886373E+03  0.80253565705E+02 0.  0.
         25    2    1    2    0    0  0.42797491243E+02  0.86601247177E+02 -0.36076046117E+02  0.16211361360E+03  0.12509173171E+03 0.  0.
         24    2    1    2    0    0 -0.44746612375E+02 -0.49148270297E+02  0.18645944850E+04  0.18672773921E+04  0.74796082141E+02 0.  0.
        -11    1    5    5    0    0 -0.39127897447E+01  0.15841083920E+02  0.68179991747E+03  0.68199514465E+03  0.00000000000E+00 0.  1.
         12    1    5    5    0    0 -0.40833822630E+02 -0.64989354217E+02  0.11827945675E+04  0.11852822475E+04  0.00000000000E+00 0. -1.
         13    1    3    3    0    0 -0.21920969318E+02 -0.53641208497E+02 -0.11172633214E+03  0.12585976895E+03  0.00000000000E+00 0. -1.
        -14    1    3    3    0    0  0.23870090450E+02  0.16188231618E+02 -0.88666164549E+02  0.93239094788E+02  0.00000000000E+00 0.  1.
          5    1    4    4  501    0 -0.56182567076E+00  0.19055872470E+01  0.39970096381E+02  0.40237145967E+02  0.41800000000E+01 0. -1.
         -5    1    4    4    0  501  0.43359316914E+02  0.84695659930E+02 -0.76046142498E+02  0.12187646763E+03  0.41800000000E+01 0. -1.
</event>
<event>
11    1  0.8551154E-009  0.1339970E+03  0.7561462E-02  0.1114453E+00
         22   -1    0    0    0    0  0.00000000000E+00  0.00000000000E+00  0.64470155648E+03  0.64470155648E+03  0.00000000000E+00 0. -1.
         22   -1    0    0    0    0 -0.00000000000E+00 -0.00000000000E+00 -0.41943603634E+03  0.41943603634E+03  0.00000000000E+00 0. -1.
         24    2    1    2    0    0 -0.89426637067E+01  0.18309187919E+02 -0.38299682105E+03  0.39155807507E+03  0.78841382671E+02 0.  0.
         25    2    1    2    0    0  0.29342892535E+02 -0.58458728205E+02  0.15431870125E+03  0.20914051301E+03  0.12508822638E+03 0.  0.
        -24    2    1    2    0    0 -0.20400228828E+02  0.40149540286E+02  0.45394363995E+03  0.46343900474E+03  0.81747953771E+02 0.  0.
        -13    1    3    3    0    0 -0.26336371113E+02 -0.17949687798E+02 -0.83543873665E+02  0.89416858380E+02  0.00000000000E+00 0.  1.
         14    1    3    3    0    0  0.17393707406E+02  0.36258875717E+02 -0.29945294739E+03  0.30214121669E+03  0.00000000000E+00 0. -1.
         13    1    5    5    0    0 -0.42143255459E+02  0.13403700916E+02  0.37088383734E+03  0.37351108950E+03  0.00000000000E+00 0. -1.
        -14    1    5    5    0    0  0.21743026631E+02  0.26745839370E+02  0.83059802611E+02  0.89927915246E+02  0.00000000000E+00 0.  1.
          5    1    4    4  501    0 -0.43680478690E+02  0.72428998741E+00  0.70977687393E+02  0.83449465680E+02  0.41800000000E+01 0. -1.
         -5    1    4    4    0  501  0.73023371225E+02 -0.59183018192E+02  0.83341013857E+02  0.12569104733E+03  0.41800000000E+01 0. -1.
</event>
<event>
11    1  0.8551154E-009  0.1277817E+03  0.7561462E-02  0.1122025E+00
         22   -1    0    0    0    0  0.00000000000E+00  0.00000000000E+00  0.93925565452E+03  0.93925565452E+03  0.00000000000E+00 0. -1.
         22   -1    0    0    0    0 -0.00000000000E+00 -0.00000000000E+00 -0.22021860457E+03  0.22021860457E+03  0.00000000000E+00 0.  1.
         24    2    1    2    0    0 -0.44556857431E+02  0.15048490882E+02 -0.17173058308E+03  0.18938164314E+03  0.64515447531E+02 0.  0.
         25    2    1    2    0    0  0.22825164055E+02 -0.31770655938E+02  0.77066846861E+02  0.15204544669E+03  0.12509259084E+03 0.  0.
        -24    2    1    2    0    0  0.21731693376E+02  0.16722165055E+02  0.81370078617E+03  0.81804716926E+03  0.79626028454E+02 0.  0.
        -11    1    3    3    0    0 -0.43633734695E+02  0.34588551069E+02 -0.15071163912E+03  0.16066819484E+03  0.00000000000E+00 0.  1.
         12    1    3    3    0    0 -0.92312273635E+00 -0.19540060187E+02 -0.21018943967E+02  0.28713448298E+02  0.00000000000E+00 0. -1.
         11    1    5    5    0    0 -0.24401644408E+02  0.22536877392E+02  0.47638058793E+03  0.47753724006E+03  0.00000000000E+00 0. -1.
        -12    1    5    5    0    0  0.46133337784E+02 -0.58147123367E+01  0.33732019825E+03  0.34050992919E+03  0.00000000000E+00 0.  1.
          5    1    4    4  501    0 -0.14343550207E+02 -0.70854152691E+02  0.63408938388E+02  0.96250788327E+02  0.41800000000E+01 0. -1.
         -5    1    4    4    0  501  0.37168714262E+02  0.39083496753E+02  0.13657908473E+02  0.55794658366E+02  0.41800000000E+01 0. -1.
</event>
<event>
11    1  0.8551154E-009  0.1759847E+03  0.7561462E-02  0.1072938E+00
         22   -1    0    0    0    0  0.00000000000E+00  0.00000000000E+00  0.15330111870E+04  0.15330111870E+04  0.00000000000E+00 0.  1.
         22   -1    0    0    0    0 -0.00000000000E+00 -0.00000000000E+00 -0.32992517919E+03  0.32992517919E+03  0.00000000000E+00 0.  1.
        -24    2    1    2    0    0  0.42191077172E+02 -0.11664791466E+03 -0.30057075315E+03  0.33496440892E+03  0.80445973213E+02 0.  0.
         25    2    1    2    0    0 -0.11926753213E+02  0.11578275380E+03  0.73093746580E+03  0.75064192630E+03  0.12508328863E+03 0.  0.
         24    2    1    2    0    0 -0.30264323959E+02  0.86516085292E+00  0.77271929515E+03  0.77733003096E+03  0.78931553403E+02 0.  0.
        -13    1    5    5    0    0 -0.25375097359E+02 -0.35486540176E+02  0.53757259390E+03  0.53933985929E+03  0.00000000000E+00 0.  1.
         14    1    5    5    0    0 -0.48892266006E+01  0.36351701029E+02  0.23514670125E+03  0.23799017168E+03  0.00000000000E+00 0. -1.
         11    1    3    3    0    0  0.18744225968E+02 -0.38857429114E+02 -0.30231390348E+02  0.52680003482E+02  0.00000000000E+00 0. -1.
        -12    1    3    3    0    0  0.23446851204E+02 -0.77790485541E+02 -0.27033936280E+03  0.28228440543E+03  0.00000000000E+00 0.  1.
          5    1    4    4  501    0 -0.21776286675E+02 -0.22668324997E+02  0.15361223388E+03  0.15685104532E+03  0.41800000000E+01 0.  1.
         -5    1    4    4    0  501  0.98495334619E+01  0.13845107880E+03  0.57732523192E+03  0.59379088098E+03  0.41800000000E+01 0.  1.
</event>
<event>
11    1  0.8551154E-009  0.1551464E+03  0.7561462E-02  0.1091733E+00
         22   -1    0    0    0    0  0.00000000000E+00  0.00000000000E+00  0.49535177015E+03  0.49535177015E+03  0.00000000000E+00 0. -1.
         22   -1    0    0    0    0 -0.00000000000E+00 -0.00000000000E+00 -0.51885815896E+03  0.51885815896E+03  0.00000000000E+00 0. -1.
        -24    2    1    2    0    0  0.17342160094E+02  0.88816322184E+02 -0.41621921175E+03  0.43337133476E+03  0.79894880677E+02 0.  0.
         25    2    1    2    0    0 -0.27731514379E+02 -0.99204201972E+02 -0.16556547944E+02  0.16288698020E+03  0.12509012136E+03 0.  0.
         24    2    1    2    0    0  0.10389354285E+02  0.10387879788E+02  0.40926937088E+03  0.41795161415E+03  0.83464286350E+02 0.  0.
        -11    1    5    5    0    0  0.18645173349E+02  0.44244108524E+02  0.19239395329E+03  0.19829426843E+03  0.00000000000E+00 0.  1.
         12    1    5    5    0    0 -0.82558190643E+01 -0.33856228736E+02  0.21687541759E+03  0.21965734572E+03  0.00000000000E+00 0. -1.
         13    1    3    3    0    0 -0.14769794893E+02  0.67482575969E+02 -0.16011133275E+03  0.17437799109E+03  0.00000000000E+00 0. -1.
        -14    1    3    3    0    0  0.32111954988E+02  0.21333746215E+02 -0.25610787900E+03  0.25899334367E+03  0.00000000000E+00 0.  1.
          5    1    4    4  501    0 -0.44193130110E+02 -0.11551950842E+03  0.13737998818E+02  0.12451503759E+03  0.41800000000E+01 0.  1.
         -5    1    4    4    0  501  0.16461615731E+02  0.16315306443E+02 -0.30294546762E+02  0.38371942619E+02  0.41800000000E+01 0.  1.
</event>
<event>
11    1  0.8551154E-009  0.2902110E+03  0.7561462E-02  0.1004421E+00
         22   -1    0    0    0    0  0.00000000000E+00  0.00000000000E+00  0.12852371551E+04  0.12852371551E+04  0.00000000000E+00 0. -1.
         22   -1    0    0    0    0 -0.00000000000E+00 -0.00000000000E+00 -0.34339059285E+03  0.34339059285E+03  0.00000000000E+00 0.  1.
        -24    2    1    2    0    0  0.14235804853E+03  0.11404461699E+03 -0.21093083617E+03  0.29027231735E+03  0.80586673404E+02 0.  0.
         25    2    1    2    0    0  0.14905795887E+03 -0.13246619523E+03  0.12426241044E+03  0.26618559461E+03  0.12509219059E+03 0.  0.
         24    2    1    2    0    0 -0.29141600740E+03  0.18421578236E+02  0.10285149880E+04  0.10721698360E+04  0.80264766920E+02 0.  0.
        -13    1    5    5    0    0 -0.14517580798E+02 -0.15244195388E+01  0.13530721722E+02  0.19903879960E+02  0.00000000000E+00 0.  1.
         14    1    5    5    0    0 -0.27689842660E+03  0.19945997775E+02  0.10149842663E+04  0.10522659561E+04  0.00000000000E+00 0. -1.
         13    1    3    3    0    0  0.49873542812E+01  0.25908989389E+02 -0.39442168885E+01  0.26677823763E+02  0.00000000000E+00 0. -1.
        -14    1    3    3    0    0  0.13737069425E+03  0.88135627601E+02 -0.20698661928E+03  0.26359449359E+03  0.00000000000E+00 0.  1.
          5    1    4    4  501    0  0.71796126477E+01 -0.51841077942E+02  0.82329568830E+02  0.97645657884E+02  0.41800000000E+01 0. -1.
         -5    1    4    4    0  501  0.14187834623E+03 -0.80625117284E+02  0.41932841612E+02  0.16853993672E+03  0.41800000000E+01 0. -1.
</event>
<event>
11    1  0.8551154E-009  0.2705371E+03  0.7561462E-02  0.1013494E+00
         22   -1    0    0    0    0  0.00000000000E+00  0.00000000000E+00  0.61941778656E+03  0.61941778656E+03  0.00000000000E+00 0. -1.
         22   -1    0    0    0    0 -0.00000000000E+00 -0.00000000000E+00 -0.10589399939E+04  0.10589399939E+04  0.00000000000E+00 0.  1.
         24    2    1    2    0    0  0.18217376259E+03 -0.65367484479E+02 -0.42485001869E+03  0.47348769058E+03  0.78948508237E+02 0.  0.
         25    2    1    2    0    0 -0.39969252364E+03 -0.17255426171E+02 -0.50455569449E+03  0.65595467131E+03  0.12509284069E+03 0.  0.
        -24    2    1    2    0    0  0.21751876104E+03  0.82622910650E+02  0.48988350584E+03  0.54891541857E+03  0.84742732314E+02 0.  0.
        -11    1    3    3    0    0  0.12244680036E+03 -0.36472424985E+01 -0.26774524912E+03  0.29443851603E+03  0.00000000000E+00 0.  1.
         12    1    3    3    0    0  0.59726962231E+02 -0.61720241980E+02 -0.15710476957E+03  0.17904917455E+03  0.00000000000E+00 0. -1.
         11    1    5    5    0    0  0.99365757872E+02 -0.63461663039E+01  0.20686866588E+03  0.22958325851E+03  0.00000000000E+00 0. -1.
        -12    1    5    5    0    0  0.11815300317E+03  0.88969076954E+02  0.28301483996E+03  0.31933216006E+03  0.00000000000E+00 0.  1.
          5    1    4    4  501    0 -0.26165991190E+03  0.22916322341E+02 -0.39835052841E+03  0.47717049700E+03  0.41800000000E+01 0. -1.
         -5    1    4    4    0  501 -0.13803261174E+03 -0.40171748512E+02 -0.10620516608E+03  0.17878417431E+03  0.41800000000E+01 0. -1.
</event>
<event>
11    1  0.8551154E-009  0.1255986E+03  0.7561462E-02  0.1124798E+00
         22   -1    0    0    0    0  0.00000000000E+00  0.00000000000E+00  0.29322763251E+03  0.29322763251E+03  0.00000000000E+00 0. -1.
         22   -1    0    0    0    0 -0.00000000000E+00 -0.00000000000E+00 -0.26397776334E+03  0.26397776334E+03  0.00000000000E+00 0. -1.
         24    2    1    2    0    0 -0.16814457792E+02  0.36653010172E+01 -0.13022794466E+03  0.15430415274E+03  0.80958591646E+02 0.  0.
         25    2    1    2    0    0 -0.44594472030E+01  0.57401625023E+01 -0.80680921010E+02  0.14902590698E+03  0.12508586571E+03 0.  0.
        -24    2    1    2    0    0  0.21273904995E+02 -0.94054635195E+01  0.24015873484E+03  0.25387533613E+03  0.78964717425E+02 0.  0.
        -13    1    3    3    0    0 -0.38448694886E+02  0.73430150797E+01 -0.24180492261E+02  0.46009979514E+02  0.00000000000E+00 0.  1.
         14    1    3    3    0    0  0.21634237094E+02 -0.36777140625E+01 -0.10604745240E+03  0.10829417323E+03  0.00000000000E+00 0. -1.
         13    1    5    5    0    0 -0.80112281847E+01 -0.82212528335E+01  0.21483502095E+03  0.21514147671E+03  0.00000000000E+00 0. -1.
        -14    1    5    5    0    0  0.29285133179E+02 -0.11842106860E+01  0.25323713888E+02  0.38733859417E+02  0.00000000000E+00 0.  1.
          5    1    4    4  501    0 -0.61742287087E+02  0.21713207381E+02 -0.45227949752E+02  0.79665633922E+02  0.41800000000E+01 0.  1.
         -5    1    4    4    0  501  0.57282839884E+02 -0.15973044878E+02 -0.35452971258E+02  0.69360273059E+02  0.41800000000E+01 0.  1.
</event>
<event>
11    1  0.8551154E-009  0.1664603E+03  0.7561462E-02  0.1081154E+00
         22   -1    0    0    0    0  0.00000000000E+00  0.00000000000E+00  0.72160418101E+03  0.72160418101E+03  0.00000000000E+00 0.  1.
         22   -1    0    0    0    0 -0.00000000000E+00 -0.00000000000E+00 -0.15163784041E+03  0.15163784041E+03  0.00000000000E+00 0. -1.
         24    2    1    2    0    0 -0.12147915586E+02  0.53165930610E+02 -0.90050845117E+02  0.13342275158E+03  0.81965162743E+02 0.  0.
         25    2    1    2    0    0  0.11371122867E+03 -0.53783925829E+01  0.23883910743E+03  0.29265900238E+03  0.12508397901E+03 0.  0.
        -24    2    1    2    0    0 -0.10156331308E+03 -0.47787538027E+02  0.42117807828E+03  0.44716026745E+03  0.99812703600E+02 0.  0.
        -13    1    3    3    0    0  0.11344231650E+02  0.51322685621E+02 -0.14853812771E+02  0.54620009199E+02  0.00000000000E+00 0.  1.
         14    1    3    3    0    0 -0.23492147237E+02  0.18432449893E+01 -0.75197032346E+02  0.78802742386E+02  0.00000000000E+00 0. -1.
         11    1    5    5    0    0 -0.67529783859E+02 -0.63538324132E+02  0.17409267053E+03  0.19724514765E+03  0.00000000000E+00 0. -1.
        -12    1    5    5    0    0 -0.34033529222E+02  0.15750786105E+02  0.24708540776E+03  0.24991511979E+03  0.00000000000E+00 0.  1.
          5    1    4    4  501    0 -0.11813780296E+02 -0.32427124606E+02  0.23684961775E+02  0.42065824958E+02  0.41800000000E+01 0.  1.
         -5    1    4    4    0  501  0.12552500896E+03  0.27048732023E+02  0.21515414566E+03  0.25059317742E+03  0.41800000000E+01 0.  1.
</event>
<event>
11    1  0.8551154E-009  0.1429421E+03  0.7561462E-02  0.1104317E+00
         22   -1    0    0    0    0  0.00000000000E+00  0.00000000000E+00  0.55069747758E+03  0.55069747758E+03  0.00000000000E+00 0.  1.
         22   -1    0    0    0    0 -0.00000000000E+00 -0.00000000000E+00 -0.16368652739E+03  0.16368652739E+03  0.00000000000E+00 0. -1.
        -24    2    1    2    0    0  0.61869307040E+02  0.23617474413E+02 -0.10198373137E+03  0.14551345878E+03  0.79924270220E+02 0.  0.
         25    2    1    2    0    0 -0.89445056873E+02 -0.26535680072E+02  0.14172577752E+03  0.21080353270E+03  0.12508945947E+03 0.  0.
         24    2    1    2    0    0  0.27575749833E+02  0.29182056587E+01  0.34726890404E+03  0.35806701349E+03  0.82748755457E+02 0.  0.
        -11    1    5    5    0    0  0.10926883803E+02 -0.13955623487E+02  0.32519020479E+03  0.32567288114E+03  0.00000000000E+00 0.  1.
         12    1    5    5    0    0  0.16648866030E+02  0.16873829145E+02  0.22078699255E+02  0.32394132353E+02  0.00000000000E+00 0. -1.
         13    1    3    3    0    0  0.64360388748E+02  0.11336050278E+02 -0.11186475527E+03  0.12955496574E+03  0.00000000000E+00 0. -1.
        -14    1    3    3    0    0 -0.24910817082E+01  0.12281424136E+02  0.98810238988E+01  0.15958493042E+02  0.00000000000E+00 0.  1.
          5    1    4    4  501    0 -0.87607990567E+02 -0.65098276492E+01  0.23813725756E+02  0.91115881171E+02  0.41800000000E+01 0.  1.
         -5    1    4    4    0  501 -0.18370663055E+01 -0.20025852423E+02  0.11791205176E+03  0.11968765153E+03  0.41800000000E+01 0.  1.
</event>
<event>
11    1  0.8551154E-009  0.1712276E+03  0.7561462E-02  0.1076968E+00
         22   -1    0    0    0    0  0.00000000000E+00  0.00000000000E+00  0.11206991911E+03  0.11206991911E+03  0.00000000000E+00 0.  1.
         22   -1    0    0    0    0 -0.00000000000E+00 -0.00000000000E+00 -0.10304202782E+04  0.10304202782E+04  0.00000000000E+00 0. -1.
         24    2    1    2    0    0  0.43036723939E+02  0.59916459482E+02 -0.69188426026E+03  0.70017962302E+03  0.78137911267E+02 0.  0.
         25    2    1    2    0    0  0.29948876300E+02 -0.14564290122E+03 -0.23348112367E+03  0.30375937633E+03  0.12509010244E+03 0.  0.
        -24    2    1    2    0    0 -0.72985600238E+02  0.85726441737E+02  0.70150248097E+01  0.13855119799E+03  0.80444410838E+02 0.  0.
        -11    1    3    3    0    0  0.60318576603E+01  0.13006880559E+01 -0.15346235826E+01  0.63584719700E+01  0.00000000000E+00 0.  1.
         12    1    3    3    0    0  0.37004866278E+02  0.58615771426E+02 -0.69034963668E+03  0.69382115105E+03  0.00000000000E+00 0. -1.
         11    1    5    5    0    0 -0.46942290977E+02 -0.12016084581E+01 -0.40578135877E+01  0.47132668035E+02  0.00000000000E+00 0. -1.
        -12    1    5    5    0    0 -0.26043309262E+02  0.86928050196E+02  0.11072838397E+02  0.91418529950E+02  0.00000000000E+00 0.  1.
          5    1    4    4  501    0  0.71211775608E+02 -0.42312389780E+02 -0.97153667346E+02  0.12774099887E+03  0.41800000000E+01 0. -1.
         -5    1    4    4    0  501 -0.41262899309E+02 -0.10333051144E+03 -0.13632745632E+03  0.17601837745E+03  0.41800000000E+01 0. -1.
</event>
<event>
11    1  0.8551154E-009  0.2122020E+03  0.7561462E-02  0.1046215E+00
         22   -1    0    0    0    0  0.00000000000E+00  0.00000000000E+00  0.10997235643E+03  0.10997235643E+03  0.00000000000E+00 0. -1.
         22   -1    0    0    0    0 -0.00000000000E+00 -0.00000000000E+00 -0.10222674674E+04  0.10222674674E+04  0.00000000000E+00 0. -1.
         24    2    1    2    0    0 -0.99197881009E+02  0.45557994938E+02 -0.58327119051E+03  0.59898286849E+03  0.81605420021E+02 0.  0.
         25    2    1    2    0    0  0.15422315651E+03 -0.16930277056E+03 -0.18848295692E+03  0.32190410454E+03  0.12509283492E+03 0.  0.
        -24    2    1    2    0    0 -0.55025275498E+02  0.12374477562E+03 -0.14054096354E+03  0.21135285078E+03  0.81103111302E+02 0.  0.
        -11    1    3    3    0    0 -0.21360576163E+02  0.53176467946E+02 -0.27868388423E+03  0.28451488236E+03  0.00000000000E+00 0.  1.
         12    1    3    3    0    0 -0.77837304846E+02 -0.76184730077E+01 -0.30458730628E+03  0.31446798613E+03  0.00000000000E+00 0. -1.
         13    1    5    5    0    0 -0.62053095237E+02  0.65919943117E+02 -0.11837937763E+03  0.14902920042E+03  0.00000000000E+00 0. -1.
        -14    1    5    5    0    0  0.70278197394E+01  0.57824832507E+02 -0.22161585912E+02  0.62323650366E+02  0.00000000000E+00 0.  1.
          5    1    4    4  501    0 -0.10563852003E+02  0.92755616523E+01 -0.52899142379E+00  0.14675941027E+02  0.41800000000E+01 0.  1.
         -5    1    4    4    0  501  0.16478700851E+03 -0.17857833221E+03 -0.18795396550E+03  0.30722816351E+03  0.41800000000E+01 0.  1.
</event>
<event>
11    1  0.8551154E-009  0.1375713E+03  0.7561462E-02  0.1110301E+00
         22   -1    0    0    0    0  0.00000000000E+00  0.00000000000E+00  0.63239902306E+03  0.63239902306E+03  0.00000000000E+00 0. -1.
         22   -1    0    0    0    0 -0.00000000000E+00 -0.00000000000E+00 -0.27514457764E+03  0.27514457764E+03  0.00000000000E+00 0.  1.
         24    2    1    2    0    0 -0.15505022110E+02  0.28398478742E+02 -0.12956348502E+03  0.15654659340E+03  0.81690023567E+02 0.  0.
         25    2    1    2    0    0  0.48339158328E+02 -0.74034734507E+02 -0.81908926761E+02  0.17370630385E+03  0.12508793536E+03 0.  0.
        -24    2    1    2    0    0 -0.32834136218E+02  0.45636255766E+02  0.56872685720E+03  0.57729070344E+03  0.81569417315E+02 0.  0.
        -13    1    3    3    0    0 -0.19764265322E+02  0.49750497678E+02 -0.47250454355E+02  0.71402686502E+02  0.00000000000E+00 0.  1.
         14    1    3    3    0    0  0.42592432123E+01 -0.21352018936E+02 -0.82313030662E+02  0.85143906900E+02  0.00000000000E+00 0. -1.
         13    1    5    5    0    0 -0.45415061274E+02  0.31560747556E+02  0.54056412553E+03  0.54338585037E+03  0.00000000000E+00 0. -1.
        -14    1    5    5    0    0  0.12580925056E+02  0.14075508209E+02  0.28162731673E+02  0.33904853073E+02  0.00000000000E+00 0.  1.
          5    1    4    4  501    0  0.51226881420E+01 -0.10155915212E+03 -0.54658602784E+02  0.11552289198E+03  0.41800000000E+01 0.  1.
         -5    1    4    4    0  501  0.43216470186E+02  0.27524417610E+02 -0.27250323976E+02  0.58183411871E+02  0.41800000000E+01 0.  1.
</event>
<event>
11    1  0.8551154E-009  0.1382973E+03  0.7561462E-02  0.1109475E+00
         22   -1    0    0    0    0  0.00000000000E+00  0.00000000000E+00  0.91708378532E+03  0.91708378532E+03  0.00000000000E+00 0. -1.
         22   -1    0    0    0    0 -0.00000000000E+00 -0.00000000000E+00 -0.55119563269E+03  0.55119563269E+03  0.00000000000E+00 0.  1.
         24    2    1    2    0    0  0.41083073426E+02  0.20507352240E+01 -0.53068774318E+03  0.53801068362E+03  0.78319796262E+02 0.  0.
         25    2    1    2    0    0 -0.40188336363E+02 -0.59197738953E+02  0.43465222319E+03  0.45791896272E+03  0.12509095340E+03 0.  0.
        -24    2    1    2    0    0 -0.89473706255E+00  0.57147003729E+02  0.46192367262E+03  0.47234977167E+03  0.80462704880E+02 0.  0.
        -13    1    3    3    0    0  0.58101287830E+02  0.11998718000E+02 -0.47953689047E+03  0.48319287889E+03  0.00000000000E+00 0.  1.
         14    1    3    3    0    0 -0.17018214405E+02 -0.99479827763E+01 -0.51150852709E+02  0.54817804732E+02  0.00000000000E+00 0. -1.
         11    1    5    5    0    0 -0.21619371564E+02  0.55919182309E+02  0.43070820653E+03  0.43486079536E+03  0.00000000000E+00 0. -1.
        -12    1    5    5    0    0  0.20724634502E+02  0.12278214207E+01  0.31215466099E+02  0.37488976305E+02  0.00000000000E+00 0.  1.
          5    1    4    4  501    0 -0.29280805475E+02  0.36360260869E+02  0.16821729018E+03  0.17462520796E+03  0.41800000000E+01 0.  1.
         -5    1    4    4    0  501 -0.10907530888E+02 -0.95557999822E+02  0.26643493301E+03  0.28329375477E+03  0.41800000000E+01 0.  1.
</event>
<event>
11    1  0.8551154E-009  0.3857450E+03  0.7561462E-02  0.9692780E-01
         22   -1    0    0    0    0  0.00000000000E+00  0.00000000000E+00  0.33537415668E+03  0.33537415668E+03  0.00000000000E+00 0.  1.
         22   -1    0    0    0    0 -0.00000000000E+00 -0.00000000000E+00 -0.12466844447E+04  0.12466844447E+04  0.00000000000E+00 0.  1.
         24    2    1    2    0    0 -0.63352817989E+02 -0.35539750894E+03 -0.99347551729E+03  0.10600157215E+04  0.79490612228E+02 0.  0.
         25    2    1    2    0    0  0.18707800827E+02  0.39585998792E+03  0.66029588400E+02  0.42078803461E+03  0.12509017420E+03 0.  0.
        -24    2    1    2    0    0  0.44645017162E+02 -0.40462478982E+02  0.16135640841E+02  0.10125484532E+03  0.79760861534E+02 0.  0.
        -11    1    3    3    0    0 -0.31859472506E+02 -0.32261861546E+03 -0.86972211548E+03  0.92817797603E+03  0.00000000000E+00 0.  1.
         12    1    3    3    0    0 -0.31493345483E+02 -0.32778893484E+02 -0.12375340180E+03  0.13183774545E+03  0.00000000000E+00 0. -1.
         13    1    5    5    0    0  0.31824567494E+02  0.15088048019E+02  0.25497243294E+02  0.43480589978E+02  0.00000000000E+00 0. -1.
        -14    1    5    5    0    0  0.12820449668E+02 -0.55550527002E+02 -0.93616024529E+01  0.57774255342E+02  0.00000000000E+00 0.  1.
          5    1    4    4  501    0 -0.15608941656E+02  0.10335590107E+02 -0.16166470070E+02  0.25085665966E+02  0.41800000000E+01 0. -1.
         -5    1    4    4    0  501  0.34316742483E+02  0.38552439781E+03  0.82196058470E+02  0.39570236865E+03  0.41800000000E+01 0. -1.
</event>
<event>
11    1  0.8551154E-009  0.1353204E+03  0.7561462E-02  0.1112899E+00
         22   -1    0    0    0    0  0.00000000000E+00  0.00000000000E+00  0.30115480582E+04  0.30115480582E+04  0.00000000000E+00 0.  1.
         22   -1    0    0    0    0 -0.00000000000E+00 -0.00000000000E+00 -0.39679555756E+03  0.39679555756E+03  0.00000000000E+00 0.  1.
        -24    2    1    2    0    0  0.26212935459E+02  0.17226497457E+02 -0.37272899553E+03  0.38262321644E+03  0.80558993575E+02 0.  0.
         25    2    1    2    0    0 -0.28337048486E+02  0.35039995577E+02  0.22335634447E+03  0.25993402590E+03  0.12508737586E+03 0.  0.
         24    2    1    2    0    0  0.21241130269E+01 -0.52266493034E+02  0.27641251517E+04  0.27657863734E+04  0.80312582741E+02 0.  0.
        -11    1    5    5    0    0 -0.16603878236E+02 -0.53290129321E+02  0.25990204022E+04  0.25996196987E+04  0.00000000000E+00 0.  1.
         12    1    5    5    0    0  0.18727991263E+02  0.10236362871E+01  0.16510474947E+03  0.16616667472E+03  0.00000000000E+00 0. -1.
         11    1    3    3    0    0  0.20449028849E+02 -0.30148526704E+02 -0.11923548613E+03  0.12467637145E+03  0.00000000000E+00 0. -1.
        -12    1    3    3    0    0  0.57639066101E+01  0.47375024161E+02 -0.25349350940E+03  0.25794684499E+03  0.00000000000E+00 0.  1.
          5    1    4    4  501    0  0.46584361784E+02  0.32696803546E+01  0.50946166881E+02  0.69237113547E+02  0.41800000000E+01 0. -1.
         -5    1    4    4    0  501 -0.74921410270E+02  0.31770315222E+02  0.17241017759E+03  0.19069691236E+03  0.41800000000E+01 0. -1.
</event>
<event>
11    1  0.8551154E-009  0.1414669E+03  0.7561462E-02  0.1105931E+00
         22   -1    0    0    0    0  0.00000000000E+00  0.00000000000E+00  0.15492398614E+04  0.15492398614E+04  0.00000000000E+00 0. -1.
         22   -1    0    0    0    0 -0.00000000000E+00 -0.00000000000E+00 -0.24270778293E+03  0.24270778293E+03  0.00000000000E+00 0. -1.
         24    2    1    2    0    0  0.16276049392E+02 -0.48468654800E+02 -0.59287772310E+02  0.11155491688E+03  0.79469108788E+02 0.  0.
         25    2    1    2    0    0 -0.80123477235E+02  0.31683246945E+02 -0.11824157998E+03  0.19249266743E+03  0.12509498807E+03 0.  0.
        -24    2    1    2    0    0  0.63847427843E+02  0.16785407855E+02  0.14840614307E+04  0.14879000600E+04  0.83964363935E+02 0.  0.
        -11    1    3    3    0    0 -0.25801815844E+02 -0.28948931820E+02 -0.34024027772E+01  0.38927505687E+02  0.00000000000E+00 0.  1.
         12    1    3    3    0    0  0.42077865237E+02 -0.19519722980E+02 -0.55885369533E+02  0.72627411188E+02  0.00000000000E+00 0. -1.
         13    1    5    5    0    0  0.68569658682E+02  0.31315106213E+02  0.14216044542E+04  0.14236016501E+04  0.00000000000E+00 0. -1.
        -14    1    5    5    0    0 -0.47222308391E+01 -0.14529698358E+02  0.62456976558E+02  0.64298409928E+02  0.00000000000E+00 0.  1.
          5    1    4    4  501    0 -0.48357036393E+02  0.59958039280E+02 -0.12726377847E+03  0.14881838311E+03  0.41800000000E+01 0. -1.
         -5    1    4    4    0  501 -0.31766440842E+02 -0.28274792334E+02  0.90221984902E+01  0.43674284321E+02  0.41800000000E+01 0. -1.
</event>
<event>
11    1  0.8551154E-009  0.1423702E+03  0.7561462E-02  0.1104940E+00
         22   -1    0    0    0    0  0.00000000000E+00  0.00000000000E+00  0.12061311205E+03  0.12061311205E+03  0.00000000000E+00 0.  1.
         22   -1    0    0    0    0 -0.00000000000E+00 -0.00000000000E+00 -0.12715884743E+04  0.12715884743E+04  0.00000000000E+00 0.  1.
         24    2    1    2    0    0 -0.29138148576E+02  0.46851919968E+02 -0.11048974319E+04  0.11091055538E+04  0.79200128245E+02 0.  0.
         25    2    1    2    0    0 -0.45499354441E+02 -0.31856457972E+02 -0.89265263572E+02  0.16340145584E+03  0.12508686311E+03 0.  0.
        -24    2    1    2    0    0  0.74637503017E+02 -0.14995461996E+02  0.43187333249E+02  0.11969457669E+03  0.81645729820E+02 0.  0.
        -11    1    3    3    0    0 -0.56237995974E+01 -0.93425236377E+01 -0.65635512833E+03  0.65644570556E+03  0.00000000000E+00 0.  1.
         12    1    3    3    0    0 -0.23514348979E+02  0.56194443606E+02 -0.44854230357E+03  0.45265984822E+03  0.00000000000E+00 0. -1.
         11    1    5    5    0    0  0.19438237429E+02 -0.17281945070E+02 -0.22126980405E+02  0.34148410821E+02  0.00000000000E+00 0. -1.
        -12    1    5    5    0    0  0.55199265588E+02  0.22864830742E+01  0.65314313653E+02  0.85546165865E+02  0.00000000000E+00 0.  1.
          5    1    4    4  501    0 -0.27602384852E+02  0.15782427570E+02 -0.10514594242E+03  0.10992778665E+03  0.41800000000E+01 0.  1.
         -5    1    4    4    0  501 -0.17896969589E+02 -0.47638885542E+02  0.15880678851E+02  0.53473669193E+02  0.41800000000E+01 0.  1.
</event>
<event>
11    1  0.8551154E-009  0.1777118E+03  0.7561462E-02  0.1071509E+00
         22   -1    0    0    0    0  0.00000000000E+00  0.00000000000E+00  0.24533703048E+03  0.24533703048E+03  0.00000000000E+00 0. -1.
         22   -1    0    0    0    0 -0.00000000000E+00 -0.00000000000E+00 -0.31402518070E+03  0.31402518070E+03  0.00000000000E+00 0. -1.
         24    2    1    2    0    0 -0.31028654613E+01 -0.12117203449E+03 -0.19642170673E+03  0.24454002807E+03  0.80783963370E+02 0.  0.
         25    2    1    2    0    0  0.73166231392E+01  0.15642720290E+03  0.76356962672E+02  0.21447739791E+03  0.12508863132E+03 0.  0.
        -24    2    1    2    0    0 -0.42137576779E+01 -0.35255168410E+02  0.51376593833E+02  0.10034478520E+03  0.78541956109E+02 0.  0.
        -11    1    3    3    0    0  0.22728499849E+02 -0.34834736850E+02 -0.11786426772E+03  0.12498811625E+03  0.00000000000E+00 0.  1.
         12    1    3    3    0    0 -0.25831365310E+02 -0.86337297643E+02 -0.78557439005E+02  0.11955191183E+03  0.00000000000E+00 0. -1.
         11    1    5    5    0    0 -0.36074667658E+02 -0.22718731010E+02  0.53306274613E+01  0.42964380299E+02  0.00000000000E+00 0. -1.
        -12    1    5    5    0    0  0.31860909980E+02 -0.12536437400E+02  0.46045966372E+02  0.57380404900E+02  0.00000000000E+00 0.  1.
          5    1    4    4  501    0  0.44272994519E+02  0.81500197175E+01  0.31703834411E+02  0.55218895149E+02  0.41800000000E+01 0. -1.
         -5    1    4    4    0  501 -0.36956371380E+02  0.14827718319E+03  0.44653128261E+02  0.15925850276E+03  0.41800000000E+01 0. -1.
</event>
<event>
11    1  0.8551154E-009  0.1671552E+03  0.7561462E-02  0.1080534E+00
         22   -1    0    0    0    0  0.00000000000E+00  0.00000000000E+00  0.44504387401E+03  0.44504387401E+03  0.00000000000E+00 0. -1.
         22   -1    0    0    0    0 -0.00000000000E+00 -0.00000000000E+00 -0.71741336485E+03  0.71741336485E+03  0.00000000000E+00 0. -1.
        -24    2    1    2    0    0  0.26534612392E+02 -0.29946489328E+02 -0.61868606712E+03  0.62520567554E+03  0.80677191337E+02 0.  0.
         25    2    1    2    0    0 -0.63717726390E+02 -0.77278322031E+02 -0.41456834027E+01  0.16030141780E+03  0.12508984829E+03 0.  0.
         24    2    1    2    0    0  0.37183113998E+02  0.10722481136E+03  0.35046225968E+03  0.37695014551E+03  0.79924167844E+02 0.  0.
        -11    1    5    5    0    0 -0.11317731980E+02  0.80713712750E+02  0.23940310528E+03  0.25289650314E+03  0.00000000000E+00 0.  1.
         12    1    5    5    0    0  0.48500845979E+02  0.26511098609E+02  0.11105915440E+03  0.12405364237E+03  0.00000000000E+00 0. -1.
         13    1    3    3    0    0  0.65753364097E+01 -0.21689396931E+02 -0.58335491998E+03  0.58379502195E+03  0.00000000000E+00 0. -1.
        -14    1    3    3    0    0  0.19959275982E+02 -0.82570923973E+01 -0.35331147138E+02  0.41410653589E+02  0.00000000000E+00 0.  1.
          5    1    4    4  501    0 -0.39941859005E+02 -0.74275441764E+02 -0.57164655898E+02  0.10196795396E+03  0.41800000000E+01 0. -1.
         -5    1    4    4    0  501 -0.23775867385E+02 -0.30028802670E+01  0.53018972496E+02  0.58333463846E+02  0.41800000000E+01 0. -1.
</event>
<event>
11    1  0.8551154E-009  0.1998202E+03  0.7561462E-02  0.1054651E+00
         22   -1    0    0    0    0  0.00000000000E+00  0.00000000000E+00  0.35517362537E+04  0.35517362537E+04  0.00000000000E+00 0. -1.
         22   -1    0    0    0    0 -0.00000000000E+00 -0.00000000000E+00 -0.10616247098E+04  0.10616247098E+04  0.00000000000E+00 0.  1.
        -24    2    1    2    0    0  0.59986352934E+01 -0.15552091074E+03 -0.10430688900E+04  0.10566379574E+04  0.65332430377E+02 0.  0.
         25    2    1    2    0    0 -0.22012638092E+02  0.18693014078E+03  0.11616044143E+04  0.11833850884E+04  0.12509203934E+03 0.  0.
         24    2    1    2    0    0  0.16014002798E+02 -0.31409230043E+02  0.23715760196E+04  0.23733379177E+04  0.84362709300E+02 0.  0.
        -13    1    5    5    0    0  0.11696983717E+02 -0.55487413785E+02  0.10458417232E+04  0.10473779559E+04  0.00000000000E+00 0.  1.
         14    1    5    5    0    0  0.43170190816E+01  0.24078183742E+02  0.13257342963E+04  0.13259599617E+04  0.00000000000E+00 0. -1.
         13    1    3    3    0    0  0.23231920334E+02 -0.70753548444E+02 -0.64463894378E+03  0.64892615495E+03  0.00000000000E+00 0. -1.
        -14    1    3    3    0    0 -0.17233285040E+02 -0.84767362297E+02 -0.39842994625E+03  0.40771180249E+03  0.00000000000E+00 0.  1.
          5    1    4    4  501    0  0.32126276846E+02  0.10429333494E+03  0.83584454250E+03  0.84294885314E+03  0.41800000000E+01 0.  1.
         -5    1    4    4    0  501 -0.54138914938E+02  0.82636805844E+02  0.32575987180E+03  0.34043623524E+03  0.41800000000E+01 0.  1.
</event>
<event>
11    1  0.8551154E-009  0.1770608E+03  0.7561462E-02  0.1072045E+00
         22   -1    0    0    0    0  0.00000000000E+00  0.00000000000E+00  0.95366333399E+02  0.95366333399E+02  0.00000000000E+00 0. -1.
         22   -1    0    0    0    0 -0.00000000000E+00 -0.00000000000E+00 -0.12421125550E+04  0.12421125550E+04  0.00000000000E+00 0.  1.
         24    2    1    2    0    0  0.86733030011E+02  0.82132534051E+02 -0.81900985726E+03  0.83157322791E+03  0.80427081579E+02 0.  0.
         25    2    1    2    0    0 -0.85564743084E+02 -0.12459603509E+03 -0.36042076570E+03  0.41036150601E+03  0.12509172655E+03 0.  0.
        -24    2    1    2    0    0 -0.11682869277E+01  0.42463501036E+02  0.32684401312E+02  0.95544154518E+02  0.79094257433E+02 0.  0.
        -11    1    3    3    0    0  0.62819353689E+02  0.54957196889E+02 -0.73968461739E+03  0.74437886717E+03  0.00000000000E+00 0.  1.
         12    1    3    3    0    0  0.23913676322E+02  0.27175337161E+02 -0.79325239871E+02  0.87194360745E+02  0.00000000000E+00 0. -1.
         11    1    5    5    0    0 -0.36037302567E+02  0.18100301292E+02 -0.24087862900E+01  0.40399385324E+02  0.00000000000E+00 0. -1.
        -12    1    5    5    0    0  0.34869015639E+02  0.24363199744E+02  0.35093187602E+02  0.55144769194E+02  0.00000000000E+00 0.  1.
          5    1    4    4  501    0 -0.78438586797E+02 -0.26648537722E+02 -0.24551729903E+03  0.25915048328E+03  0.41800000000E+01 0. -1.
         -5    1    4    4    0  501 -0.71261562862E+01 -0.97947497365E+02 -0.11490346667E+03  0.15121102274E+03  0.41800000000E+01 0. -1.
</event>
<event>
11    1  0.8551154E-009  0.1318500E+03  0.7561462E-02  0.1117017E+00
         22   -1    0    0    0    0  0.00000000000E+00  0.00000000000E+00  0.41032102365E+04  0.41032102365E+04  0.00000000000E+00 0. -1.
         22   -1    0    0    0    0 -0.00000000000E+00 -0.00000000000E+00 -0.37045469135E+03  0.37045469135E+03  0.00000000000E+00 0. -1.
         24    2    1    2    0    0  0.67369669321E+01  0.40256981994E+02 -0.34085865708E+03  0.35259262590E+03  0.80442056243E+02 0.  0.
         25    2    1    2    0    0  0.12570774150E+02 -0.79412717932E+02  0.21497072268E+03  0.26138972479E+03  0.12509105678E+03 0.  0.
        -24    2    1    2    0    0 -0.19307741083E+02  0.39155735938E+02  0.38586434796E+04  0.38596825772E+04  0.78192925501E+02 0.  0.
        -13    1    3    3    0    0 -0.72790946208E+01  0.35398490690E+02 -0.51840099412E+02  0.63193625222E+02  0.00000000000E+00 0.  1.
         14    1    3    3    0    0  0.14016061553E+02  0.48584913042E+01 -0.28901855767E+03  0.28939900068E+03  0.00000000000E+00 0. -1.
         11    1    5    5    0    0 -0.30534723402E+02  0.31737514678E+02  0.37429599092E+04  0.37432190053E+04  0.00000000000E+00 0. -1.
        -12    1    5    5    0    0  0.11226982319E+02  0.74182212599E+01  0.11568357035E+03  0.11646357193E+03  0.00000000000E+00 0.  1.
          5    1    4    4  501    0 -0.29604611357E+02 -0.87370342891E+02  0.89036228746E+02  0.12827677989E+03  0.41800000000E+01 0. -1.
         -5    1    4    4    0  501  0.42175385508E+02  0.79576249584E+01  0.12593449394E+03  0.13311294490E+03  0.41800000000E+01 0. -1.
</event>
<event>
11    1  0.8551154E-009  0.1495504E+03  0.7561462E-02  0.1097339E+00
         22   -1    0    0    0    0  0.00000000000E+00  0.00000000000E+00  0.25849020129E+03  0.25849020129E+03  0.00000000000E+00 0. -1.
         22   -1    0    0    0    0 -0.00000000000E+00 -0.00000000000E+00 -0.51380655163E+03  0.51380655163E+03  0.00000000000E+00 0.  1.
         24    2    1    2    0    0 -0.17829681326E+02 -0.70436758852E+02 -0.33282400030E+03  0.34974572879E+03  0.79189804228E+02 0.  0.
         25    2    1    2    0    0  0.32787884795E+02  0.14376288392E+03 -0.95509573452E+02  0.21566802050E+03  0.12509118379E+03 0.  0.
        -24    2    1    2    0    0 -0.14958203468E+02 -0.73326125071E+02  0.17301722342E+03  0.20688300363E+03  0.85235844114E+02 0.  0.
        -11    1    3    3    0    0  0.15174303888E+02 -0.38762769171E+01 -0.17061579304E+03  0.17133310788E+03  0.00000000000E+00 0.  1.
         12    1    3    3    0    0 -0.33003985214E+02 -0.66560481935E+02 -0.16220820726E+03  0.17841262090E+03  0.00000000000E+00 0. -1.
         11    1    5    5    0    0 -0.73546718437E+01  0.10377139820E+02  0.82057697306E+02  0.83037593389E+02  0.00000000000E+00 0. -1.
        -12    1    5    5    0    0 -0.76035316247E+01 -0.83703264891E+02  0.90959526113E+02  0.12384541024E+03  0.00000000000E+00 0.  1.
          5    1    4    4  501    0 -0.29580160251E+02 -0.57023509712E+01 -0.76179349752E+01  0.31352958718E+02  0.41800000000E+01 0.  1.
         -5    1    4    4    0  501  0.62368045045E+02  0.14946523489E+03 -0.87891638477E+02  0.18431506178E+03  0.41800000000E+01 0.  1.
</event>
<event>
11    1  0.8551154E-009  0.1639451E+03  0.7561462E-02  0.1083424E+00
         22   -1    0    0    0    0  0.00000000000E+00  0.00000000000E+00  0.42376769456E+03  0.42376769456E+03  0.00000000000E+00 0.  1.
         22   -1    0    0    0    0 -0.00000000000E+00 -0.00000000000E+00 -0.39004187516E+03  0.39004187516E+03  0.00000000000E+00 0.  1.
         24    2    1    2    0    0  0.92365908044E+02 -0.59812827183E+02 -0.31608167295E+03  0.34472356342E+03  0.82569219060E+02 0.  0.
         25    2    1    2    0    0 -0.38338082837E+02  0.76116959852E+02  0.59103495643E+02  0.16249061286E+03  0.12508547436E+03 0.  0.
        -24    2    1    2    0    0 -0.54027825207E+02 -0.16304132668E+02  0.29070399671E+03  0.30659539345E+03  0.79417195538E+02 0.  0.
        -13    1    3    3    0    0  0.37325854258E+02 -0.14739464212E+02 -0.22798062359E+03  0.23148571431E+03  0.00000000000E+00 0.  1.
         14    1    3    3    0    0  0.55040053786E+02 -0.45073362972E+02 -0.88101049364E+02  0.11323784910E+03  0.00000000000E+00 0. -1.
         11    1    5    5    0    0 -0.59598870484E+02 -0.12762246543E+01  0.10942549740E+03  0.12460976524E+03  0.00000000000E+00 0. -1.
        -12    1    5    5    0    0  0.55710452769E+01 -0.15027908014E+02  0.18127849931E+03  0.18198562821E+03  0.00000000000E+00 0.  1.
          5    1    4    4  501    0 -0.53944324560E+02  0.98077077561E+02  0.18418528906E+02  0.11351571654E+03  0.41800000000E+01 0.  1.
         -5    1    4    4    0  501  0.15606241722E+02 -0.21960117710E+02  0.40684966737E+02  0.48974896313E+02  0.41800000000E+01 0.  1.
</event>
<event>
11    1  0.8551154E-009  0.3841851E+03  0.7561462E-02  0.9697608E-01
         22   -1    0    0    0    0  0.00000000000E+00  0.00000000000E+00  0.41010595096E+03  0.41010595096E+03  0.00000000000E+00 0.  1.
         22   -1    0    0    0    0 -0.00000000000E+00 -0.00000000000E+00 -0.11580397912E+04  0.11580397912E+04  0.00000000000E+00 0. -1.
         24    2    1    2    0    0  0.22849111805E+03 -0.26336014322E+03 -0.65166125081E+03  0.74340880355E+03  0.80171736434E+02 0.  0.
         25    2    1    2    0    0 -0.27636078777E+03  0.28048209052E+03 -0.35792352438E+03  0.54662864016E+03  0.12509249704E+03 0.  0.
        -24    2    1    2    0    0  0.47869669716E+02 -0.17121947299E+02  0.26165093493E+03  0.27810829846E+03  0.79362129267E+02 0.  0.
        -13    1    3    3    0    0  0.12176905190E+03 -0.17279809920E+03 -0.45831054431E+03  0.50471322562E+03  0.00000000000E+00 0.  1.
         14    1    3    3    0    0  0.10672206615E+03 -0.90562044025E+02 -0.19335070650E+03  0.23869557794E+03  0.00000000000E+00 0. -1.
         11    1    5    5    0    0  0.31559868571E+02 -0.10305236255E+02  0.27000880047E+02  0.42793349038E+02  0.00000000000E+00 0. -1.
        -12    1    5    5    0    0  0.16309801145E+02 -0.68167110441E+01  0.23465005489E+03  0.23531494942E+03  0.00000000000E+00 0.  1.
          5    1    4    4  501    0 -0.25934525930E+03  0.27278974219E+03 -0.28750611284E+03  0.47365751792E+03  0.41800000000E+01 0. -1.
         -5    1    4    4    0  501 -0.17015528471E+02  0.76923483317E+01 -0.70417411545E+02  0.72971122238E+02  0.41800000000E+01 0. -1.
</event>
<event>
11    1  0.8551154E-009  0.1602048E+03  0.7561462E-02  0.1086885E+00
         22   -1    0    0    0    0  0.00000000000E+00  0.00000000000E+00  0.10485051276E+03  0.10485051276E+03  0.00000000000E+00 0.  1.
         22   -1    0    0    0    0 -0.00000000000E+00 -0.00000000000E+00 -0.21152576367E+04  0.21152576367E+04  0.00000000000E+00 0.  1.
         24    2    1    2    0    0  0.98758422314E+02  0.32621031927E+02 -0.18732516863E+04  0.18779148122E+04  0.81699475055E+02 0.  0.
         25    2    1    2    0    0 -0.60153128238E+02 -0.14036186955E+02 -0.18848709731E+03  0.23449680381E+03  0.12508377898E+03 0.  0.
        -24    2    1    2    0    0 -0.38605294076E+02 -0.18584844972E+02  0.51331659660E+02  0.10769653338E+03  0.84426529160E+02 0.  0.
        -13    1    3    3    0    0  0.62228713057E+02  0.83861647904E+01 -0.15946091084E+04  0.15958449013E+04  0.00000000000E+00 0.  1.
         14    1    3    3    0    0  0.36529709257E+02  0.24234867137E+02 -0.27864257785E+03  0.28206991090E+03  0.00000000000E+00 0. -1.
         13    1    5    5    0    0 -0.56706512226E+02 -0.76294169619E+01  0.58270253465E+01  0.57513396321E+02  0.00000000000E+00 0. -1.
        -14    1    5    5    0    0  0.18101218150E+02 -0.10955428010E+02  0.45504634314E+02  0.50183137062E+02  0.00000000000E+00 0.  1.
          5    1    4    4  501    0 -0.43682006729E+02  0.14184065858E+02 -0.31167295117E+01  0.46222200715E+02  0.41800000000E+01 0.  1.
         -5    1    4    4    0  501 -0.16471121509E+02 -0.28220252813E+02 -0.18537036780E+03  0.18827460309E+03  0.41800000000E+01 0.  1.
</event>
<event>
11    1  0.8551154E-009  0.1349659E+03  0.7561462E-02  0.1113314E+00
         22   -1    0    0    0    0  0.00000000000E+00  0.00000000000E+00  0.49615465703E+03  0.49615465703E+03  0.00000000000E+00 0.  1.
         22   -1    0    0    0    0 -0.00000000000E+00 -0.00000000000E+00 -0.97040872980E+03  0.97040872980E+03  0.00000000000E+00 0.  1.
         24    2    1    2    0    0  0.38220140876E+02 -0.17537969516E+02 -0.89356119340E+03  0.89821041576E+03  0.81006080500E+02 0.  0.
         25    2    1    2    0    0 -0.14792493698E+02 -0.29986584314E+02 -0.85901668941E+01  0.12976545279E+03  0.12508904293E+03 0.  0.
        -24    2    1    2    0    0 -0.23427647178E+02  0.47524553829E+02  0.42789728753E+03  0.43858751828E+03  0.80346030718E+02 0.  0.
        -11    1    3    3    0    0  0.34437643291E+02 -0.16498839754E+02 -0.89347110688E+03  0.89428674475E+03  0.00000000000E+00 0.  1.
         12    1    3    3    0    0  0.37824975855E+01 -0.10391297620E+01 -0.90086518873E-01  0.39236710142E+01  0.00000000000E+00 0. -1.
         13    1    5    5    0    0 -0.18666402529E+00  0.61340125201E+02  0.20284136909E+03  0.21191334742E+03  0.00000000000E+00 0. -1.
        -14    1    5    5    0    0 -0.23240983153E+02 -0.13815571372E+02  0.22505591844E+03  0.22667417086E+03  0.00000000000E+00 0.  1.
          5    1    4    4  501    0 -0.54899606894E+01 -0.78680695885E+02  0.15228504902E+01  0.78997361013E+02  0.41800000000E+01 0. -1.
         -5    1    4    4    0  501 -0.93025330091E+01  0.48694111572E+02 -0.10113017384E+02  0.50768091778E+02  0.41800000000E+01 0. -1.
</event>
<event>
11    1  0.8551154E-009  0.1399309E+03  0.7561462E-02  0.1107636E+00
         22   -1    0    0    0    0  0.00000000000E+00  0.00000000000E+00  0.24317333688E+03  0.24317333688E+03  0.00000000000E+00 0. -1.
         22   -1    0    0    0    0 -0.00000000000E+00 -0.00000000000E+00 -0.20917518476E+03  0.20917518476E+03  0.00000000000E+00 0. -1.
         24    2    1    2    0    0 -0.55021920331E+02  0.34188546835E+02 -0.83472867729E+02  0.13230806925E+03  0.79633140651E+02 0.  0.
         25    2    1    2    0    0  0.23745077947E+02 -0.63602205902E+02 -0.30743008999E+02  0.14560667152E+03  0.12508837223E+03 0.  0.
        -24    2    1    2    0    0  0.31276842384E+02  0.29413659068E+02  0.14821402884E+03  0.17443378087E+03  0.81340895956E+02 0.  0.
        -13    1    3    3    0    0 -0.24896392101E+02  0.27781022363E+02  0.59081708397E+01  0.37769326521E+02  0.00000000000E+00 0.  1.
         14    1    3    3    0    0 -0.30125528230E+02  0.64075244717E+01 -0.89381038569E+02  0.94538742728E+02  0.00000000000E+00 0. -1.
         13    1    5    5    0    0  0.60863831431E+01  0.35362261877E+02  0.14375954864E+03  0.14816997486E+03  0.00000000000E+00 0. -1.
        -14    1    5    5    0    0  0.25190459241E+02 -0.59486028095E+01  0.44544801951E+01  0.26263806007E+02  0.00000000000E+00 0.  1.
          5    1    4    4  501    0  0.40636464959E+01 -0.59259672978E+02  0.40129362174E+02  0.71805711282E+02  0.41800000000E+01 0.  1.
         -5    1    4    4    0  501  0.19681431451E+02 -0.43425329246E+01 -0.70872371173E+02  0.73800960237E+02  0.41800000000E+01 0.  1.
</event>
<event>
11    1  0.8551154E-009  0.1284598E+03  0.7561462E-02  0.1121176E+00
         22   -1    0    0    0    0  0.00000000000E+00  0.00000000000E+00  0.92730895455E+02  0.92730895455E+02  0.00000000000E+00 0. -1.
         22   -1    0    0    0    0 -0.00000000000E+00 -0.00000000000E+00 -0.92666542244E+03  0.92666542244E+03  0.00000000000E+00 0. -1.
         24    2    1    2    0    0 -0.22238559259E+02  0.80141562404E+01 -0.66226196400E+03  0.66717670158E+03  0.77298524887E+02 0.  0.
         25    2    1    2    0    0 -0.88611375446E+00  0.13098216792E+02 -0.22002769096E+03  0.25344102513E+03  0.12509124648E+03 0.  0.
        -24    2    1    2    0    0  0.23124673013E+02 -0.21112373033E+02  0.48355127979E+02  0.98778591189E+02  0.80240319531E+02 0.  0.
        -13    1    3    3    0    0  0.18709653615E+02  0.23047906424E+00 -0.48240660229E+02  0.51742299507E+02  0.00000000000E+00 0.  1.
         14    1    3    3    0    0 -0.40948212874E+02  0.77836771762E+01 -0.61402130377E+03  0.61543440207E+03  0.00000000000E+00 0. -1.
         11    1    5    5    0    0  0.75831255484E+01 -0.35683741194E+01  0.67805377389E+02  0.68321345785E+02  0.00000000000E+00 0. -1.
        -12    1    5    5    0    0  0.15541547465E+02 -0.17543998913E+02 -0.19450249411E+02  0.30457245404E+02  0.00000000000E+00 0.  1.
          5    1    4    4  501    0 -0.23188118336E+02  0.43955193007E+02 -0.20709447184E+03  0.21301488326E+03  0.41800000000E+01 0.  1.
         -5    1    4    4    0  501  0.22302004581E+02 -0.30856976215E+02 -0.12933219125E+02  0.40426141869E+02  0.41800000000E+01 0.  1.
</event>
<event>
11    1  0.8551154E-009  0.2837977E+03  0.7561462E-02  0.1007291E+00
         22   -1    0    0    0    0  0.00000000000E+00  0.00000000000E+00  0.20915343956E+04  0.20915343956E+04  0.00000000000E+00 0.  1.
         22   -1    0    0    0    0 -0.00000000000E+00 -0.00000000000E+00 -0.50960442964E+03  0.50960442964E+03  0.00000000000E+00 0.  1.
         24    2    1    2    0    0  0.24370890483E+02 -0.71684823747E+02 -0.31266418087E+03  0.33193530593E+03  0.81789382324E+02 0.  0.
         25    2    1    2    0    0 -0.13388155496E+03  0.29764143641E+03 -0.68503137582E+01  0.34958499618E+03  0.12509215532E+03 0.  0.
        -24    2    1    2    0    0  0.10951066448E+03 -0.22595661267E+03  0.19014444606E+04  0.19196185231E+04  0.79970377112E+02 0.  0.
        -13    1    3    3    0    0 -0.37802199834E+01 -0.66478611549E+02 -0.28292816587E+03  0.29065794828E+03  0.00000000000E+00 0.  1.
         14    1    3    3    0    0  0.28151110466E+02 -0.52062121980E+01 -0.29736015004E+02  0.41277357646E+02  0.00000000000E+00 0. -1.
         11    1    5    5    0    0 -0.98869892508E+01 -0.31837813085E+02  0.16979823692E+03  0.17303999584E+03  0.00000000000E+00 0. -1.
        -12    1    5    5    0    0  0.11939765373E+03 -0.19411879958E+03  0.17316462237E+04  0.17465785273E+04  0.00000000000E+00 0.  1.
          5    1    4    4  501    0  0.97130501581E+01  0.10848372868E+03  0.19061573151E+02  0.11065206145E+03  0.41800000000E+01 0.  1.
         -5    1    4    4    0  501 -0.14359460512E+03  0.18915770774E+03 -0.25911886910E+02  0.23893293473E+03  0.41800000000E+01 0.  1.
</event>
<event>
11    1  0.8551154E-009  0.6211125E+03  0.7561462E-02  0.9157383E-01
         22   -1    0    0    0    0  0.00000000000E+00  0.00000000000E+00  0.12911042470E+04  0.12911042470E+04  0.00000000000E+00 0. -1.
         22   -1    0    0    0    0 -0.00000000000E+00 -0.00000000000E+00 -0.72106357357E+03  0.72106357357E+03  0.00000000000E+00 0. -1.
         24    2    1    2    0    0 -0.51449223371E+03 -0.30354200575E+03 -0.40225704011E+03  0.72458628130E+03  0.79840747323E+02 0.  0.
         25    2    1    2    0    0  0.51798029847E+03  0.43434782821E+03  0.74273304973E+03  0.10120585391E+04  0.12509387612E+03 0.  0.
        -24    2    1    2    0    0 -0.34880647607E+01 -0.13080582246E+03  0.22956466380E+03  0.27552300021E+03  0.78042674177E+02 0.  0.
        -13    1    3    3    0    0 -0.75352410259E+02 -0.61740460350E+02 -0.97944149882E+02  0.13814096667E+03  0.00000000000E+00 0.  1.
         14    1    3    3    0    0 -0.43913982345E+03 -0.24180154540E+03 -0.30431289022E+03  0.58644531463E+03  0.00000000000E+00 0. -1.
         11    1    5    5    0    0 -0.35222213377E+02 -0.97066563903E+02  0.13259829990E+03  0.16806198642E+03  0.00000000000E+00 0. -1.
        -12    1    5    5    0    0  0.31734148616E+02 -0.33739258560E+02  0.96966363900E+02  0.10746101379E+03  0.00000000000E+00 0.  1.
          5    1    4    4  501    0  0.38822171282E+03  0.26506070558E+03  0.56002069017E+03  0.73117297664E+03  0.41800000000E+01 0.  1.
         -5    1    4    4    0  501  0.12975858564E+03  0.16928712264E+03  0.18271235956E+03  0.28088556242E+03  0.41800000000E+01 0.  1.
</event>
<event>
11    1  0.8551154E-009  0.1464201E+03  0.7561462E-02  0.1100594E+00
         22   -1    0    0    0    0  0.00000000000E+00  0.00000000000E+00  0.89562467105E+03  0.89562467105E+03  0.00000000000E+00 0.  1.
         22   -1    0    0    0    0 -0.00000000000E+00 -0.00000000000E+00 -0.11386076446E+04  0.11386076446E+04  0.00000000000E+00 0.  1.
         24    2    1    2    0    0 -0.15447111888E+02 -0.52666945209E+02 -0.10996114318E+04  0.11038695358E+04  0.79813726432E+02 0.  0.
         25    2    1    2    0    0  0.13219046197E+01 -0.28590123430E+02  0.93901136586E+02  0.15901016092E+03  0.12509062808E+03 0.  0.
        -24    2    1    2    0    0  0.14125207268E+02  0.81257068638E+02  0.76272732163E+03  0.77135261888E+03  0.80185178179E+02 0.  0.
        -11    1    3    3    0    0 -0.25328492491E+02 -0.65023976875E+02 -0.60600660004E+03  0.61001118792E+03  0.00000000000E+00 0.  1.
         12    1    3    3    0    0  0.98813806035E+01  0.12357031666E+02 -0.49360483172E+03  0.49385834792E+03  0.00000000000E+00 0. -1.
         13    1    5    5    0    0  0.28664117120E+02  0.52585047708E+02  0.23043938748E+03  0.23809479237E+03  0.00000000000E+00 0. -1.
        -14    1    5    5    0    0 -0.14538909852E+02  0.28672020930E+02  0.53228793415E+03  0.53325782650E+03  0.00000000000E+00 0.  1.
          5    1    4    4  501    0  0.35551234057E+02 -0.65417761655E+02  0.73143702120E+02  0.10445500152E+03  0.41800000000E+01 0. -1.
         -5    1    4    4    0  501 -0.34229329438E+02  0.36827638226E+02  0.20757434466E+02  0.54555159396E+02  0.41800000000E+01 0. -1.
</event>
<event>
11    1  0.8551154E-009  0.1283242E+03  0.7561462E-02  0.1121345E+00
         22   -1    0    0    0    0  0.00000000000E+00  0.00000000000E+00  0.12386118737E+04  0.12386118737E+04  0.00000000000E+00 0.  1.
         22   -1    0    0    0    0 -0.00000000000E+00 -0.00000000000E+00 -0.31828768398E+03  0.31828768398E+03  0.00000000000E+00 0. -1.
         24    2    1    2    0    0 -0.13852570381E+02 -0.21759612146E+02 -0.17539763938E+03  0.19159769717E+03  0.72663410561E+02 0.  0.
         25    2    1    2    0    0  0.15081839118E+02 -0.69591121193E+01 -0.10350556698E+03  0.16322647927E+03  0.12511430784E+03 0.  0.
        -24    2    1    2    0    0 -0.12292687370E+01  0.28718724266E+02  0.11992273961E+04  0.12020753813E+04  0.77540946895E+02 0.  0.
        -11    1    3    3    0    0  0.28769020051E+02 -0.11948741814E+02 -0.96304441751E+02  0.10121746117E+03  0.00000000000E+00 0.  1.
         12    1    3    3    0    0 -0.42621590433E+02 -0.98108703326E+01 -0.79093197630E+02  0.90380235998E+02  0.00000000000E+00 0. -1.
         13    1    5    5    0    0  0.35614767540E+02  0.49809146040E+00  0.44634150775E+03  0.44776042847E+03  0.00000000000E+00 0. -1.
        -14    1    5    5    0    0 -0.36844036277E+02  0.28220632805E+02  0.75288588836E+03  0.75431495280E+03  0.00000000000E+00 0.  1.
          5    1    4    4  501    0 -0.53142477036E+02 -0.15063850248E+02 -0.60671810132E+02  0.82155848207E+02  0.41800000000E+01 0.  1.
         -5    1    4    4    0  501  0.68224316154E+02  0.81047381289E+01 -0.42833756849E+02  0.81070631061E+02  0.41800000000E+01 0.  1.
</event>
<event>
11    1  0.8551154E-009  0.2052584E+03  0.7561462E-02  0.1050866E+00
         22   -1    0    0    0    0  0.00000000000E+00  0.00000000000E+00  0.11233324104E+04  0.11233324104E+04  0.00000000000E+00 0. -1.
         22   -1    0    0    0    0 -0.00000000000E+00 -0.00000000000E+00 -0.70983806813E+03  0.70983806813E+03  0.00000000000E+00 0.  1.
         24    2    1    2    0    0 -0.11289611310E+03  0.12009718625E+03 -0.67738205597E+03  0.70180364182E+03  0.80703379283E+02 0.  0.
         25    2    1    2    0    0  0.82346892908E+02 -0.53430540603E+02  0.37727700186E+03  0.40941525761E+03  0.12508830318E+03 0.  0.
        -24    2    1    2    0    0  0.30549220192E+02 -0.66666645642E+02  0.71359939639E+03  0.72195157912E+03  0.81315973637E+02 0.  0.
        -13    1    3    3    0    0 -0.12090502118E+03  0.12262887614E+03 -0.66429176932E+03  0.68625026062E+03  0.00000000000E+00 0.  1.
         14    1    3    3    0    0  0.80089080797E+01 -0.25316898925E+01 -0.13090286644E+02  0.15553381200E+02  0.00000000000E+00 0. -1.
         13    1    5    5    0    0  0.11987838377E+02 -0.19795794888E+02  0.55609051932E+03  0.55657187086E+03  0.00000000000E+00 0. -1.
        -14    1    5    5    0    0  0.18561381814E+02 -0.46870850755E+02  0.15750887708E+03  0.16537970826E+03  0.00000000000E+00 0.  1.
          5    1    4    4  501    0 -0.32827924699E+02 -0.18340712253E+02  0.10737915201E+03  0.11384994094E+03  0.41800000000E+01 0.  1.
         -5    1    4    4    0  501  0.11517481761E+03 -0.35089828351E+02  0.26989784985E+03  0.29556531667E+03  0.41800000000E+01 0.  1.
</event>
<event>
11    1  0.8551154E-009  0.1607109E+03  0.7561462E-02  0.1086411E+00
         22   -1    0    0    0    0  0.00000000000E+00  0.00000000000E+00  0.71254050449E+03  0.71254050449E+03  0.00000000000E+00 0. -1.
         22   -1    0    0    0    0 -0.00000000000E+00 -0.00000000000E+00 -0.11252432095E+04  0.11252432095E+04  0.00000000000E+00 0.  1.
         24    2    1    2    0    0 -0.52904101545E+02  0.36636218450E+02 -0.98574767381E+03  0.99134898420E+03  0.83266293225E+02 0.  0.
         25    2    1    2    0    0  0.14272613236E+03 -0.75666262172E+02 -0.50226898070E+02  0.21040307574E+03  0.12510228177E+03 0.  0.
        -24    2    1    2    0    0 -0.89822030812E+02  0.39030043722E+02  0.62327186683E+03  0.63603165409E+03  0.80480454124E+02 0.  0.
        -13    1    3    3    0    0 -0.50108405947E+02  0.57710387436E+02 -0.88970235489E+03  0.89297907112E+03  0.00000000000E+00 0.  1.
         14    1    3    3    0    0 -0.27956955979E+01 -0.21074168986E+02 -0.96045318922E+02  0.98369913079E+02  0.00000000000E+00 0. -1.
         11    1    5    5    0    0 -0.99114209637E+02  0.28893869884E+02  0.60139463810E+03  0.61019176740E+03  0.00000000000E+00 0. -1.
        -12    1    5    5    0    0  0.92921788259E+01  0.10136173838E+02  0.21877228730E+02  0.25839886693E+02  0.00000000000E+00 0.  1.
          5    1    4    4  501    0 -0.10325161454E+02 -0.47294663937E+02 -0.13086239810E+02  0.50320137801E+02  0.41800000000E+01 0.  1.
         -5    1    4    4    0  501  0.15305129381E+03 -0.28371598235E+02 -0.37140658260E+02  0.16008293794E+03  0.41800000000E+01 0.  1.
</event>
<event>
11    1  0.8551154E-009  0.1363714E+03  0.7561462E-02  0.1111679E+00
         22   -1    0    0    0    0  0.00000000000E+00  0.00000000000E+00  0.23705679432E+03  0.23705679432E+03  0.00000000000E+00 0. -1.
         22   -1    0    0    0    0 -0.00000000000E+00 -0.00000000000E+00 -0.66581999433E+03  0.66581999433E+03  0.00000000000E+00 0.  1.
        -24    2    1    2    0    0 -0.49754104131E+02  0.21333865946E+02 -0.43847997350E+03  0.44905020908E+03  0.80316862451E+02 0.  0.
         25    2    1    2    0    0  0.38667297554E+02 -0.46435552332E+02 -0.19109598774E+03  0.23625125652E+03  0.12508220998E+03 0.  0.
         24    2    1    2    0    0  0.11086806577E+02  0.25101686386E+02  0.20081276123E+03  0.21757532306E+03  0.79121704929E+02 0.  0.
        -11    1    5    5    0    0 -0.15673845991E+02  0.19972932067E-01  0.24668357598E+01  0.15866793177E+02  0.00000000000E+00 0.  1.
         12    1    5    5    0    0  0.26760652567E+02  0.25081713454E+02  0.19834592547E+03  0.20170852988E+03  0.00000000000E+00 0. -1.
         13    1    3    3    0    0  0.66028644771E+01 -0.17262150960E+02 -0.32702385033E+02  0.37563621522E+02  0.00000000000E+00 0. -1.
        -14    1    3    3    0    0 -0.56356968608E+02  0.38596016906E+02 -0.40577758847E+03  0.41148658755E+03  0.00000000000E+00 0.  1.
          5    1    4    4  501    0  0.72809555860E+02 -0.65944595259E+02 -0.14878335129E+03  0.17833642110E+03  0.41800000000E+01 0. -1.
         -5    1    4    4    0  501 -0.34142258306E+02  0.19509042927E+02 -0.42312636450E+02  0.57914835418E+02  0.41800000000E+01 0. -1.
</event>
<event>
11    1  0.8551154E-009  0.1412692E+03  0.7561462E-02  0.1106149E+00
         22   -1    0    0    0    0  0.00000000000E+00  0.00000000000E+00  0.92646565031E+03  0.92646565031E+03  0.00000000000E+00 0. -1.
         22   -1    0    0    0    0 -0.00000000000E+00 -0.00000000000E+00 -0.11412754062E+03  0.11412754062E+03  0.00000000000E+00 0.  1.
        -24    2    1    2    0    0 -0.37970743315E+02  0.24571367099E+02 -0.77787416460E+02  0.11109131476E+03  0.65152656335E+02 0.  0.
         25    2    1    2    0    0  0.10201804323E+01  0.41159882517E+02  0.27837425676E+03  0.30795126780E+03  0.12508628948E+03 0.  0.
         24    2    1    2    0    0  0.36950562883E+02 -0.65731249616E+02  0.61175126938E+03  0.62155060837E+03  0.79997511810E+02 0.  0.
        -13    1    5    5    0    0  0.30778112108E+02  0.11191767282E+02  0.17772494498E+03  0.18071719318E+03  0.00000000000E+00 0.  1.
         14    1    5    5    0    0  0.61724507749E+01 -0.76923016899E+02  0.43402632440E+03  0.44083341519E+03  0.00000000000E+00 0. -1.
         13    1    3    3    0    0 -0.15386629352E+02 -0.78008634019E+01  0.61674859920E+01  0.18320472595E+02  0.00000000000E+00 0. -1.
        -14    1    3    3    0    0 -0.22584113963E+02  0.32372230501E+02 -0.83954902452E+02  0.92770842170E+02  0.00000000000E+00 0.  1.
          5    1    4    4  501    0 -0.53813548008E+02  0.43711522972E+01  0.18992102189E+03  0.19749043490E+03  0.41800000000E+01 0. -1.
         -5    1    4    4    0  501  0.54833728440E+02  0.36788730220E+02  0.88453234871E+02  0.11046083290E+03  0.41800000000E+01 0. -1.
</event>
<event>
11    1  0.8551154E-009  0.1585746E+03  0.7561462E-02  0.1088426E+00
         22   -1    0    0    0    0  0.00000000000E+00  0.00000000000E+00  0.14572641457E+03  0.14572641457E+03  0.00000000000E+00 0. -1.
         22   -1    0    0    0    0 -0.00000000000E+00 -0.00000000000E+00 -0.48789832545E+03  0.48789832545E+03  0.00000000000E+00 0.  1.
         24    2    1    2    0    0  0.58797773578E+02 -0.71567496795E+02 -0.26548365925E+03  0.29267132190E+03  0.81214805067E+02 0.  0.
         25    2    1    2    0    0 -0.12635515968E+03  0.35944578156E+02 -0.12508372399E+03  0.22034293602E+03  0.12508969730E+03 0.  0.
        -24    2    1    2    0    0  0.67557386106E+02  0.35622918639E+02  0.48395472360E+02  0.12061048210E+03  0.79823391914E+02 0.  0.
        -11    1    3    3    0    0  0.41152001844E+02 -0.57351310019E+02 -0.25992531579E+03  0.26933961797E+03  0.00000000000E+00 0.  1.
         12    1    3    3    0    0  0.17645771734E+02 -0.14216186776E+02 -0.55583434528E+01  0.23331703935E+02  0.00000000000E+00 0. -1.
         11    1    5    5    0    0 -0.16561338238E+02  0.15989410646E+02  0.17330573551E+02  0.28814717709E+02  0.00000000000E+00 0. -1.
        -12    1    5    5    0    0  0.84118724344E+02  0.19633507993E+02  0.31064898809E+02  0.91795764387E+02  0.00000000000E+00 0.  1.
          5    1    4    4  501    0 -0.14475984242E+03  0.44160972599E+02 -0.81043935548E+02  0.17173000718E+03  0.41800000000E+01 0.  1.
         -5    1    4    4    0  501  0.18404682736E+02 -0.82163944433E+01 -0.44039788442E+02  0.48612928839E+02  0.41800000000E+01 0.  1.
</event>
<event>
11    1  0.8551154E-009  0.1685593E+03  0.7561462E-02  0.1079292E+00
         22   -1    0    0    0    0  0.00000000000E+00  0.00000000000E+00  0.33094921537E+04  0.33094921537E+04  0.00000000000E+00 0. -1.
         22   -1    0    0    0    0 -0.00000000000E+00 -0.00000000000E+00 -0.16599973685E+03  0.16599973685E+03  0.00000000000E+00 0.  1.
        -24    2    1    2    0    0  0.97951833609E+02  0.55864471593E+02 -0.12832951608E+03  0.19121476979E+03  0.85902401562E+02 0.  0.
         25    2    1    2    0    0 -0.98231816332E+02 -0.77326232669E+02  0.15984530504E+04  0.16082072251E+04  0.12509791520E+03 0.  0.
         24    2    1    2    0    0  0.27998272303E+00  0.21461761076E+02  0.16733688826E+04  0.16760698957E+04  0.92661710914E+02 0.  0.
        -11    1    5    5    0    0  0.32446278805E+01  0.14843075894E+02  0.41647013805E+02  0.44331910302E+02  0.00000000000E+00 0.  1.
         12    1    5    5    0    0 -0.29646451574E+01  0.66186851823E+01  0.16317218688E+04  0.16317379854E+04  0.00000000000E+00 0. -1.
         11    1    3    3    0    0 -0.85556849885E+01  0.23317186195E+02 -0.55498200053E+01  0.25449782312E+02  0.00000000000E+00 0. -1.
        -12    1    3    3    0    0  0.10650751860E+03  0.32547285398E+02 -0.12277969608E+03  0.16576498748E+03  0.00000000000E+00 0.  1.
          5    1    4    4  501    0 -0.79485544247E+02 -0.49769375505E+02  0.47153018334E+03  0.48078386900E+03  0.41800000000E+01 0. -1.
         -5    1    4    4    0  501 -0.18746272085E+02 -0.27556857164E+02  0.11269228671E+04  0.11274233561E+04  0.41800000000E+01 0. -1.
</event>
<event>
11    1  0.8551154E-009  0.2062156E+03  0.7561462E-02  0.1050213E+00
         22   -1    0    0    0    0  0.00000000000E+00  0.00000000000E+00  0.32422027168E+02  0.32422027168E+02  0.00000000000E+00 0.  1.
         22   -1    0    0    0    0 -0.00000000000E+00 -0.00000000000E+00 -0.21667549470E+04  0.21667549470E+04  0.00000000000E+00 0.  1.
        -24    2    1    2    0    0 -0.11719716793E+02  0.80508254158E+02 -0.64980605911E+03  0.65999051814E+03  0.81979502451E+02 0.  0.
         25    2    1    2    0    0 -0.90918431971E+02 -0.18236510219E+03 -0.94687293257E+03  0.97659525325E+03  0.12508695564E+03 0.  0.
         24    2    1    2    0    0  0.10263814876E+03  0.10185684803E+03 -0.53765392818E+03  0.56259120281E+03  0.80794231974E+02 0.  0.
        -13    1    5    5    0    0  0.18735907936E+02  0.62275194603E+02 -0.14163773003E+03  0.15585403645E+03  0.00000000000E+00 0.  1.
         14    1    5    5    0    0  0.83902240827E+02  0.39581653425E+02 -0.39601619814E+03  0.40673716635E+03  0.00000000000E+00 0. -1.
         11    1    3    3    0    0 -0.14608274940E+02 -0.11648114413E+02 -0.19754942609E+03  0.19843098552E+03  0.00000000000E+00 0. -1.
        -12    1    3    3    0    0  0.28885581475E+01  0.92156368571E+02 -0.45225663302E+03  0.46155953261E+03  0.00000000000E+00 0.  1.
          5    1    4    4  501    0 -0.84211448762E+02 -0.19994850996E+03 -0.90239734697E+03  0.92812144623E+03  0.41800000000E+01 0. -1.
         -5    1    4    4    0  501 -0.67069832087E+01  0.17583407769E+02 -0.44475585603E+02  0.48473807023E+02  0.41800000000E+01 0. -1.
</event>
<event>
11    1  0.8563745E-009  0.1735336E+03  0.7561462E-02  0.1074997E+00
         22   -1    0    0    0    0  0.00000000000E+00  0.00000000000E+00  0.13729643980E+04  0.13729643980E+04  0.00000000000E+00 0.  1.
         22   -1    0    0    0    0 -0.00000000000E+00 -0.00000000000E+00 -0.11586737299E+04  0.11586737299E+04  0.00000000000E+00 0.  1.
         24    2    1    2    0    0  0.43889903500E+02  0.15453868025E+02 -0.74960756393E+03  0.75546711129E+03  0.81571506497E+02 0.  0.
         25    2    1    2    0    0 -0.97587067060E+02 -0.12272482493E+03 -0.37728253468E+03  0.42728662459E+03  0.12508848973E+03 0.  0.
        -24    2    1    2    0    0  0.53697163560E+02  0.10727095690E+03  0.13411807667E+04  0.13488843920E+04  0.79578956887E+02 0.  0.
        -11    1    3    3    0    0  0.51127175239E+02 -0.99990121340E+01 -0.26127306515E+03  0.26641618356E+03  0.00000000000E+00 0.  1.
         12    1    3    3    0    0 -0.72372717388E+01  0.25452880159E+02 -0.48833449879E+03  0.48905092773E+03  0.00000000000E+00 0. -1.
         13    1    5    5    0    0  0.39585204599E+02  0.35932632772E+02  0.27023631719E+03  0.27547379122E+03  0.00000000000E+00 0. -1.
        -14    1    5    5    0    0  0.14111958961E+02  0.71338324128E+02  0.10709444496E+04  0.10734106008E+04  0.00000000000E+00 0.  1.
          5    1    4    4  501    0 -0.56693421331E+02 -0.12702510302E+03 -0.35278333495E+03  0.37924012794E+03  0.41800000000E+01 0. -1.
         -5    1    4    4    0  501 -0.40893645729E+02  0.43002780921E+01 -0.24499199733E+02  0.48046496649E+02  0.41800000000E+01 0. -1.
</event>
<event>
11    1  0.8551154E-009  0.2652241E+03  0.7561462E-02  0.1016088E+00
         22   -1    0    0    0    0  0.00000000000E+00  0.00000000000E+00  0.31083409788E+03  0.31083409788E+03  0.00000000000E+00 0. -1.
         22   -1    0    0    0    0 -0.00000000000E+00 -0.00000000000E+00 -0.11380960385E+04  0.11380960385E+04  0.00000000000E+00 0. -1.
        -24    2    1    2    0    0 -0.65128267315E+01  0.10899603454E+03 -0.22474947901E+03  0.26179352234E+03  0.78108690730E+02 0.  0.
         25    2    1    2    0    0 -0.21890808737E+03 -0.38272510914E+02 -0.81846864697E+03  0.85727691560E+03  0.12508896092E+03 0.  0.
         24    2    1    2    0    0  0.22542091410E+03 -0.70723523628E+02  0.21595618531E+03  0.32985969849E+03  0.79711614008E+02 0.  0.
        -11    1    5    5    0    0  0.64435115894E+02 -0.48644489013E+02  0.39153568579E+02  0.89728325539E+02  0.00000000000E+00 0.  1.
         12    1    5    5    0    0  0.16098579821E+03 -0.22079034615E+02  0.17680261673E+03  0.24013137295E+03  0.00000000000E+00 0. -1.
         13    1    3    3    0    0  0.20326969994E+02  0.16991616771E+02 -0.10565136832E+03  0.10892250630E+03  0.00000000000E+00 0. -1.
        -14    1    3    3    0    0 -0.26839796726E+02  0.92004417770E+02 -0.11909811069E+03  0.15287101604E+03  0.00000000000E+00 0.  1.
          5    1    4    4  501    0 -0.97205160119E+02 -0.12555651056E+01 -0.16520931248E+03  0.19173421428E+03  0.41800000000E+01 0. -1.
         -5    1    4    4    0  501 -0.12170292725E+03 -0.37016945808E+02 -0.65325933449E+03  0.66554270132E+03  0.41800000000E+01 0. -1.
</event>
<event>
11    1  0.8551154E-009  0.1362562E+03  0.7561462E-02  0.1111812E+00
         22   -1    0    0    0    0  0.00000000000E+00  0.00000000000E+00  0.38097217922E+03  0.38097217922E+03  0.00000000000E+00 0. -1.
         22   -1    0    0    0    0 -0.00000000000E+00 -0.00000000000E+00 -0.10363389716E+04  0.10363389716E+04  0.00000000000E+00 0. -1.
         24    2    1    2    0    0  0.44344249027E+01 -0.30387769374E+02 -0.95616835106E+03  0.95969894510E+03  0.76295930488E+02 0.  0.
         25    2    1    2    0    0  0.42516461214E+02  0.54897073584E+02  0.14610264796E+01  0.14307795180E+03  0.12509127680E+03 0.  0.
        -24    2    1    2    0    0 -0.46950886117E+02 -0.24509304210E+02  0.29934053224E+03  0.31453425388E+03  0.80758596571E+02 0.  0.
        -11    1    3    3    0    0 -0.12797615842E+02 -0.49847814117E+02 -0.46414222504E+03  0.46698671139E+03  0.00000000000E+00 0.  1.
         12    1    3    3    0    0  0.17232040745E+02  0.19460044744E+02 -0.49202612602E+03  0.49271223372E+03  0.00000000000E+00 0. -1.
         13    1    5    5    0    0  0.45201580468E+01 -0.40848197777E+02  0.15713057985E+03  0.16241621291E+03  0.00000000000E+00 0. -1.
        -14    1    5    5    0    0 -0.51471044163E+02  0.16338893567E+02  0.14220995239E+03  0.15211804097E+03  0.00000000000E+00 0.  1.
          5    1    4    4  501    0  0.76381467588E+02  0.63532180503E+02 -0.20584382331E+02  0.10154632315E+03  0.41800000000E+01 0.  1.
         -5    1    4    4    0  501 -0.33865006374E+02 -0.86351069184E+01  0.22045408810E+02  0.41531628644E+02  0.41800000000E+01 0.  1.
</event>
<event>
11    1  0.8551154E-009  0.2182636E+03  0.7561462E-02  0.1042311E+00
         22   -1    0    0    0    0  0.00000000000E+00  0.00000000000E+00  0.97847373237E+03  0.97847373237E+03  0.00000000000E+00 0. -1.
         22   -1    0    0    0    0 -0.00000000000E+00 -0.00000000000E+00 -0.26679630646E+03  0.26679630646E+03  0.00000000000E+00 0.  1.
         24    2    1    2    0    0 -0.17051661594E+03  0.27361714415E+02 -0.15541508746E+03  0.24544947982E+03  0.79164499656E+02 0.  0.
         25    2    1    2    0    0  0.20219287051E+03 -0.78005432498E+02  0.18536560034E+03  0.31140804901E+03  0.12509101812E+03 0.  0.
        -24    2    1    2    0    0 -0.31676254568E+02  0.50643718083E+02  0.68172691302E+03  0.68841250999E+03  0.74779868283E+02 0.  0.
        -11    1    3    3    0    0 -0.14871222180E+03  0.50978367466E+02 -0.13619674164E+03  0.20799920985E+03  0.00000000000E+00 0.  1.
         12    1    3    3    0    0 -0.21804394139E+02 -0.23616653051E+02 -0.19218345817E+02  0.37450269973E+02  0.00000000000E+00 0. -1.
         11    1    5    5    0    0 -0.14965005494E+02  0.41976538000E+02  0.64996453022E+03  0.65149050007E+03  0.00000000000E+00 0. -1.
        -12    1    5    5    0    0 -0.16711249074E+02  0.86671800831E+01  0.31762382795E+02  0.36922009926E+02  0.00000000000E+00 0.  1.
          5    1    4    4  501    0  0.65470347463E+02  0.31051841745E+02  0.34335330104E+02  0.80293029374E+02  0.41800000000E+01 0.  1.
         -5    1    4    4    0  501  0.13672252305E+03 -0.10905727424E+03  0.15103027024E+03  0.23111501964E+03  0.41800000000E+01 0.  1.
</event>
<event>
11    1  0.8551154E-009  0.1309420E+03  0.7561462E-02  0.1118117E+00
         22   -1    0    0    0    0  0.00000000000E+00  0.00000000000E+00  0.33255596593E+03  0.33255596593E+03  0.00000000000E+00 0.  1.
         22   -1    0    0    0    0 -0.00000000000E+00 -0.00000000000E+00 -0.14480186839E+04  0.14480186839E+04  0.00000000000E+00 0.  1.
         24    2    1    2    0    0  0.27071114116E+02 -0.28087416079E+02 -0.13899958285E+04  0.13928291444E+04  0.79767625181E+02 0.  0.
         25    2    1    2    0    0  0.58916376765E+01  0.32172406359E+02  0.30626331167E+02  0.13288334375E+03  0.12510090231E+03 0.  0.
        -24    2    1    2    0    0 -0.32962751793E+02 -0.40849902800E+01  0.24390677936E+03  0.25486216170E+03  0.66037673333E+02 0.  0.
        -11    1    3    3    0    0  0.14683664641E+02  0.27351497215E+02 -0.39849941687E+03  0.39970676709E+03  0.00000000000E+00 0.  1.
         12    1    3    3    0    0  0.12387449475E+02 -0.55438913293E+02 -0.99149641166E+03  0.99312237733E+03  0.00000000000E+00 0. -1.
         11    1    5    5    0    0 -0.14947255859E+02 -0.30050000031E+02  0.64667360227E+02  0.72858015607E+02  0.00000000000E+00 0. -1.
        -12    1    5    5    0    0 -0.18015495934E+02  0.25965009751E+02  0.17923941913E+03  0.18200414610E+03  0.00000000000E+00 0.  1.
          5    1    4    4  501    0 -0.19467087091E+02  0.36929388334E+01  0.72981052015E+02  0.75738442222E+02  0.41800000000E+01 0.  1.
         -5    1    4    4    0  501  0.25358724767E+02  0.28479467525E+02 -0.42354720847E+02  0.57144901526E+02  0.41800000000E+01 0.  1.
</event>
<event>
11    1  0.8551154E-009  0.2287592E+03  0.7561462E-02  0.1035865E+00
         22   -1    0    0    0    0  0.00000000000E+00  0.00000000000E+00  0.11818258736E+04  0.11818258736E+04  0.00000000000E+00 0.  1.
         22   -1    0    0    0    0 -0.00000000000E+00 -0.00000000000E+00 -0.51870797848E+03  0.51870797848E+03  0.00000000000E+00 0. -1.
         24    2    1    2    0    0 -0.30298406489E+02  0.19324499193E+03 -0.45843597754E+03  0.50529715267E+03  0.83066519446E+02 0.  0.
         25    2    1    2    0    0  0.35093429296E+02 -0.14120205898E+03  0.23323068030E+03  0.30201555306E+03  0.12508906355E+03 0.  0.
        -24    2    1    2    0    0 -0.47950228066E+01 -0.52042932950E+02  0.88832319234E+03  0.89322114634E+03  0.77423918142E+02 0.  0.
        -13    1    3    3    0    0 -0.55542363474E+02  0.88940671783E+02 -0.24081849233E+03  0.26265746417E+03  0.00000000000E+00 0.  1.
         14    1    3    3    0    0  0.25243956985E+02  0.10430432015E+03 -0.21761748521E+03  0.24263968850E+03  0.00000000000E+00 0. -1.
         11    1    5    5    0    0  0.26594012190E+02 -0.21653877432E+02  0.16225725993E+03  0.16584194370E+03  0.00000000000E+00 0. -1.
        -12    1    5    5    0    0 -0.31389034997E+02 -0.30389055518E+02  0.72606593241E+03  0.72737920263E+03  0.00000000000E+00 0.  1.
          5    1    4    4  501    0 -0.39239891104E+02 -0.76915801479E+02  0.15015863976E+03  0.17326540066E+03  0.41800000000E+01 0. -1.
         -5    1    4    4    0  501  0.74333320400E+02 -0.64286257500E+02  0.83072040536E+02  0.12875015240E+03  0.41800000000E+01 0. -1.
</event>
<event>
11    1  0.8551154E-009  0.1533392E+03  0.7561462E-02  0.1093515E+00
         22   -1    0    0    0    0  0.00000000000E+00  0.00000000000E+00  0.74505803831E+03  0.74505803831E+03  0.00000000000E+00 0. -1.
         22   -1    0    0    0    0 -0.00000000000E+00 -0.00000000000E+00 -0.63837525315E+03  0.63837525315E+03  0.00000000000E+00 0.  1.
         24    2    1    2    0    0  0.12397206586E+01 -0.90233951303E+00 -0.22565957538E+03  0.24059965506E+03  0.83448181114E+02 0.  0.
         25    2    1    2    0    0 -0.44847601274E+02  0.78105793803E+02 -0.38543545400E+03  0.41511463592E+03  0.12509136417E+03 0.  0.
        -24    2    1    2    0    0  0.43607880615E+02 -0.77203454290E+02  0.71777781453E+03  0.72771900048E+03  0.80671754781E+02 0.  0.
        -11    1    3    3    0    0  0.25296682532E+02 -0.12281717128E+02 -0.20497220530E+03  0.20689216435E+03  0.00000000000E+00 0.  1.
         12    1    3    3    0    0 -0.24056961874E+02  0.11379377615E+02 -0.20687370082E+02  0.33707490716E+02  0.00000000000E+00 0. -1.
         13    1    5    5    0    0  0.15416703596E+02 -0.30474676273E+02  0.55473012436E+03  0.55578043463E+03  0.00000000000E+00 0. -1.
        -14    1    5    5    0    0  0.28191177019E+02 -0.46728778017E+02  0.16304769018E+03  0.17193856586E+03  0.00000000000E+00 0.  1.
          5    1    4    4  501    0  0.20672688424E+02  0.76317842648E+02 -0.13790334736E+03  0.15901754232E+03  0.41800000000E+01 0.  1.
         -5    1    4    4    0  501 -0.65520289698E+02  0.17879511552E+01 -0.24753210664E+03  0.25609709360E+03  0.41800000000E+01 0.  1.
</event>
<event>
11    1  0.8551154E-009  0.1411016E+03  0.7561462E-02  0.1106335E+00
         22   -1    0    0    0    0  0.00000000000E+00  0.00000000000E+00  0.25760814391E+02  0.25760814391E+02  0.00000000000E+00 0. -1.
         22   -1    0    0    0    0 -0.00000000000E+00 -0.00000000000E+00 -0.20279469001E+04  0.20279469001E+04  0.00000000000E+00 0. -1.
        -24    2    1    2    0    0  0.17887955770E+02  0.69348654606E+01 -0.13625678455E+04  0.13651790959E+04  0.82187339857E+02 0.  0.
         25    2    1    2    0    0  0.11372789321E+02 -0.65602985647E+02 -0.48034505416E+03  0.50081109622E+03  0.12508913212E+03 0.  0.
         24    2    1    2    0    0 -0.29260745092E+02  0.58668120186E+02 -0.15927318597E+03  0.18771752234E+03  0.74644362797E+02 0.  0.
        -11    1    5    5    0    0  0.70749923761E+01 -0.88944554833E+01 -0.49216830860E+00  0.11375811404E+02  0.00000000000E+00 0.  1.
         12    1    5    5    0    0 -0.36335737468E+02  0.67562575670E+02 -0.15878101766E+03  0.17634171094E+03  0.00000000000E+00 0. -1.
         11    1    3    3    0    0 -0.20680340160E+01  0.42388283198E+02 -0.81337222812E+03  0.81447862145E+03  0.00000000000E+00 0. -1.
        -12    1    3    3    0    0  0.19955989786E+02 -0.35453417738E+02 -0.54919561742E+03  0.55070047444E+03  0.00000000000E+00 0.  1.
          5    1    4    4  501    0 -0.26554662836E+01  0.21142223315E+02 -0.13107112472E+02  0.25363633518E+02  0.41800000000E+01 0.  1.
         -5    1    4    4    0  501  0.14028255605E+02 -0.86745208962E+02 -0.46723794169E+03  0.47544746270E+03  0.41800000000E+01 0.  1.
</event>
<event>
11    1  0.8551154E-009  0.1507452E+03  0.7561462E-02  0.1096120E+00
         22   -1    0    0    0    0  0.00000000000E+00  0.00000000000E+00  0.57006540068E+03  0.57006540068E+03  0.00000000000E+00 0.  1.
         22   -1    0    0    0    0 -0.00000000000E+00 -0.00000000000E+00 -0.52639401021E+03  0.52639401021E+03  0.00000000000E+00 0. -1.
         24    2    1    2    0    0 -0.60113195579E+01 -0.11752702517E+02 -0.47906346703E+03  0.48583818228E+03  0.79766358434E+02 0.  0.
         25    2    1    2    0    0  0.87002556553E+02  0.27696610133E+02  0.13281146181E+03  0.20401851623E+03  0.12509245987E+03 0.  0.
        -24    2    1    2    0    0 -0.80991236995E+02 -0.15943907616E+02  0.38992339569E+03  0.40660271238E+03  0.80447017026E+02 0.  0.
        -13    1    3    3    0    0 -0.24558946829E+02 -0.39786580337E+02 -0.25212128913E+03  0.25642008166E+03  0.00000000000E+00 0.  1.
         14    1    3    3    0    0  0.18547627272E+02  0.28033877820E+02 -0.22694217790E+03  0.22941810062E+03  0.00000000000E+00 0. -1.
         13    1    5    5    0    0  0.13157901012E+02 -0.16115245270E+02  0.59760961947E+02  0.63278780503E+02  0.00000000000E+00 0. -1.
        -14    1    5    5    0    0 -0.94149138008E+02  0.17133765425E+00  0.33016243374E+03  0.34332393188E+03  0.00000000000E+00 0.  1.
          5    1    4    4  501    0 -0.25462736885E+01  0.33064101326E+02  0.10471362652E+03  0.10991876221E+03  0.41800000000E+01 0. -1.
         -5    1    4    4    0  501  0.89548830242E+02 -0.53674911927E+01  0.28097835288E+02  0.94099754023E+02  0.41800000000E+01 0. -1.
</event>
<event>
11    1  0.8551154E-009  0.1477726E+03  0.7561462E-02  0.1099177E+00
         22   -1    0    0    0    0  0.00000000000E+00  0.00000000000E+00  0.91516326923E+03  0.91516326923E+03  0.00000000000E+00 0. -1.
         22   -1    0    0    0    0 -0.00000000000E+00 -0.00000000000E+00 -0.77185968779E+03  0.77185968779E+03  0.00000000000E+00 0.  1.
        -24    2    1    2    0    0 -0.68896346639E+02  0.38369225745E+02 -0.74514296426E+03  0.75328729375E+03  0.77361525860E+02 0.  0.
         25    2    1    2    0    0  0.27371436796E+02 -0.82323914113E+02  0.29530093934E+03  0.33222944632E+03  0.12508931946E+03 0.  0.
         24    2    1    2    0    0  0.41524909843E+02  0.43954688368E+02  0.59314560635E+03  0.60150621694E+03  0.79571891521E+02 0.  0.
        -11    1    5    5    0    0  0.11053617743E+02 -0.22522575921E+02  0.20523537830E+03  0.20676317225E+03  0.00000000000E+00 0.  1.
         12    1    5    5    0    0  0.30471292099E+02  0.66477264290E+02  0.38791022805E+03  0.39474304469E+03  0.00000000000E+00 0. -1.
         11    1    3    3    0    0 -0.54626125021E+02  0.40896103584E+02 -0.29025464244E+03  0.29816817785E+03  0.00000000000E+00 0. -1.
        -12    1    3    3    0    0 -0.14270221618E+02 -0.25268778393E+01 -0.45488832182E+03  0.45511911591E+03  0.00000000000E+00 0.  1.
          5    1    4    4  501    0  0.65297044695E+02 -0.27499513161E+02  0.22195566260E+03  0.23302728559E+03  0.41800000000E+01 0.  1.
         -5    1    4    4    0  501 -0.37925607899E+02 -0.54824400952E+02  0.73345276744E+02  0.99202160737E+02  0.41800000000E+01 0.  1.
</event>
<event>
11    1  0.8551154E-009  0.1592117E+03  0.7561462E-02  0.1087821E+00
         22   -1    0    0    0    0  0.00000000000E+00  0.00000000000E+00  0.33739650875E+03  0.33739650875E+03  0.00000000000E+00 0.  1.
         22   -1    0    0    0    0 -0.00000000000E+00 -0.00000000000E+00 -0.11547757727E+04  0.11547757727E+04  0.00000000000E+00 0.  1.
        -24    2    1    2    0    0  0.30296123740E+02  0.93774919004E+02 -0.10240214674E+04  0.10318692550E+04  0.80141145735E+02 0.  0.
         25    2    1    2    0    0 -0.38785064171E+02 -0.90064986136E+02 -0.68940988485E+02  0.17325672314E+03  0.12509616017E+03 0.  0.
         24    2    1    2    0    0  0.84889404311E+01 -0.37099328673E+01  0.27558319190E+03  0.28704630331E+03  0.79772544619E+02 0.  0.
        -11    1    5    5    0    0 -0.29617267346E+02 -0.15509599376E+02  0.18602782425E+03  0.18900815219E+03  0.00000000000E+00 0.  1.
         12    1    5    5    0    0  0.38106207777E+02  0.11799666509E+02  0.89555367652E+02  0.98038151126E+02  0.00000000000E+00 0. -1.
         11    1    3    3    0    0 -0.99179328847E+00  0.81229395275E+02 -0.48176101362E+03  0.48856204576E+03  0.00000000000E+00 0. -1.
        -12    1    3    3    0    0  0.31287917028E+02  0.12545523729E+02 -0.54226045378E+03  0.54330720928E+03  0.00000000000E+00 0.  1.
          5    1    4    4  501    0 -0.17078140871E+02 -0.16427222147E+02  0.35917013159E+02  0.43232172711E+02  0.41800000000E+01 0.  1.
         -5    1    4    4    0  501 -0.21706923300E+02 -0.73637763990E+02 -0.10485800164E+03  0.13002455043E+03  0.41800000000E+01 0.  1.
</event>
<event>
11    1  0.8551154E-009  0.1739249E+03  0.7561462E-02  0.1074666E+00
         22   -1    0    0    0    0  0.00000000000E+00  0.00000000000E+00  0.57726288680E+03  0.57726288680E+03  0.00000000000E+00 0.  1.
         22   -1    0    0    0    0 -0.00000000000E+00 -0.00000000000E+00 -0.43649222422E+03  0.43649222422E+03  0.00000000000E+00 0. -1.
        -24    2    1    2    0    0  0.50390080554E+02  0.53719610665E+02 -0.36815522565E+03  0.38352685182E+03  0.78291884009E+02 0.  0.
         25    2    1    2    0    0  0.81944113202E+01 -0.15284855084E+03  0.16087454161E+03  0.25486902107E+03  0.12509105441E+03 0.  0.
         24    2    1    2    0    0 -0.58584491874E+02  0.99128940174E+02  0.34805134662E+03  0.37535923814E+03  0.80598562641E+02 0.  0.
        -13    1    5    5    0    0  0.12761048477E+02  0.35455426141E+02  0.16015939713E+03  0.16453256240E+03  0.00000000000E+00 0.  1.
         14    1    5    5    0    0 -0.71345540351E+02  0.63673514033E+02  0.18789194949E+03  0.21082667574E+03  0.00000000000E+00 0. -1.
         13    1    3    3    0    0  0.56796424359E+02  0.10730452252E+02 -0.27095403606E+03  0.27705065616E+03  0.00000000000E+00 0. -1.
        -14    1    3    3    0    0 -0.64063438052E+01  0.42989158413E+02 -0.97201189595E+02  0.10647619565E+03  0.00000000000E+00 0.  1.
          5    1    4    4  501    0 -0.27796195045E+02 -0.55071089646E+02  0.13340489110E+03  0.14703669863E+03  0.41800000000E+01 0.  1.
         -5    1    4    4    0  501  0.35990606365E+02 -0.97777461193E+02  0.27469650505E+02  0.10783232244E+03  0.41800000000E+01 0.  1.
</event>
<event>
11    1  0.8551154E-009  0.1740610E+03  0.7561462E-02  0.1074551E+00
         22   -1    0    0    0    0  0.00000000000E+00  0.00000000000E+00  0.16313478506E+03  0.16313478506E+03  0.00000000000E+00 0.  1.
         22   -1    0    0    0    0 -0.00000000000E+00 -0.00000000000E+00 -0.12059087424E+04  0.12059087424E+04  0.00000000000E+00 0. -1.
        -24    2    1    2    0    0  0.76851584352E+02  0.18593359320E+02 -0.10260325482E+04  0.10323549200E+04  0.82231453552E+02 0.  0.
         25    2    1    2    0    0 -0.13926604048E+03 -0.93795294643E+02 -0.19517805790E+02  0.21028845525E+03  0.12509077640E+03 0.  0.
         24    2    1    2    0    0  0.62414456126E+02  0.75201935323E+02  0.27763966491E+01  0.12640015218E+03  0.80114884272E+02 0.  0.
        -13    1    5    5    0    0  0.54554709115E+02  0.44631048893E+02  0.37196669197E+02  0.79697798033E+02  0.00000000000E+00 0.  1.
         14    1    5    5    0    0  0.78597470107E+01  0.30570886429E+02 -0.34420272548E+02  0.46702354142E+02  0.00000000000E+00 0. -1.
         13    1    3    3    0    0  0.87376408324E+02  0.25275758536E+02 -0.67498684698E+03  0.68108791231E+03  0.00000000000E+00 0. -1.
        -14    1    3    3    0    0 -0.10524823972E+02 -0.66823992161E+01 -0.35104570122E+03  0.35126700774E+03  0.00000000000E+00 0.  1.
          5    1    4    4  501    0  0.12400455747E+01  0.90892621543E+01 -0.34026191658E+02  0.35488117987E+02  0.41800000000E+01 0.  1.
         -5    1    4    4    0  501 -0.14050608605E+03 -0.10288455680E+03  0.14508385867E+02  0.17480033726E+03  0.41800000000E+01 0.  1.
</event>
<event>
11    1  0.8551154E-009  0.1545752E+03  0.7561462E-02  0.1092293E+00
         22   -1    0    0    0    0  0.00000000000E+00  0.00000000000E+00  0.78780487727E+03  0.78780487727E+03  0.00000000000E+00 0. -1.
         22   -1    0    0    0    0 -0.00000000000E+00 -0.00000000000E+00 -0.14118913388E+04  0.14118913388E+04  0.00000000000E+00 0. -1.
        -24    2    1    2    0    0  0.27957125204E+02 -0.55885484260E+02 -0.13724180696E+04  0.13761518823E+04  0.79736173376E+02 0.  0.
         25    2    1    2    0    0 -0.22447705431E+02  0.13705270949E+03  0.24961509631E+03  0.31183191126E+03  0.12507637632E+03 0.  0.
         24    2    1    2    0    0 -0.55094197732E+01 -0.81167225232E+02  0.49871651180E+03  0.51171242242E+03  0.80702986080E+02 0.  0.
        -13    1    5    5    0    0 -0.69539594493E+01 -0.43981139519E+02  0.81763051109E+02  0.93101529053E+02  0.00000000000E+00 0.  1.
         14    1    5    5    0    0  0.14445396762E+01 -0.37186085712E+02  0.41695346069E+03  0.41861089337E+03  0.00000000000E+00 0. -1.
         13    1    3    3    0    0  0.15704904981E+02 -0.18057303834E+02 -0.11472689733E+04  0.11475185433E+04  0.00000000000E+00 0. -1.
        -14    1    3    3    0    0  0.12252220222E+02 -0.37828180426E+02 -0.22514909631E+03  0.22863333901E+03  0.00000000000E+00 0.  1.
          5    1    4    4  501    0 -0.37545240321E+02  0.15658026590E+03  0.22509798004E+03  0.27679161432E+03  0.41800000000E+01 0. -1.
         -5    1    4    4    0  501  0.15097534890E+02 -0.19527556408E+02  0.24517116271E+02  0.35040296935E+02  0.41800000000E+01 0. -1.
</event>
<event>
11    1  0.8551154E-009  0.1498327E+03  0.7561462E-02  0.1097050E+00
         22   -1    0    0    0    0  0.00000000000E+00  0.00000000000E+00  0.14164322093E+04  0.14164322093E+04  0.00000000000E+00 0. -1.
         22   -1    0    0    0    0 -0.00000000000E+00 -0.00000000000E+00 -0.23486633872E+03  0.23486633872E+03  0.00000000000E+00 0. -1.
         24    2    1    2    0    0  0.18478929510E+02 -0.28614138161E+02 -0.20178033807E+03  0.22253850774E+03  0.87451945999E+02 0.  0.
         25    2    1    2    0    0 -0.69483888785E+02 -0.37975126473E+02  0.25854280936E+03  0.29793243431E+03  0.12509688289E+03 0.  0.
        -24    2    1    2    0    0  0.51004959275E+02  0.66589264633E+02  0.11248033992E+04  0.11308276059E+04  0.80949066267E+02 0.  0.
        -13    1    3    3    0    0  0.52677676842E+02 -0.24992854320E+02 -0.10945116683E+03  0.12401265389E+03  0.00000000000E+00 0.  1.
         14    1    3    3    0    0 -0.34198747332E+02 -0.36212838408E+01 -0.92329171237E+02  0.98525853851E+02  0.00000000000E+00 0. -1.
         13    1    5    5    0    0  0.50134114549E+02  0.76553224555E+02  0.11035586573E+04  0.11073461679E+04  0.00000000000E+00 0. -1.
        -14    1    5    5    0    0  0.87084472610E+00 -0.99639599220E+01  0.21244741981E+02  0.23481437982E+02  0.00000000000E+00 0.  1.
          5    1    4    4  501    0 -0.66477028532E+01 -0.27467641966E+02 -0.29855675235E+01  0.28723671803E+02  0.41800000000E+01 0.  1.
         -5    1    4    4    0  501 -0.62836185932E+02 -0.10507484506E+02  0.26152837689E+03  0.26920876250E+03  0.41800000000E+01 0.  1.
</event>
<event>
11    1  0.8551154E-009  0.1273164E+03  0.7561462E-02  0.1122611E+00
         22   -1    0    0    0    0  0.00000000000E+00  0.00000000000E+00  0.54804628655E+03  0.54804628655E+03  0.00000000000E+00 0. -1.
         22   -1    0    0    0    0 -0.00000000000E+00 -0.00000000000E+00 -0.15280704183E+03  0.15280704183E+03  0.00000000000E+00 0. -1.
        -24    2    1    2    0    0 -0.12313551871E+02  0.19987971756E+02 -0.51458996918E+02  0.98236873151E+02  0.80320061679E+02 0.  0.
         25    2    1    2    0    0 -0.15716666410E+01 -0.27595341138E+02 -0.19008245819E+02  0.12950943918E+03  0.12508960165E+03 0.  0.
         24    2    1    2    0    0  0.13885218512E+02  0.76073693815E+01  0.46570648746E+03  0.47310701605E+03  0.81835474034E+02 0.  0.
        -11    1    5    5    0    0  0.18382103785E+02  0.43433841580E+02  0.25332239902E+03  0.25767545126E+03  0.00000000000E+00 0.  1.
         12    1    5    5    0    0 -0.44968852727E+01 -0.35826472198E+02  0.21238408843E+03  0.21543156479E+03  0.00000000000E+00 0. -1.
         13    1    3    3    0    0 -0.45573270758E+02  0.21357252497E+02 -0.32835642303E+02  0.60093549132E+02  0.00000000000E+00 0. -1.
        -14    1    3    3    0    0  0.33259718886E+02 -0.13692807409E+01 -0.18623354615E+02  0.38143324019E+02  0.00000000000E+00 0.  1.
          5    1    4    4  501    0  0.76755202123E+01  0.31611831334E+02 -0.51619453097E+02  0.61157680047E+02  0.41800000000E+01 0. -1.
         -5    1    4    4    0  501 -0.92471868533E+01 -0.59207172472E+02  0.32611207277E+02  0.68351759135E+02  0.41800000000E+01 0. -1.
</event>
<event>
11    1  0.8551154E-009  0.1386974E+03  0.7561462E-02  0.1109022E+00
         22   -1    0    0    0    0  0.00000000000E+00  0.00000000000E+00  0.35879460559E+03  0.35879460559E+03  0.00000000000E+00 0. -1.
         22   -1    0    0    0    0 -0.00000000000E+00 -0.00000000000E+00 -0.58721892529E+03  0.58721892529E+03  0.00000000000E+00 0. -1.
        -24    2    1    2    0    0  0.19883160248E+02 -0.37928539439E+02 -0.50609923071E+03  0.51409475896E+03  0.79517769707E+02 0.  0.
         25    2    1    2    0    0  0.16275434992E+02 -0.16035999087E+02 -0.85007069085E+01  0.12744444844E+03  0.12509109628E+03 0.  0.
         24    2    1    2    0    0 -0.36158595240E+02  0.53964538526E+02  0.28617561792E+03  0.30447432349E+03  0.81169661466E+02 0.  0.
        -11    1    5    5    0    0 -0.10760646670E+02 -0.15807462183E+02  0.13169209739E+03  0.13307319750E+03  0.00000000000E+00 0.  1.
         12    1    5    5    0    0 -0.25397948570E+02  0.69772000710E+02  0.15448352053E+03  0.17140112599E+03  0.00000000000E+00 0. -1.
         13    1    3    3    0    0  0.28860658559E+02 -0.50934466139E+02 -0.48019481773E+03  0.48375026659E+03  0.00000000000E+00 0. -1.
        -14    1    3    3    0    0 -0.89774983108E+01  0.13005926699E+02 -0.25904412983E+02  0.30344492371E+02  0.00000000000E+00 0.  1.
          5    1    4    4  501    0  0.99394393326E+01 -0.50294206385E+02 -0.50930116296E+02  0.72385418394E+02  0.41800000000E+01 0. -1.
         -5    1    4    4    0  501  0.63359956592E+01  0.34258207298E+02  0.42429409388E+02  0.55059030043E+02  0.41800000000E+01 0. -1.
</event>
<event>
11    1  0.2483529E-008  0.1763990E+03  0.7561462E-02  0.1072593E+00
         22   -1    0    0    0    0  0.00000000000E+00  0.00000000000E+00  0.17877332919E+03  0.17877332919E+03  0.00000000000E+00 0.  1.
         22   -1    0    0    0    0 -0.00000000000E+00 -0.00000000000E+00 -0.15198253862E+04  0.15198253862E+04  0.00000000000E+00 0.  1.
         24    2    1    2    0    0 -0.91203756152E+01 -0.42387321515E+02 -0.73044732424E+03  0.73617514111E+03  0.80750719041E+02 0.  0.
         25    2    1    2    0    0 -0.82818283331E+02  0.12475725165E+03 -0.74003913238E+03  0.76532904829E+03  0.12508954716E+03 0.  0.
        -24    2    1    2    0    0  0.91938658947E+02 -0.82369930140E+02  0.12943439956E+03  0.19709452604E+03  0.82797741549E+02 0.  0.
        -11    1    3    3    0    0 -0.17526966934E+02 -0.36061130077E+02 -0.72075748422E+03  0.72187183816E+03  0.00000000000E+00 0.  1.
         12    1    3    3    0    0  0.84065913187E+01 -0.63261914379E+01 -0.96898400241E+01  0.14303302954E+02  0.00000000000E+00 0. -1.
         13    1    5    5    0    0 -0.11181873737E+02  0.51818169290E+01  0.50234000740E+01  0.13308646635E+02  0.00000000000E+00 0. -1.
        -14    1    5    5    0    0  0.10312053268E+03 -0.87551747069E+02  0.12441099948E+03  0.18378587940E+03  0.00000000000E+00 0.  1.
          5    1    4    4  501    0 -0.10582659719E+03  0.13056960014E+03 -0.68342276045E+03  0.70379814653E+03  0.41800000000E+01 0.  1.
         -5    1    4    4    0  501  0.23008313856E+02 -0.58123484813E+01 -0.56616371923E+02  0.61530901758E+02  0.41800000000E+01 0.  1.
</event>
<event>
11    1  0.8551154E-009  0.1479640E+03  0.7561462E-02  0.1098977E+00
         22   -1    0    0    0    0  0.00000000000E+00  0.00000000000E+00  0.82517411157E+02  0.82517411157E+02  0.00000000000E+00 0.  1.
         22   -1    0    0    0    0 -0.00000000000E+00 -0.00000000000E+00 -0.27455476551E+04  0.27455476551E+04  0.00000000000E+00 0.  1.
        -24    2    1    2    0    0  0.10199699372E+02 -0.14368050411E+02 -0.25146033403E+04  0.25161768033E+04  0.87208210139E+02 0.  0.
         25    2    1    2    0    0  0.72116065893E+02  0.14446489495E+02 -0.11823664050E+03  0.18717890722E+03  0.12508641866E+03 0.  0.
         24    2    1    2    0    0 -0.82315765265E+02 -0.78439083575E-01 -0.30190263136E+02  0.12470935568E+03  0.88685286502E+02 0.  0.
        -11    1    5    5    0    0 -0.22931620528E+02 -0.36384876686E+02  0.10246866437E+02  0.44212178676E+02  0.00000000000E+00 0.  1.
         12    1    5    5    0    0 -0.59384144736E+02  0.36306437602E+02 -0.40437129573E+02  0.80497177004E+02  0.00000000000E+00 0. -1.
         11    1    3    3    0    0 -0.58981037024E+01  0.27069355719E+02 -0.34251955558E+03  0.34363815796E+03  0.00000000000E+00 0. -1.
        -12    1    3    3    0    0  0.16097803074E+02 -0.41437406130E+02 -0.21720837847E+04  0.21725386454E+04  0.00000000000E+00 0.  1.
          5    1    4    4  501    0 -0.17177817197E+01  0.50018417208E+02 -0.97647327971E+01  0.51162635200E+02  0.41800000000E+01 0. -1.
         -5    1    4    4    0  501  0.73833847613E+02 -0.35571927713E+02 -0.10847190770E+03  0.13601627202E+03  0.41800000000E+01 0. -1.
</event>
<event>
11    1  0.8551154E-009  0.1874044E+03  0.7561462E-02  0.1063806E+00
         22   -1    0    0    0    0  0.00000000000E+00  0.00000000000E+00  0.15959764508E+04  0.15959764508E+04  0.00000000000E+00 0.  1.
         22   -1    0    0    0    0 -0.00000000000E+00 -0.00000000000E+00 -0.12876431482E+03  0.12876431482E+03  0.00000000000E+00 0.  1.
         24    2    1    2    0    0  0.59257789405E+02 -0.10970244087E+02 -0.62884780287E+02  0.11886558173E+03  0.80886952398E+02 0.  0.
         25    2    1    2    0    0 -0.92441130307E+02  0.14288057459E+03  0.30655404271E+03  0.37226847111E+03  0.12509281479E+03 0.  0.
        -24    2    1    2    0    0  0.33183340902E+02 -0.13191033050E+03  0.12235428736E+04  0.12336067128E+04  0.78910639113E+02 0.  0.
        -11    1    3    3    0    0  0.69461425431E+02 -0.26995156874E+02 -0.66081080153E+02  0.99600889915E+02  0.00000000000E+00 0.  1.
         12    1    3    3    0    0 -0.10203636026E+02  0.16024912787E+02  0.31962998662E+01  0.19264691817E+02  0.00000000000E+00 0. -1.
         11    1    5    5    0    0  0.31643910335E+01 -0.65236169308E+02  0.29279870593E+03  0.29999475554E+03  0.00000000000E+00 0. -1.
        -12    1    5    5    0    0  0.30018949868E+02 -0.66674161191E+02  0.93074416766E+03  0.93361195727E+03  0.00000000000E+00 0.  1.
          5    1    4    4  501    0 -0.10064013907E+03  0.14443657991E+03  0.31421534728E+03  0.36019317050E+03  0.41800000000E+01 0.  1.
         -5    1    4    4    0  501  0.81990087610E+01 -0.15560053225E+01 -0.76613045670E+01  0.12075300613E+02  0.41800000000E+01 0.  1.
</event>
<event>
11    1  0.8551154E-009  0.2077301E+03  0.7561462E-02  0.1049188E+00
         22   -1    0    0    0    0  0.00000000000E+00  0.00000000000E+00  0.10654236160E+04  0.10654236160E+04  0.00000000000E+00 0.  1.
         22   -1    0    0    0    0 -0.00000000000E+00 -0.00000000000E+00 -0.45720122333E+03  0.45720122333E+03  0.00000000000E+00 0.  1.
         24    2    1    2    0    0  0.38005916930E+02 -0.47883553555E+01 -0.37722013230E+03  0.38717710658E+03  0.78381793689E+02 0.  0.
         25    2    1    2    0    0 -0.19582887186E+03 -0.28277300924E+02  0.14363324996E+03  0.27463892693E+03  0.12508987526E+03 0.  0.
        -24    2    1    2    0    0  0.15782295493E+03  0.33065656280E+02  0.84180927501E+03  0.86080880582E+03  0.79671337119E+02 0.  0.
        -11    1    3    3    0    0  0.60339090778E+02 -0.14095360065E+02 -0.24183733100E+03  0.24964931347E+03  0.00000000000E+00 0.  1.
         12    1    3    3    0    0 -0.22333173848E+02  0.93070047099E+01 -0.13538280130E+03  0.13752779311E+03  0.00000000000E+00 0. -1.
         13    1    5    5    0    0  0.16382508995E+02  0.25654743262E+02  0.27039516875E+03  0.27210310497E+03  0.00000000000E+00 0. -1.
        -14    1    5    5    0    0  0.14144044593E+03  0.74109130181E+01  0.57141410626E+03  0.58870570084E+03  0.00000000000E+00 0.  1.
          5    1    4    4  501    0 -0.18563609790E+03 -0.11348309638E+02  0.16249355875E+03  0.24700440079E+03  0.41800000000E+01 0.  1.
         -5    1    4    4    0  501 -0.10192773959E+02 -0.16928991286E+02 -0.18860308797E+02  0.27634526138E+02  0.41800000000E+01 0.  1.
</event>
<event>
11    1  0.8551154E-009  0.2105826E+03  0.7561462E-02  0.1047283E+00
         22   -1    0    0    0    0  0.00000000000E+00  0.00000000000E+00  0.18495614540E+04  0.18495614540E+04  0.00000000000E+00 0. -1.
         22   -1    0    0    0    0 -0.00000000000E+00 -0.00000000000E+00 -0.20251083886E+04  0.20251083886E+04  0.00000000000E+00 0. -1.
         24    2    1    2    0    0 -0.16584018870E+03 -0.38766982426E+02 -0.19989243971E+04  0.20077865188E+04  0.80635678257E+02 0.  0.
         25    2    1    2    0    0  0.95742990023E+02  0.37367937252E+02  0.31029472152E+03  0.34999083744E+03  0.12509072393E+03 0.  0.
        -24    2    1    2    0    0  0.70097198678E+02  0.13990451737E+01  0.15130827410E+04  0.15168924864E+04  0.81411668702E+02 0.  0.
        -13    1    3    3    0    0 -0.14338367056E+02 -0.30517483064E+02 -0.24458260082E+03  0.24689583668E+03  0.00000000000E+00 0.  1.
         14    1    3    3    0    0 -0.15150182165E+03 -0.82494993620E+01 -0.17543417963E+04  0.17608906821E+04  0.00000000000E+00 0. -1.
         13    1    5    5    0    0  0.83049333963E+02  0.84168578026E+01  0.14354104328E+04  0.14378355768E+04  0.00000000000E+00 0. -1.
        -14    1    5    5    0    0 -0.12952135285E+02 -0.70178126288E+01  0.77672308185E+02  0.79056909636E+02  0.00000000000E+00 0.  1.
          5    1    4    4  501    0  0.27032836189E+02 -0.11082685858E+02  0.23562767862E+03  0.23746889374E+03  0.41800000000E+01 0.  1.
         -5    1    4    4    0  501  0.68710153835E+02  0.48450623110E+02  0.74667042897E+02  0.11252194370E+03  0.41800000000E+01 0.  1.
</event>
<event>
11    1  0.8551154E-009  0.1360297E+03  0.7561462E-02  0.1112075E+00
         22   -1    0    0    0    0  0.00000000000E+00  0.00000000000E+00  0.54137219315E+03  0.54137219315E+03  0.00000000000E+00 0.  1.
         22   -1    0    0    0    0 -0.00000000000E+00 -0.00000000000E+00 -0.17444909891E+03  0.17444909891E+03  0.00000000000E+00 0. -1.
         24    2    1    2    0    0 -0.28602788870E+02  0.28075302750E+02 -0.10613727418E+03  0.13965660860E+03  0.81440194007E+02 0.  0.
         25    2    1    2    0    0  0.72884769092E+02 -0.49592447075E+02  0.81813588453E+02  0.17352920189E+03  0.12508924926E+03 0.  0.
        -24    2    1    2    0    0 -0.44281980222E+02  0.21517144325E+02  0.39124677996E+03  0.40263548158E+03  0.81347445684E+02 0.  0.
        -13    1    3    3    0    0 -0.29338992538E+02  0.30762317761E+02 -0.10249182180E+02  0.43728050638E+02  0.00000000000E+00 0.  1.
         14    1    3    3    0    0  0.73620366867E+00 -0.26870150117E+01 -0.95888091997E+02  0.95928557960E+02  0.00000000000E+00 0. -1.
         11    1    5    5    0    0 -0.34454218545E+02  0.11274594222E+02  0.53704911068E+02  0.64795270840E+02  0.00000000000E+00 0. -1.
        -12    1    5    5    0    0 -0.98277616774E+01  0.10242550103E+02  0.33754186890E+03  0.33784021074E+03  0.00000000000E+00 0.  1.
          5    1    4    4  501    0 -0.16252796286E+02  0.29380008092E+02  0.16559105920E+02  0.37669810877E+02  0.41800000000E+01 0.  1.
         -5    1    4    4    0  501  0.89137565378E+02 -0.78972455167E+02  0.65254482533E+02  0.13585939102E+03  0.41800000000E+01 0.  1.
</event>
<event>
11    1  0.1030528E-008  0.1768854E+03  0.7561462E-02  0.1072190E+00
         22   -1    0    0    0    0  0.00000000000E+00  0.00000000000E+00  0.69070654049E+03  0.69070654049E+03  0.00000000000E+00 0. -1.
         22   -1    0    0    0    0 -0.00000000000E+00 -0.00000000000E+00 -0.34435387572E+03  0.34435387572E+03  0.00000000000E+00 0.  1.
        -24    2    1    2    0    0 -0.16281072079E+02  0.10603809323E+02 -0.24988934097E+03  0.26338253746E+03  0.80920728066E+02 0.  0.
         25    2    1    2    0    0  0.77349044238E+02 -0.11760625353E+03  0.34958803349E+02  0.19152972442E+03  0.12508961544E+03 0.  0.
         24    2    1    2    0    0 -0.61067972159E+02  0.10700244421E+03  0.56128320238E+03  0.58014815433E+03  0.79713407958E+02 0.  0.
        -13    1    5    5    0    0 -0.10342689585E+02 -0.12756647738E+02  0.52778652000E+02  0.55274672286E+02  0.00000000000E+00 0.  1.
         14    1    5    5    0    0 -0.50725282574E+02  0.11975909195E+03  0.50850455038E+03  0.52487348205E+03  0.00000000000E+00 0. -1.
         13    1    3    3    0    0  0.18576368885E+02  0.67170546251E+01 -0.12412443364E+02  0.23329574665E+02  0.00000000000E+00 0. -1.
        -14    1    3    3    0    0 -0.34857440964E+02  0.38867546983E+01 -0.23747689760E+03  0.24005296280E+03  0.00000000000E+00 0.  1.
          5    1    4    4  501    0  0.73067261575E+00 -0.10643059922E+03  0.10589594458E+00  0.10651520993E+03  0.41800000000E+01 0. -1.
         -5    1    4    4    0  501  0.76618371623E+02 -0.11175654310E+02  0.34852907404E+02  0.85014514489E+02  0.41800000000E+01 0. -1.
</event>
<event>
11    1  0.8551154E-009  0.1406334E+03  0.7561462E-02  0.1106853E+00
         22   -1    0    0    0    0  0.00000000000E+00  0.00000000000E+00  0.18569979154E+03  0.18569979154E+03  0.00000000000E+00 0. -1.
         22   -1    0    0    0    0 -0.00000000000E+00 -0.00000000000E+00 -0.46185068746E+03  0.46185068746E+03  0.00000000000E+00 0. -1.
        -24    2    1    2    0    0  0.89976939118E+01  0.15669440006E+02 -0.36084505950E+03  0.37012345795E+03  0.80347540807E+02 0.  0.
         25    2    1    2    0    0 -0.59015876993E+02 -0.49236213692E+02  0.17612711211E+01  0.14682155358E+03  0.12508552292E+03 0.  0.
         24    2    1    2    0    0  0.50018183081E+02  0.33566773686E+02  0.82932892466E+02  0.13060546745E+03  0.80940574137E+02 0.  0.
        -11    1    5    5    0    0 -0.10868638698E+02 -0.17644121586E+02  0.11594276436E+02  0.23745938174E+02  0.00000000000E+00 0.  1.
         12    1    5    5    0    0  0.60886821779E+02  0.51210895272E+02  0.71338616029E+02  0.10685952928E+03  0.00000000000E+00 0. -1.
         13    1    3    3    0    0 -0.29643387690E+01  0.36684429040E+02 -0.32379947121E+03  0.32588438470E+03  0.00000000000E+00 0. -1.
        -14    1    3    3    0    0  0.11962032681E+02 -0.21014989034E+02 -0.37045588295E+02  0.44239073250E+02  0.00000000000E+00 0.  1.
          5    1    4    4  501    0  0.17986599745E+02 -0.64627307358E+02  0.91710060198E+01  0.67836467908E+02  0.41800000000E+01 0.  1.
         -5    1    4    4    0  501 -0.77002476738E+02  0.15391093666E+02 -0.74097348988E+01  0.78985085676E+02  0.41800000000E+01 0.  1.
</event>
<event>
11    1  0.8551154E-009  0.3265378E+03  0.7561462E-02  0.9895460E-01
         22   -1    0    0    0    0  0.00000000000E+00  0.00000000000E+00  0.86600905852E+03  0.86600905852E+03  0.00000000000E+00 0.  1.
         22   -1    0    0    0    0 -0.00000000000E+00 -0.00000000000E+00 -0.20168573712E+03  0.20168573712E+03  0.00000000000E+00 0.  1.
        -24    2    1    2    0    0 -0.17414002048E+03  0.27019831581E+03  0.85134660105E+02  0.34308377124E+03  0.84419708252E+02 0.  0.
         25    2    1    2    0    0  0.18536698192E+03 -0.19856391542E+03  0.29176256184E+03  0.41780612867E+03  0.12509205478E+03 0.  0.
         24    2    1    2    0    0 -0.11226961440E+02 -0.71634400386E+02  0.28742609945E+03  0.30680489572E+03  0.79107201999E+02 0.  0.
        -13    1    5    5    0    0  0.33587799904E+02 -0.41114925196E+02  0.14222744894E+03  0.15181312396E+03  0.00000000000E+00 0.  1.
         14    1    5    5    0    0 -0.44814761344E+02 -0.30519475189E+02  0.14519865051E+03  0.15499177175E+03  0.00000000000E+00 0. -1.
         11    1    3    3    0    0 -0.37474709344E+02  0.13485624273E+03  0.38686113944E+02  0.14521423985E+03  0.00000000000E+00 0. -1.
        -12    1    3    3    0    0 -0.13666531113E+03  0.13534207308E+03  0.46448546161E+02  0.19786953139E+03  0.00000000000E+00 0.  1.
          5    1    4    4  501    0 -0.12665478749E+01 -0.51447404270E+02  0.16671901218E+02  0.54257388804E+02  0.41800000000E+01 0.  1.
         -5    1    4    4    0  501  0.18663352979E+03 -0.14711651115E+03  0.27509066062E+03  0.36354873987E+03  0.41800000000E+01 0.  1.
</event>
<event>
11    1  0.8551154E-009  0.2792173E+03  0.7561462E-02  0.1009392E+00
         22   -1    0    0    0    0  0.00000000000E+00  0.00000000000E+00  0.12365601163E+04  0.12365601163E+04  0.00000000000E+00 0. -1.
         22   -1    0    0    0    0 -0.00000000000E+00 -0.00000000000E+00 -0.33919347952E+03  0.33919347952E+03  0.00000000000E+00 0. -1.
        -24    2    1    2    0    0 -0.75138970595E+02  0.29608406492E+02 -0.26220280500E+03  0.28571355557E+03  0.79745860393E+02 0.  0.
         25    2    1    2    0    0 -0.16609172474E+03  0.10920471745E+03  0.28827034736E+03  0.37183189949E+03  0.12508811682E+03 0.  0.
         24    2    1    2    0    0  0.24123069534E+03 -0.13881312394E+03  0.87129909446E+03  0.91820814079E+03  0.80515501973E+02 0.  0.
        -13    1    5    5    0    0  0.12757786053E+03 -0.28302525276E+02  0.36627178867E+03  0.38888580150E+03  0.00000000000E+00 0.  1.
         14    1    5    5    0    0  0.11365283481E+03 -0.11051059867E+03  0.50502730579E+03  0.52932233929E+03  0.00000000000E+00 0. -1.
         11    1    3    3    0    0 -0.57537042731E+01  0.31989634050E+02 -0.15221859295E+03  0.15565006213E+03  0.00000000000E+00 0. -1.
        -12    1    3    3    0    0 -0.69385266322E+02 -0.23812275584E+01 -0.10998421205E+03  0.13006349345E+03  0.00000000000E+00 0.  1.
          5    1    4    4  501    0 -0.12927476057E+03  0.13002859969E+03  0.26798568449E+03  0.32473558467E+03  0.41800000000E+01 0.  1.
         -5    1    4    4    0  501 -0.36816964172E+02 -0.20823882235E+02  0.20284662870E+02  0.47096314823E+02  0.41800000000E+01 0.  1.
</event>
<event>
11    1  0.8551154E-009  0.1604768E+03  0.7561462E-02  0.1086630E+00
         22   -1    0    0    0    0  0.00000000000E+00  0.00000000000E+00  0.10031736698E+04  0.10031736698E+04  0.00000000000E+00 0. -1.
         22   -1    0    0    0    0 -0.00000000000E+00 -0.00000000000E+00 -0.10935605133E+03  0.10935605133E+03  0.00000000000E+00 0.  1.
        -24    2    1    2    0    0 -0.88153839185E+02 -0.33649606360E+02 -0.10566952934E+02  0.12266837081E+03  0.77668998516E+02 0.  0.
         25    2    1    2    0    0  0.14244102209E+03 -0.33286031394E+02  0.20685320483E+03  0.28254702466E+03  0.12508864112E+03 0.  0.
         24    2    1    2    0    0 -0.54287182908E+02  0.66935637754E+02  0.69753136652E+03  0.70731432561E+03  0.79473707029E+02 0.  0.
        -13    1    5    5    0    0  0.17854647927E+01  0.16083213472E+02  0.39924365699E+03  0.39957146456E+03  0.00000000000E+00 0.  1.
         14    1    5    5    0    0 -0.56072647700E+02  0.50852424282E+02  0.29828770953E+03  0.30774286106E+03  0.00000000000E+00 0. -1.
         13    1    3    3    0    0  0.16809393198E+01  0.16211984901E+02  0.81656742658E+01  0.18229982107E+02  0.00000000000E+00 0. -1.
        -14    1    3    3    0    0 -0.89834778505E+02 -0.49861591260E+02 -0.18732627199E+02  0.10443838870E+03  0.00000000000E+00 0.  1.
          5    1    4    4  501    0 -0.20114662754E+02  0.11830872679E+02  0.24546878795E+02  0.34126102394E+02  0.41800000000E+01 0.  1.
         -5    1    4    4    0  501  0.16255568485E+03 -0.45116904073E+02  0.18230632604E+03  0.24842092227E+03  0.41800000000E+01 0.  1.
</event>
<event>
11    1  0.8551154E-009  0.1402705E+03  0.7561462E-02  0.1107257E+00
         22   -1    0    0    0    0  0.00000000000E+00  0.00000000000E+00  0.16824389876E+03  0.16824389876E+03  0.00000000000E+00 0. -1.
         22   -1    0    0    0    0 -0.00000000000E+00 -0.00000000000E+00 -0.10069502063E+04  0.10069502063E+04  0.00000000000E+00 0. -1.
         24    2    1    2    0    0  0.59419612613E+02  0.16976163409E+02 -0.86674403435E+03  0.87263185513E+03  0.80138960688E+02 0.  0.
         25    2    1    2    0    0 -0.92840922122E+02 -0.95552762640E+01 -0.71241887162E+02  0.17156124030E+03  0.12508841898E+03 0.  0.
        -24    2    1    2    0    0  0.33421309508E+02 -0.74208871445E+01  0.99279614015E+02  0.13100100959E+03  0.78311999461E+02 0.  0.
        -11    1    3    3    0    0 -0.10214365916E+02  0.23390828219E+02 -0.12377804700E+03  0.12638223386E+03  0.00000000000E+00 0.  1.
         12    1    3    3    0    0  0.69633978529E+02 -0.64146648103E+01 -0.74296598735E+03  0.74624962127E+03  0.00000000000E+00 0. -1.
         11    1    5    5    0    0  0.49548106506E+02  0.83250080418E+01  0.95826430183E+02  0.10819900803E+03  0.00000000000E+00 0. -1.
        -12    1    5    5    0    0 -0.16126796997E+02 -0.15745895186E+02  0.34531838327E+01  0.22802001561E+02  0.00000000000E+00 0.  1.
          5    1    4    4  501    0 -0.11037833820E+02  0.51700582629E+02 -0.32446477594E+02  0.62169368083E+02  0.41800000000E+01 0.  1.
         -5    1    4    4    0  501 -0.81803088302E+02 -0.61255858893E+02 -0.38795409568E+02  0.10939187222E+03  0.41800000000E+01 0.  1.
</event>
<event>
11    1  0.8551154E-009  0.2579879E+03  0.7561462E-02  0.1019728E+00
         22   -1    0    0    0    0  0.00000000000E+00  0.00000000000E+00  0.73384099659E+03  0.73384099659E+03  0.00000000000E+00 0.  1.
         22   -1    0    0    0    0 -0.00000000000E+00 -0.00000000000E+00 -0.46200068339E+03  0.46200068339E+03  0.00000000000E+00 0.  1.
         24    2    1    2    0    0 -0.16664424307E+03 -0.14792530313E+03 -0.32849208467E+03  0.40480396547E+03  0.79416633770E+02 0.  0.
         25    2    1    2    0    0  0.17140767234E+03  0.16883574306E+03  0.10793883947E+03  0.29186402031E+03  0.12509082704E+03 0.  0.
        -24    2    1    2    0    0 -0.47634292748E+01 -0.20910439930E+02  0.49239355840E+03  0.49917369420E+03  0.79139268831E+02 0.  0.
        -11    1    3    3    0    0 -0.11835829342E+03 -0.90125812035E+02 -0.27421223802E+03  0.31196746480E+03  0.00000000000E+00 0.  1.
         12    1    3    3    0    0 -0.48285949647E+02 -0.57799491099E+02 -0.54279846650E+02  0.92836500672E+02  0.00000000000E+00 0. -1.
         11    1    5    5    0    0  0.19147177026E+02  0.22660877127E+02  0.12721040025E+03  0.13062394754E+03  0.00000000000E+00 0. -1.
        -12    1    5    5    0    0 -0.23910606301E+02 -0.43571317057E+02  0.36518315816E+03  0.36854974666E+03  0.00000000000E+00 0.  1.
          5    1    4    4  501    0  0.77084930993E+02  0.53366268906E+02 -0.19297244722E+02  0.95811801449E+02  0.41800000000E+01 0. -1.
         -5    1    4    4    0  501  0.94322741347E+02  0.11546947416E+03  0.12723608419E+03  0.19605221886E+03  0.41800000000E+01 0. -1.
</event>
<event>
11    1  0.8551154E-009  0.2304579E+03  0.7561462E-02  0.1034857E+00
         22   -1    0    0    0    0  0.00000000000E+00  0.00000000000E+00  0.74736451343E+03  0.74736451343E+03  0.00000000000E+00 0. -1.
         22   -1    0    0    0    0 -0.00000000000E+00 -0.00000000000E+00 -0.55718947650E+03  0.55718947650E+03  0.00000000000E+00 0. -1.
         24    2    1    2    0    0 -0.80995879139E+02  0.17185638364E+03 -0.38815099105E+03  0.43953028406E+03  0.80191830739E+02 0.  0.
         25    2    1    2    0    0  0.16484700423E+03 -0.15097858702E+03 -0.18042135016E+02  0.25679108108E+03  0.12508825743E+03 0.  0.
        -24    2    1    2    0    0 -0.83851125086E+02 -0.20877796618E+02  0.59636816299E+03  0.60823262480E+03  0.82613839435E+02 0.  0.
        -13    1    3    3    0    0 -0.56747014755E+02  0.61729834615E+02 -0.10250251141E+03  0.13242945673E+03  0.00000000000E+00 0.  1.
         14    1    3    3    0    0 -0.24248864383E+02  0.11012654902E+03 -0.28564847964E+03  0.30710082732E+03  0.00000000000E+00 0. -1.
         13    1    5    5    0    0 -0.66441460128E+02  0.12444982091E+02  0.50389534625E+03  0.50840915135E+03  0.00000000000E+00 0. -1.
        -14    1    5    5    0    0 -0.17409664958E+02 -0.33322778709E+02  0.92472816743E+02  0.99823473449E+02  0.00000000000E+00 0.  1.
          5    1    4    4  501    0  0.91034347672E+02 -0.14949993173E+03  0.15145338198E+02  0.17573939715E+03  0.41800000000E+01 0.  1.
         -5    1    4    4    0  501  0.73812656553E+02 -0.14786552883E+01 -0.33187473214E+02  0.81051683926E+02  0.41800000000E+01 0.  1.
</event>
<event>
11    1  0.8551154E-009  0.2977314E+03  0.7561462E-02  0.1001156E+00
         22   -1    0    0    0    0  0.00000000000E+00  0.00000000000E+00  0.20423949635E+03  0.20423949635E+03  0.00000000000E+00 0. -1.
         22   -1    0    0    0    0 -0.00000000000E+00 -0.00000000000E+00 -0.97231151083E+03  0.97231151083E+03  0.00000000000E+00 0. -1.
         24    2    1    2    0    0 -0.20667233046E+01  0.25605680742E+03 -0.48944085572E+03  0.55866062029E+03  0.83546259286E+02 0.  0.
         25    2    1    2    0    0  0.65809555970E+02  0.10014785575E+03 -0.10857387257E+03  0.20444282805E+03  0.12509233977E+03 0.  0.
        -24    2    1    2    0    0 -0.63742832665E+02 -0.35620466318E+03 -0.17005728619E+03  0.41344755884E+03  0.10523541487E+03 0.  0.
        -13    1    3    3    0    0 -0.21862707421E+02  0.44161688322E+02 -0.15130200655E+03  0.15912425923E+03  0.00000000000E+00 0.  1.
         14    1    3    3    0    0  0.19795984117E+02  0.21189511910E+03 -0.33813884917E+03  0.39953636105E+03  0.00000000000E+00 0. -1.
         11    1    5    5    0    0 -0.50361184063E+02 -0.17650437690E+03 -0.13980449023E+03  0.23072784706E+03  0.00000000000E+00 0. -1.
        -12    1    5    5    0    0 -0.13381648602E+02 -0.17970028628E+03 -0.30252795962E+02  0.18271971178E+03  0.00000000000E+00 0.  1.
          5    1    4    4  501    0 -0.29451208564E+02  0.49498528771E+02 -0.67726746368E+02  0.89004845991E+02  0.41800000000E+01 0. -1.
         -5    1    4    4    0  501  0.95260764534E+02  0.50649326983E+02 -0.40847126206E+02  0.11543798206E+03  0.41800000000E+01 0. -1.
</event>
<event>
11    1  0.8551154E-009  0.1595597E+03  0.7561462E-02  0.1087492E+00
         22   -1    0    0    0    0  0.00000000000E+00  0.00000000000E+00  0.15466413434E+03  0.15466413434E+03  0.00000000000E+00 0.  1.
         22   -1    0    0    0    0 -0.00000000000E+00 -0.00000000000E+00 -0.16117635132E+04  0.16117635132E+04  0.00000000000E+00 0. -1.
        -24    2    1    2    0    0  0.58605998851E+02  0.10019869145E+02 -0.13701042071E+04  0.13737288681E+04  0.80064997243E+02 0.  0.
         25    2    1    2    0    0  0.43416604167E+02  0.24433903355E+02 -0.18239870736E+03  0.22671454124E+03  0.12509267610E+03 0.  0.
         24    2    1    2    0    0 -0.10202260302E+03 -0.34453772500E+02  0.95403535612E+02  0.16598423821E+03  0.82784411347E+02 0.  0.
        -13    1    5    5    0    0 -0.11240150415E+03 -0.31085174941E+02  0.64627026103E+02  0.13333056191E+03  0.00000000000E+00 0.  1.
         14    1    5    5    0    0  0.10378901137E+02 -0.33685975584E+01  0.30776509509E+02  0.32653676300E+02  0.00000000000E+00 0. -1.
         13    1    3    3    0    0  0.66292344747E+02  0.57696283472E+01 -0.13516927986E+04  0.13533297401E+04  0.00000000000E+00 0. -1.
        -14    1    3    3    0    0 -0.76863458962E+01  0.42502407975E+01 -0.18411408488E+02  0.20399127986E+02  0.00000000000E+00 0.  1.
          5    1    4    4  501    0  0.74015592307E+02 -0.18434705571E+02 -0.13786676666E+03  0.15761619214E+03  0.41800000000E+01 0. -1.
         -5    1    4    4    0  501 -0.30598988140E+02  0.42868608926E+02 -0.44531940700E+02  0.69098349104E+02  0.41800000000E+01 0. -1.
</event>
<event>
11    1  0.8551154E-009  0.1485033E+03  0.7561462E-02  0.1098418E+00
         22   -1    0    0    0    0  0.00000000000E+00  0.00000000000E+00  0.92268902714E+02  0.92268902714E+02  0.00000000000E+00 0.  1.
         22   -1    0    0    0    0 -0.00000000000E+00 -0.00000000000E+00 -0.17392885867E+04  0.17392885867E+04  0.00000000000E+00 0. -1.
         24    2    1    2    0    0  0.65952714591E+02 -0.44187359565E+02 -0.13870240323E+04  0.13911621811E+04  0.72071247603E+02 0.  0.
         25    2    1    2    0    0 -0.69705647150E+02  0.49965875020E+02 -0.30850078898E+03  0.34376299485E+03  0.12507915059E+03 0.  0.
        -24    2    1    2    0    0  0.37529325582E+01 -0.57785154560E+01  0.48505137353E+02  0.96632313377E+02  0.83292135856E+02 0.  0.
        -13    1    3    3    0    0  0.99450023366E+01 -0.23231408056E+02 -0.11547546099E+03  0.11820822088E+03  0.00000000000E+00 0.  1.
         14    1    3    3    0    0  0.56007712255E+02 -0.20955951509E+02 -0.12715485713E+04  0.12729539603E+04  0.00000000000E+00 0. -1.
         11    1    5    5    0    0  0.34217269883E+02 -0.29177734932E+02  0.22864686874E+02  0.50447553755E+02  0.00000000000E+00 0. -1.
        -12    1    5    5    0    0 -0.30464337324E+02  0.23399219476E+02  0.25640450479E+02  0.46184759623E+02  0.00000000000E+00 0.  1.
          5    1    4    4  501    0  0.33489710576E+02  0.31720590678E+02 -0.10724227311E+03  0.11681666889E+03  0.41800000000E+01 0.  1.
         -5    1    4    4    0  501 -0.10319535773E+03  0.18245284343E+02 -0.20125851587E+03  0.22694632596E+03  0.41800000000E+01 0.  1.
</event>
<event>
11    1  0.8551154E-009  0.1365544E+03  0.7561462E-02  0.1111468E+00
         22   -1    0    0    0    0  0.00000000000E+00  0.00000000000E+00  0.19205654332E+04  0.19205654332E+04  0.00000000000E+00 0.  1.
         22   -1    0    0    0    0 -0.00000000000E+00 -0.00000000000E+00 -0.23052926616E+03  0.23052926616E+03  0.00000000000E+00 0. -1.
         24    2    1    2    0    0 -0.47663054725E+02 -0.26713509611E+02 -0.21301955189E+03  0.23391179395E+03  0.79699557590E+02 0.  0.
         25    2    1    2    0    0  0.57368971340E+02  0.33450836758E+02  0.92808117200E+03  0.93882495678E+03  0.12508988885E+03 0.  0.
        -24    2    1    2    0    0 -0.97059166151E+01 -0.67373271467E+01  0.97497454694E+03  0.97835794864E+03  0.80432033971E+02 0.  0.
        -13    1    3    3    0    0 -0.13196480668E+02  0.19709059601E+00  0.29802170557E+01  0.13530249089E+02  0.00000000000E+00 0.  1.
         14    1    3    3    0    0 -0.34466574057E+02 -0.26910600207E+02 -0.21599976895E+03  0.22038154486E+03  0.00000000000E+00 0. -1.
         13    1    5    5    0    0  0.22043926168E+02  0.21577905079E+02  0.21593585196E+03  0.21812801936E+03  0.00000000000E+00 0. -1.
        -14    1    5    5    0    0 -0.31749842783E+02 -0.28315232226E+02  0.75903869498E+03  0.76022992928E+03  0.00000000000E+00 0.  1.
          5    1    4    4  501    0  0.16556169748E+02  0.41387754156E+02  0.98566027821E+02  0.10825796595E+03  0.41800000000E+01 0. -1.
         -5    1    4    4    0  501  0.40812801591E+02 -0.79369173982E+01  0.82951514418E+03  0.83056699083E+03  0.41800000000E+01 0. -1.
</event>
<event>
11    1  0.8551154E-009  0.1931086E+03  0.7561462E-02  0.1059507E+00
         22   -1    0    0    0    0  0.00000000000E+00  0.00000000000E+00  0.25608424746E+03  0.25608424746E+03  0.00000000000E+00 0. -1.
         22   -1    0    0    0    0 -0.00000000000E+00 -0.00000000000E+00 -0.81290317409E+03  0.81290317409E+03  0.00000000000E+00 0. -1.
         24    2    1    2    0    0 -0.13805735850E+03 -0.48730121224E+02 -0.62062468513E+03  0.64258430798E+03  0.79404874666E+02 0.  0.
         25    2    1    2    0    0  0.16302303024E+03 -0.14268861190E+02 -0.10208374726E+03  0.22988790702E+03  0.12508896654E+03 0.  0.
        -24    2    1    2    0    0 -0.24965671736E+02  0.62998982414E+02  0.16588950576E+03  0.19651520655E+03  0.80664377097E+02 0.  0.
        -11    1    3    3    0    0  0.17271771071E+01  0.53883951458E+01 -0.19115605073E+01  0.59726046730E+01  0.00000000000E+00 0.  1.
         12    1    3    3    0    0 -0.13978453561E+03 -0.54118516369E+02 -0.61871312462E+03  0.63661170331E+03  0.00000000000E+00 0. -1.
         13    1    5    5    0    0 -0.45778133588E+02  0.29591763292E+02  0.13771524932E+03  0.14811076890E+03  0.00000000000E+00 0. -1.
        -14    1    5    5    0    0  0.20812461852E+02  0.33407219122E+02  0.28174256442E+02  0.48404437646E+02  0.00000000000E+00 0.  1.
          5    1    4    4  501    0  0.15103023893E+03  0.34864609477E+02 -0.80919586314E+02  0.17490319013E+03  0.41800000000E+01 0.  1.
         -5    1    4    4    0  501  0.11992791303E+02 -0.49133470667E+02 -0.21164160946E+02  0.54984716891E+02  0.41800000000E+01 0.  1.
</event>
<event>
11    1  0.8551154E-009  0.1287131E+03  0.7561462E-02  0.1120860E+00
         22   -1    0    0    0    0  0.00000000000E+00  0.00000000000E+00  0.50236495808E+03  0.50236495808E+03  0.00000000000E+00 0. -1.
         22   -1    0    0    0    0 -0.00000000000E+00 -0.00000000000E+00 -0.26395067455E+03  0.26395067455E+03  0.00000000000E+00 0. -1.
         24    2    1    2    0    0 -0.55301506724E+01  0.17906362176E+02 -0.15158133831E+03  0.17335102928E+03  0.81990590040E+02 0.  0.
         25    2    1    2    0    0 -0.22956141997E+02 -0.61673222678E+01 -0.55630046891E+02  0.13895068894E+03  0.12509025350E+03 0.  0.
        -24    2    1    2    0    0  0.28486292670E+02 -0.11739039908E+02  0.44562566872E+03  0.45401391441E+03  0.81222681087E+02 0.  0.
        -13    1    3    3    0    0 -0.19611850893E+02  0.19721410260E+02 -0.78215154478E+01  0.28891777758E+02  0.00000000000E+00 0.  1.
         14    1    3    3    0    0  0.14081700220E+02 -0.18150480848E+01 -0.14375982286E+03  0.14445925152E+03  0.00000000000E+00 0. -1.
         13    1    5    5    0    0  0.24097162727E+00  0.22637811259E+02  0.31893958257E+03  0.31974206151E+03  0.00000000000E+00 0. -1.
        -14    1    5    5    0    0  0.28245321043E+02 -0.34376851167E+02  0.12668608615E+03  0.13427185290E+03  0.00000000000E+00 0.  1.
          5    1    4    4  501    0  0.72320886495E+01  0.27037237406E+02 -0.81991146776E+02  0.86737165404E+02  0.41800000000E+01 0. -1.
         -5    1    4    4    0  501 -0.30188230647E+02 -0.33204559674E+02  0.26361099885E+02  0.52213523535E+02  0.41800000000E+01 0. -1.
</event>
<event>
11    1  0.8551154E-009  0.1590636E+03  0.7561462E-02  0.1087961E+00
         22   -1    0    0    0    0  0.00000000000E+00  0.00000000000E+00  0.26324288728E+04  0.26324288728E+04  0.00000000000E+00 0. -1.
         22   -1    0    0    0    0 -0.00000000000E+00 -0.00000000000E+00 -0.13824464688E+04  0.13824464688E+04  0.00000000000E+00 0. -1.
         24    2    1    2    0    0  0.86547018235E+02  0.57206832950E+02 -0.13216005761E+04  0.13280971547E+04  0.80317878847E+02 0.  0.
         25    2    1    2    0    0 -0.16825900207E+03 -0.50896239296E+01  0.14113462352E+03  0.25278960626E+03  0.12508639824E+03 0.  0.
        -24    2    1    2    0    0  0.81711983839E+02 -0.52117209020E+02  0.24304483565E+04  0.24339885806E+04  0.88476806493E+02 0.  0.
        -11    1    3    3    0    0  0.44105354031E+02  0.54728921032E+02 -0.44963515665E+03  0.45509593620E+03  0.00000000000E+00 0.  1.
         12    1    3    3    0    0  0.42441664204E+02  0.24779119178E+01 -0.87196541943E+03  0.87300121855E+03  0.00000000000E+00 0. -1.
         13    1    5    5    0    0  0.93450147179E+02 -0.20208439249E+02  0.16103959616E+04  0.16132316834E+04  0.00000000000E+00 0. -1.
        -14    1    5    5    0    0 -0.11738163339E+02 -0.31908769772E+02  0.82005239485E+03  0.82075689724E+03  0.00000000000E+00 0.  1.
          5    1    4    4  501    0 -0.17931093746E+03 -0.13540136061E+02  0.15131391865E+03  0.23505131771E+03  0.41800000000E+01 0. -1.
         -5    1    4    4    0  501  0.11051935390E+02  0.84505121318E+01 -0.10179295135E+02  0.17738288548E+02  0.41800000000E+01 0. -1.
</event>
<event>
11    1  0.8551154E-009  0.1718831E+03  0.7561462E-02  0.1076404E+00
         22   -1    0    0    0    0  0.00000000000E+00  0.00000000000E+00  0.12694953473E+04  0.12694953473E+04  0.00000000000E+00 0. -1.
         22   -1    0    0    0    0 -0.00000000000E+00 -0.00000000000E+00 -0.38225217968E+03  0.38225217968E+03  0.00000000000E+00 0. -1.
         24    2    1    2    0    0  0.24541598507E+02 -0.18504681393E+02 -0.33058615446E+03  0.34223140488E+03  0.83008527707E+02 0.  0.
         25    2    1    2    0    0  0.65050653753E+02  0.96071727303E+02  0.13579792429E+03  0.21805914245E+03  0.12508936414E+03 0.  0.
        -24    2    1    2    0    0 -0.89592252261E+02 -0.77567045910E+02  0.10820313978E+04  0.10914569796E+04  0.80268140259E+02 0.  0.
        -13    1    3    3    0    0 -0.24254789880E+02 -0.12824354038E+02 -0.47003319218E+02  0.54424910713E+02  0.00000000000E+00 0.  1.
         14    1    3    3    0    0  0.48796388388E+02 -0.56803273554E+01 -0.28358283524E+03  0.28780649417E+03  0.00000000000E+00 0. -1.
         13    1    5    5    0    0 -0.95580269971E+02 -0.60679703960E+02  0.10342234514E+04  0.10404017310E+04  0.00000000000E+00 0. -1.
        -14    1    5    5    0    0  0.59880177102E+01 -0.16887341950E+02  0.47807946342E+02  0.51055248581E+02  0.00000000000E+00 0.  1.
          5    1    4    4  501    0  0.10109229363E+03  0.57074203697E+02  0.80856782086E+02  0.14153589004E+03  0.41800000000E+01 0. -1.
         -5    1    4    4    0  501 -0.36041639876E+02  0.38997523606E+02  0.54941142209E+02  0.76523252411E+02  0.41800000000E+01 0. -1.
</event>
<event>
11    1  0.8551154E-009  0.5242691E+03  0.7561462E-02  0.9340869E-01
         22   -1    0    0    0    0  0.00000000000E+00  0.00000000000E+00  0.18173331289E+03  0.18173331289E+03  0.00000000000E+00 0.  1.
         22   -1    0    0    0    0 -0.00000000000E+00 -0.00000000000E+00 -0.24096047486E+04  0.24096047486E+04  0.00000000000E+00 0.  1.
        -24    2    1    2    0    0 -0.50622660404E+03  0.34007182545E+02 -0.10195587376E+04  0.11415126824E+04  0.78289983101E+02 0.  0.
         25    2    1    2    0    0  0.47249136475E+03 -0.26296702842E+03 -0.85100826489E+03  0.10160090956E+04  0.12513859351E+03 0.  0.
         24    2    1    2    0    0  0.33735239292E+02  0.22895984587E+03 -0.35730443323E+03  0.43381628357E+03  0.83483126981E+02 0.  0.
        -11    1    5    5    0    0  0.13280475682E+02  0.17219578286E+03 -0.31780123137E+03  0.36169791447E+03  0.00000000000E+00 0.  1.
         12    1    5    5    0    0  0.20454763611E+02  0.56764063017E+02 -0.39503201852E+02  0.72118369097E+02  0.00000000000E+00 0. -1.
         11    1    3    3    0    0 -0.22998746062E+03  0.42156513705E+02 -0.53114813101E+03  0.58033588616E+03  0.00000000000E+00 0. -1.
        -12    1    3    3    0    0 -0.27623914342E+03 -0.81493311597E+01 -0.48841060660E+03  0.56117679620E+03  0.00000000000E+00 0.  1.
          5    1    4    4  501    0  0.32186263778E+03 -0.12221415778E+03 -0.46783939027E+03  0.58088124901E+03  0.41800000000E+01 0.  1.
         -5    1    4    4    0  501  0.15062872696E+03 -0.14075287064E+03 -0.38316887462E+03  0.43512784657E+03  0.41800000000E+01 0.  1.
</event>
<event>
11    1  0.8551154E-009  0.1884629E+03  0.7561462E-02  0.1062996E+00
         22   -1    0    0    0    0  0.00000000000E+00  0.00000000000E+00  0.26210276913E+03  0.26210276913E+03  0.00000000000E+00 0. -1.
         22   -1    0    0    0    0 -0.00000000000E+00 -0.00000000000E+00 -0.35787974643E+03  0.35787974643E+03  0.00000000000E+00 0. -1.
        -24    2    1    2    0    0  0.47184590673E+02  0.12129119576E+02 -0.90629970363E+02  0.12881799544E+03  0.77503440454E+02 0.  0.
         25    2    1    2    0    0 -0.17851641522E+03  0.18060290609E+02 -0.15673258911E+03  0.26909916169E+03  0.12511982152E+03 0.  0.
         24    2    1    2    0    0  0.13133182455E+03 -0.30189410186E+02  0.15158558217E+03  0.22206535843E+03  0.90417841523E+02 0.  0.
        -11    1    5    5    0    0  0.12167419818E+03  0.88983114955E+01  0.11538556931E+03  0.16792146991E+03  0.00000000000E+00 0.  1.
         12    1    5    5    0    0  0.96576263671E+01 -0.39087721681E+02  0.36200012865E+02  0.54143888526E+02  0.00000000000E+00 0. -1.
         11    1    3    3    0    0  0.63424418505E+02 -0.94887432610E+01 -0.58273176938E+02  0.86651348875E+02  0.00000000000E+00 0. -1.
        -12    1    3    3    0    0 -0.16239827833E+02  0.21617862837E+02 -0.32356793426E+02  0.42166646564E+02  0.00000000000E+00 0.  1.
          5    1    4    4  501    0 -0.46936413142E+02  0.39927739883E+02  0.19082707086E+01  0.61792921827E+02  0.41800000000E+01 0.  1.
         -5    1    4    4    0  501 -0.13158000208E+03 -0.21867449274E+02 -0.15864085981E+03  0.20730623987E+03  0.41800000000E+01 0.  1.
</event>
<event>
11    1  0.8551154E-009  0.3721472E+03  0.7561462E-02  0.9735713E-01
         22   -1    0    0    0    0  0.00000000000E+00  0.00000000000E+00  0.12777800975E+04  0.12777800975E+04  0.00000000000E+00 0.  1.
         22   -1    0    0    0    0 -0.00000000000E+00 -0.00000000000E+00 -0.37982804978E+03  0.37982804978E+03  0.00000000000E+00 0. -1.
        -24    2    1    2    0    0 -0.18884539704E+02  0.75555978384E+02 -0.22323482816E+03  0.24879828697E+03  0.77469138259E+02 0.  0.
         25    2    1    2    0    0  0.36452726328E+03 -0.42349344273E+02  0.23433366863E+03  0.45302700441E+03  0.12509039063E+03 0.  0.
         24    2    1    2    0    0 -0.34564272358E+03 -0.33206634110E+02  0.88685320724E+03  0.95578285589E+03  0.80253869142E+02 0.  0.
        -13    1    5    5    0    0 -0.28358485062E+03 -0.94856550380E+01  0.63870875950E+03  0.69889857963E+03  0.00000000000E+00 0.  1.
         14    1    5    5    0    0 -0.62057872962E+02 -0.23720979072E+02  0.24814444774E+03  0.25688427626E+03  0.00000000000E+00 0. -1.
         11    1    3    3    0    0 -0.16331745148E+02  0.58394147154E+02 -0.22336334511E+03  0.23144715652E+03  0.00000000000E+00 0. -1.
        -12    1    3    3    0    0 -0.25527945563E+01  0.17161831230E+02  0.12851694709E+00  0.17351130448E+02  0.00000000000E+00 0.  1.
          5    1    4    4  501    0  0.36576845362E+03 -0.56000548298E+02  0.23552311634E+03  0.43864704924E+03  0.41800000000E+01 0.  1.
         -5    1    4    4    0  501 -0.12411903390E+01  0.13651204024E+02 -0.11894477061E+01  0.14379955167E+02  0.41800000000E+01 0.  1.
</event>
<event>
11    1  0.8551154E-009  0.1474117E+03  0.7561462E-02  0.1099553E+00
         22   -1    0    0    0    0  0.00000000000E+00  0.00000000000E+00  0.24398412742E+04  0.24398412742E+04  0.00000000000E+00 0.  1.
         22   -1    0    0    0    0 -0.00000000000E+00 -0.00000000000E+00 -0.28502665621E+03  0.28502665621E+03  0.00000000000E+00 0.  1.
        -24    2    1    2    0    0 -0.30461734821E+02  0.43254617074E+02 -0.22980039022E+03  0.24941683667E+03  0.81250599265E+02 0.  0.
         25    2    1    2    0    0  0.59564332451E+02 -0.11390883269E+03  0.13871325217E+03  0.22673490430E+03  0.12507685092E+03 0.  0.
         24    2    1    2    0    0 -0.29102597631E+02  0.70654215612E+02  0.22459017561E+04  0.22487161895E+04  0.82527713347E+02 0.  0.
        -11    1    5    5    0    0  0.11982360310E+02  0.17575925965E+02  0.13980116683E+04  0.13981734924E+04  0.00000000000E+00 0.  1.
         12    1    5    5    0    0 -0.41084957941E+02  0.53078289647E+02  0.84789008778E+03  0.85054269708E+03  0.00000000000E+00 0. -1.
         11    1    3    3    0    0 -0.23308695852E+02  0.19630212688E+02 -0.16424506620E+02  0.34617986224E+02  0.00000000000E+00 0. -1.
        -12    1    3    3    0    0 -0.71530389681E+01  0.23624404386E+02 -0.21337588360E+03  0.21479885044E+03  0.00000000000E+00 0.  1.
          5    1    4    4  501    0 -0.54093596018E+01 -0.27786964961E+01  0.88005592262E+02  0.88314432540E+02  0.41800000000E+01 0.  1.
         -5    1    4    4    0  501  0.64973692053E+02 -0.11113013619E+03  0.50707659904E+02  0.13842047176E+03  0.41800000000E+01 0.  1.
</event>
<event>
11    1  0.8551154E-009  0.1556240E+03  0.7561462E-02  0.1091267E+00
         22   -1    0    0    0    0  0.00000000000E+00  0.00000000000E+00  0.25011920797E+04  0.25011920797E+04  0.00000000000E+00 0. -1.
         22   -1    0    0    0    0 -0.00000000000E+00 -0.00000000000E+00 -0.63312406254E+03  0.63312406254E+03  0.00000000000E+00 0.  1.
         24    2    1    2    0    0 -0.89874998968E+02  0.23432069731E+02 -0.61940574548E+03  0.63154162168E+03  0.80961503525E+02 0.  0.
         25    2    1    2    0    0  0.57142149430E+02 -0.72329371100E+01  0.71258011534E+03  0.72576559996E+03  0.12509094565E+03 0.  0.
        -24    2    1    2    0    0  0.32732849538E+02 -0.16199132621E+02  0.17748936473E+04  0.17770089206E+04  0.78609117464E+02 0.  0.
        -11    1    3    3    0    0 -0.91644653520E+02  0.29299069667E+02 -0.61774454830E+03  0.62519237436E+03  0.00000000000E+00 0.  1.
         12    1    3    3    0    0  0.17696545520E+01 -0.58669999356E+01 -0.16611971762E+01  0.63492473204E+01  0.00000000000E+00 0. -1.
         13    1    5    5    0    0  0.18458900892E+02 -0.46850741959E+02  0.12603198464E+04  0.12613254292E+04  0.00000000000E+00 0. -1.
        -14    1    5    5    0    0  0.14273948646E+02  0.30651609337E+02  0.51457380083E+03  0.51568349136E+03  0.00000000000E+00 0.  1.
          5    1    4    4  501    0  0.50003970176E+02  0.17520775365E+02  0.68755830069E+03  0.68960950099E+03  0.41800000000E+01 0. -1.
         -5    1    4    4    0  501  0.71381792546E+01 -0.24753712475E+02  0.25021814648E+02  0.36156098969E+02  0.41800000000E+01 0. -1.
</event>
<event>
11    1  0.8551154E-009  0.2206977E+03  0.7561462E-02  0.1040781E+00
         22   -1    0    0    0    0  0.00000000000E+00  0.00000000000E+00  0.73648230584E+02  0.73648230584E+02  0.00000000000E+00 0. -1.
         22   -1    0    0    0    0 -0.00000000000E+00 -0.00000000000E+00 -0.11219215853E+04  0.11219215853E+04  0.00000000000E+00 0. -1.
        -24    2    1    2    0    0 -0.11056602249E+03  0.17101662551E+03 -0.67761766017E+03  0.71220628509E+03  0.81243877434E+02 0.  0.
         25    2    1    2    0    0  0.38281713404E+02 -0.14306636750E+03 -0.27421313544E+03  0.33581403176E+03  0.12507895582E+03 0.  0.
         24    2    1    2    0    0  0.72284309089E+02 -0.27950258009E+02 -0.96442559085E+02  0.14754949901E+03  0.80395579426E+02 0.  0.
        -11    1    5    5    0    0  0.63074452365E+01 -0.42873592118E+02 -0.45776087661E+02  0.63034744134E+02  0.00000000000E+00 0.  1.
         12    1    5    5    0    0  0.65976863852E+02  0.14923334109E+02 -0.50666471424E+02  0.84514754873E+02  0.00000000000E+00 0. -1.
         13    1    3    3    0    0 -0.10117323961E+03  0.17828505947E+03 -0.60917538722E+03  0.64274119150E+03  0.00000000000E+00 0. -1.
        -14    1    3    3    0    0 -0.93927828805E+01 -0.72684339629E+01 -0.68442272944E+02  0.69465093596E+02  0.00000000000E+00 0.  1.
          5    1    4    4  501    0 -0.12333355864E+02  0.13755385098E+02 -0.41082727474E+01  0.19382275177E+02  0.41800000000E+01 0.  1.
         -5    1    4    4    0  501  0.50615069267E+02 -0.15682175260E+03 -0.27010486269E+03  0.31643175658E+03  0.41800000000E+01 0.  1.
</event>
<event>
11    1  0.8551154E-009  0.1356930E+03  0.7561462E-02  0.1112465E+00
         22   -1    0    0    0    0  0.00000000000E+00  0.00000000000E+00  0.96947818167E+03  0.96947818167E+03  0.00000000000E+00 0.  1.
         22   -1    0    0    0    0 -0.00000000000E+00 -0.00000000000E+00 -0.46549213508E+03  0.46549213508E+03  0.00000000000E+00 0. -1.
         24    2    1    2    0    0  0.50765326227E+02 -0.12116416803E+02 -0.39852576589E+03  0.40913835589E+03  0.76468832105E+02 0.  0.
         25    2    1    2    0    0 -0.49767577999E+02  0.42849311398E+02  0.24297205310E+02  0.14335357711E+03  0.12508804330E+03 0.  0.
        -24    2    1    2    0    0 -0.99774822783E+00 -0.30732894595E+02  0.87821460716E+03  0.88247838375E+03  0.81004291454E+02 0.  0.
        -13    1    3    3    0    0 -0.11748564851E+01 -0.16207568932E+02 -0.15080093815E+02  0.22169231108E+02  0.00000000000E+00 0.  1.
         14    1    3    3    0    0  0.51940182712E+02  0.40911521285E+01 -0.38344567207E+03  0.38696912478E+03  0.00000000000E+00 0. -1.
         13    1    5    5    0    0 -0.36781200317E+02 -0.62760094352E+01  0.24985883279E+03  0.25262953374E+03  0.00000000000E+00 0. -1.
        -14    1    5    5    0    0  0.35783452089E+02 -0.24456885159E+02  0.62835577437E+03  0.62984885001E+03  0.00000000000E+00 0.  1.
          5    1    4    4  501    0  0.12479225741E+02  0.58305500464E+02  0.46098319696E+02  0.75483706442E+02  0.41800000000E+01 0.  1.
         -5    1    4    4    0  501 -0.62246803741E+02 -0.15456189066E+02 -0.21801114386E+02  0.67869870670E+02  0.41800000000E+01 0.  1.
</event>
<event>
11    1  0.8551154E-009  0.1278164E+03  0.7561462E-02  0.1121981E+00
         22   -1    0    0    0    0  0.00000000000E+00  0.00000000000E+00  0.19764945956E+04  0.19764945956E+04  0.00000000000E+00 0.  1.
         22   -1    0    0    0    0 -0.00000000000E+00 -0.00000000000E+00 -0.23322316001E+03  0.23322316001E+03  0.00000000000E+00 0. -1.
        -24    2    1    2    0    0  0.53887900193E+01 -0.29147920926E+01 -0.21928669344E+03  0.23333403023E+03  0.79502079693E+02 0.  0.
         25    2    1    2    0    0 -0.29139391047E+02 -0.59803812371E+01  0.75865649701E+03  0.76947526971E+03  0.12509053187E+03 0.  0.
         24    2    1    2    0    0  0.23750601028E+02  0.88951733296E+01  0.12039016320E+04  0.12069084557E+04  0.81275246102E+02 0.  0.
        -11    1    5    5    0    0  0.54131120520E+02  0.60346957999E+01  0.73559968590E+03  0.73761337682E+03  0.00000000000E+00 0.  1.
         12    1    5    5    0    0 -0.30380519492E+02  0.28604775297E+01  0.46830194610E+03  0.46929507884E+03  0.00000000000E+00 0. -1.
         13    1    3    3    0    0  0.30861020852E+01 -0.40820919109E+02 -0.13039461745E+03  0.13666977618E+03  0.00000000000E+00 0. -1.
        -14    1    3    3    0    0  0.23026879341E+01  0.37906127017E+02 -0.88892075993E+02  0.96664254052E+02  0.00000000000E+00 0.  1.
          5    1    4    4  501    0 -0.29240827757E+02 -0.38372909491E+02  0.70499087642E+03  0.70665204621E+03  0.41800000000E+01 0. -1.
         -5    1    4    4    0  501  0.10143670979E+00  0.32392528254E+02  0.53665620597E+02  0.62823223494E+02  0.41800000000E+01 0. -1.
</event>
<event>
11    1  0.8551154E-009  0.2817004E+03  0.7561462E-02  0.1008248E+00
         22   -1    0    0    0    0  0.00000000000E+00  0.00000000000E+00  0.78802781480E+03  0.78802781480E+03  0.00000000000E+00 0.  1.
         22   -1    0    0    0    0 -0.00000000000E+00 -0.00000000000E+00 -0.12413589351E+04  0.12413589351E+04  0.00000000000E+00 0. -1.
        -24    2    1    2    0    0 -0.34361327121E+02  0.74022105785E+02 -0.11218113641E+04  0.11273018154E+04  0.75423295170E+02 0.  0.
         25    2    1    2    0    0  0.27476192017E+03 -0.87557282655E+02  0.21017252211E+03  0.37812741346E+03  0.12508981268E+03 0.  0.
         24    2    1    2    0    0 -0.24040059304E+03  0.13535176870E+02  0.45830772166E+03  0.52395752106E+03  0.80683765331E+02 0.  0.
        -13    1    5    5    0    0 -0.18633455020E+03  0.42264770337E+02  0.31996201003E+03  0.37266950945E+03  0.00000000000E+00 0.  1.
         14    1    5    5    0    0 -0.54066042845E+02 -0.28729593466E+02  0.13834571163E+03  0.15128801161E+03  0.00000000000E+00 0. -1.
         13    1    3    3    0    0  0.11646277554E+02  0.37474747087E+01 -0.46246750409E+03  0.46262930267E+03  0.00000000000E+00 0. -1.
        -14    1    3    3    0    0 -0.46007604675E+02  0.70274631076E+02 -0.65934385996E+03  0.66467251269E+03  0.00000000000E+00 0.  1.
          5    1    4    4  501    0  0.23235350164E+03 -0.27378721366E+02  0.19069243919E+03  0.30185894532E+03  0.41800000000E+01 0.  1.
         -5    1    4    4    0  501  0.42408418528E+02 -0.60178561290E+02  0.19480082923E+02  0.76268468135E+02  0.41800000000E+01 0.  1.
</event>
<event>
11    1  0.8551154E-009  0.1407266E+03  0.7561462E-02  0.1106750E+00
         22   -1    0    0    0    0  0.00000000000E+00  0.00000000000E+00  0.36984205067E+03  0.36984205067E+03  0.00000000000E+00 0.  1.
         22   -1    0    0    0    0 -0.00000000000E+00 -0.00000000000E+00 -0.18024498551E+04  0.18024498551E+04  0.00000000000E+00 0. -1.
         24    2    1    2    0    0  0.88650799122E+01  0.13943932470E+02 -0.14309504917E+04  0.14332640078E+04  0.79708113808E+02 0.  0.
         25    2    1    2    0    0  0.51608968519E+02 -0.36475021131E+02 -0.34958862367E+03  0.37663498010E+03  0.12509112533E+03 0.  0.
        -24    2    1    2    0    0 -0.60474048431E+02  0.22531088661E+02  0.34793131097E+03  0.36239291785E+03  0.78151578757E+02 0.  0.
        -11    1    3    3    0    0  0.36696052901E+01  0.23150392244E+02 -0.11983128400E+03  0.12210218380E+03  0.00000000000E+00 0.  1.
         12    1    3    3    0    0  0.51954746221E+01 -0.92064597744E+01 -0.13111192078E+04  0.13111618240E+04  0.00000000000E+00 0. -1.
         13    1    5    5    0    0 -0.31846812388E+01 -0.33900477438E+01 -0.32192860107E+01  0.56567146575E+01  0.00000000000E+00 0. -1.
        -14    1    5    5    0    0 -0.57289367192E+02  0.25921136405E+02  0.35115059698E+03  0.35673620319E+03  0.00000000000E+00 0.  1.
          5    1    4    4  501    0  0.41044042164E+02  0.16545290035E+02 -0.32807114790E+02  0.55246169101E+02  0.41800000000E+01 0.  1.
         -5    1    4    4    0  501  0.10564926354E+02 -0.53020311166E+02 -0.31678150888E+03  0.32138881100E+03  0.41800000000E+01 0.  1.
</event>
<event>
11    1  0.8551154E-009  0.1434884E+03  0.7561462E-02  0.1103724E+00
         22   -1    0    0    0    0  0.00000000000E+00  0.00000000000E+00  0.30783909992E+03  0.30783909992E+03  0.00000000000E+00 0.  1.
         22   -1    0    0    0    0 -0.00000000000E+00 -0.00000000000E+00 -0.19103808003E+04  0.19103808003E+04  0.00000000000E+00 0. -1.
         24    2    1    2    0    0  0.78456992110E+00  0.69533579555E+02 -0.15729294486E+04  0.15757575643E+04  0.63791197539E+02 0.  0.
         25    2    1    2    0    0  0.18004541216E+02 -0.79272247260E+02 -0.31310766351E+03  0.34683263652E+03  0.12509282998E+03 0.  0.
        -24    2    1    2    0    0 -0.18789111138E+02  0.97386677053E+01  0.28349541175E+03  0.29562969941E+03  0.81113490540E+02 0.  0.
        -11    1    3    3    0    0 -0.19562407908E+02  0.53037572675E+00 -0.20319191093E+03  0.20413211842E+03  0.00000000000E+00 0.  1.
         12    1    3    3    0    0  0.20346977830E+02  0.69003203828E+02 -0.13697375377E+04  0.13716254459E+04  0.00000000000E+00 0. -1.
         11    1    5    5    0    0  0.14668644430E+02 -0.29038574244E+02  0.11645910041E+03  0.12091786465E+03  0.00000000000E+00 0. -1.
        -12    1    5    5    0    0 -0.33457755567E+02  0.38777241949E+02  0.16703631134E+03  0.17471183476E+03  0.00000000000E+00 0.  1.
          5    1    4    4  501    0 -0.53601384768E+02 -0.30322014807E+02 -0.14590070205E+03  0.15842039101E+03  0.41800000000E+01 0. -1.
         -5    1    4    4    0  501  0.71605925985E+02 -0.48950232453E+02 -0.16720696146E+03  0.18841224550E+03  0.41800000000E+01 0. -1.
</event>
<event>
11    1  0.8551154E-009  0.1454724E+03  0.7561462E-02  0.1101597E+00
         22   -1    0    0    0    0  0.00000000000E+00  0.00000000000E+00  0.36272784358E+04  0.36272784358E+04  0.00000000000E+00 0. -1.
         22   -1    0    0    0    0 -0.00000000000E+00 -0.00000000000E+00 -0.46251348847E+02  0.46251348847E+02  0.00000000000E+00 0.  1.
        -24    2    1    2    0    0 -0.15627378031E+02  0.46618474076E+02  0.58800476022E+02  0.11231939531E+03  0.82101483014E+02 0.  0.
         25    2    1    2    0    0  0.86777519369E+02 -0.63084268438E+02  0.34674360250E+03  0.38391368359E+03  0.12509447542E+03 0.  0.
         24    2    1    2    0    0 -0.71150141338E+02  0.16465794362E+02  0.31754830085E+04  0.31772967058E+04  0.78667366255E+02 0.  0.
        -11    1    5    5    0    0 -0.75090282525E+02 -0.10249310836E+02  0.18710834005E+04  0.18726176040E+04  0.00000000000E+00 0.  1.
         12    1    5    5    0    0  0.39401411870E+01  0.26715105198E+02  0.13043996079E+04  0.13046791018E+04  0.00000000000E+00 0. -1.
         11    1    3    3    0    0 -0.37619942693E+01  0.25887327930E+02  0.77620186887E+02  0.81909704924E+02  0.00000000000E+00 0. -1.
        -12    1    3    3    0    0 -0.11865383762E+02  0.20731146146E+02 -0.18819710865E+02  0.30409690386E+02  0.00000000000E+00 0.  1.
          5    1    4    4  501    0  0.31866090399E+02  0.19902330356E+02  0.21742831958E+03  0.22069004741E+03  0.41800000000E+01 0. -1.
         -5    1    4    4    0  501  0.54911428969E+02 -0.82986598794E+02  0.12931528292E+03  0.16322363618E+03  0.41800000000E+01 0. -1.
</event>
<event>
11    1  0.8551154E-009  0.1629653E+03  0.7561462E-02  0.1084321E+00
         22   -1    0    0    0    0  0.00000000000E+00  0.00000000000E+00  0.24503545135E+04  0.24503545135E+04  0.00000000000E+00 0.  1.
         22   -1    0    0    0    0 -0.00000000000E+00 -0.00000000000E+00 -0.74248860845E+03  0.74248860845E+03  0.00000000000E+00 0. -1.
         24    2    1    2    0    0  0.25281248126E+02  0.43217800032E+01 -0.71767223393E+03  0.72265257204E+03  0.80718555674E+02 0.  0.
         25    2    1    2    0    0 -0.12583635867E+03 -0.21998426889E+02  0.37390208841E+03  0.41444945014E+03  0.12508738969E+03 0.  0.
        -24    2    1    2    0    0  0.10055511054E+03  0.17676646886E+02  0.20516360506E+04  0.20557410998E+04  0.80232107921E+02 0.  0.
        -13    1    3    3    0    0  0.30379977251E+02  0.34360021915E+02 -0.26367969321E+03  0.26763881396E+03  0.00000000000E+00 0.  1.
         14    1    3    3    0    0 -0.50987291254E+01 -0.30038241912E+02 -0.45399254072E+03  0.45501375808E+03  0.00000000000E+00 0. -1.
         11    1    5    5    0    0 -0.87184844808E+01 -0.53997811709E+01  0.52761311088E+02  0.53748726088E+02  0.00000000000E+00 0. -1.
        -12    1    5    5    0    0  0.10927359503E+03  0.23076428057E+02  0.19988747395E+04  0.20019923737E+04  0.00000000000E+00 0.  1.
          5    1    4    4  501    0 -0.56937258153E+02 -0.72968539459E+02  0.18141010295E+03  0.20369918254E+03  0.41800000000E+01 0. -1.
         -5    1    4    4    0  501 -0.68899100518E+02  0.50970112570E+02  0.19249198546E+03  0.21075026760E+03  0.41800000000E+01 0. -1.
</event>
<event>
11    1  0.8551154E-009  0.1830719E+03  0.7561462E-02  0.1067185E+00
         22   -1    0    0    0    0  0.00000000000E+00  0.00000000000E+00  0.13125344870E+04  0.13125344870E+04  0.00000000000E+00 0.  1.
         22   -1    0    0    0    0 -0.00000000000E+00 -0.00000000000E+00 -0.52231878000E+02  0.52231878000E+02  0.00000000000E+00 0. -1.
        -24    2    1    2    0    0  0.10541285120E+03  0.56446656604E+02  0.23875592929E+03  0.27896087378E+03  0.80725962926E+02 0.  0.
         25    2    1    2    0    0 -0.14986596703E+03 -0.37298383748E+02  0.30842747256E+03  0.36691384092E+03  0.12508910154E+03 0.  0.
         24    2    1    2    0    0  0.44453115835E+02 -0.19148272856E+02  0.71311920716E+03  0.71889165031E+03  0.76964052666E+02 0.  0.
        -13    1    5    5    0    0  0.51537303156E+02  0.16270459058E+02  0.38098875142E+03  0.38480287182E+03  0.00000000000E+00 0.  1.
         14    1    5    5    0    0 -0.70841873207E+01 -0.35418731914E+02  0.33213045574E+03  0.33408877849E+03  0.00000000000E+00 0. -1.
         13    1    3    3    0    0  0.28430163971E+02 -0.14527431630E+02  0.23676355259E+02  0.39747833796E+02  0.00000000000E+00 0. -1.
        -14    1    3    3    0    0  0.76982687225E+02  0.70974088234E+02  0.21507957403E+03  0.23921303999E+03  0.00000000000E+00 0.  1.
          5    1    4    4  501    0 -0.12375586514E+03 -0.74912704784E+02  0.18291066421E+03  0.23324067179E+03  0.41800000000E+01 0. -1.
         -5    1    4    4    0  501 -0.26110101895E+02  0.37614321037E+02  0.12551680835E+03  0.13367316913E+03  0.41800000000E+01 0. -1.
</event>
<event>
11    1  0.8551154E-009  0.1740472E+03  0.7561462E-02  0.1074562E+00
         22   -1    0    0    0    0  0.00000000000E+00  0.00000000000E+00  0.27517103647E+03  0.27517103647E+03  0.00000000000E+00 0.  1.
         22   -1    0    0    0    0 -0.00000000000E+00 -0.00000000000E+00 -0.80705810061E+03  0.80705810061E+03  0.00000000000E+00 0. -1.
         24    2    1    2    0    0  0.55174197378E+02 -0.22029289443E+02 -0.66658836665E+03  0.67399002456E+03  0.79956369391E+02 0.  0.
         25    2    1    2    0    0 -0.68042326044E+02  0.13654057691E+03 -0.22509664291E+02  0.19855383275E+03  0.12507538621E+03 0.  0.
        -24    2    1    2    0    0  0.12868128666E+02 -0.11451128747E+03  0.15721096680E+03  0.20968527978E+03  0.77292980130E+02 0.  0.
        -11    1    3    3    0    0 -0.10797038356E+02  0.10665516883E+02 -0.28254788936E+03  0.28295518915E+03  0.00000000000E+00 0.  1.
         12    1    3    3    0    0  0.65971235734E+02 -0.32694806326E+02 -0.38404047729E+03  0.39103483541E+03  0.00000000000E+00 0. -1.
         11    1    5    5    0    0 -0.11469509968E+02 -0.75424965109E+02  0.45433249826E+02  0.88795581030E+02  0.00000000000E+00 0. -1.
        -12    1    5    5    0    0  0.24337638634E+02 -0.39086322362E+02  0.11177771698E+03  0.12088969875E+03  0.00000000000E+00 0.  1.
          5    1    4    4  501    0 -0.31988655851E+02 -0.18869168795E+02 -0.86482801405E+01  0.38361240641E+02  0.41800000000E+01 0.  1.
         -5    1    4    4    0  501 -0.36053670193E+02  0.15540974571E+03 -0.13861384151E+02  0.16019259211E+03  0.41800000000E+01 0.  1.
</event>
<event>
11    1  0.8551154E-009  0.1606936E+03  0.7561462E-02  0.1086427E+00
         22   -1    0    0    0    0  0.00000000000E+00  0.00000000000E+00  0.15681575597E+04  0.15681575597E+04  0.00000000000E+00 0. -1.
         22   -1    0    0    0    0 -0.00000000000E+00 -0.00000000000E+00 -0.24296269465E+03  0.24296269465E+03  0.00000000000E+00 0.  1.
        -24    2    1    2    0    0 -0.77051994946E+02  0.65646802842E+02 -0.16367735501E+03  0.20793195604E+03  0.78733151551E+02 0.  0.
         25    2    1    2    0    0  0.12950490032E+03  0.81395511267E+01  0.94224823214E+02  0.20337743731E+03  0.12508514379E+03 0.  0.
         24    2    1    2    0    0 -0.52452905372E+02 -0.73786353969E+02  0.13946473968E+04  0.13998108610E+04  0.78951578405E+02 0.  0.
        -11    1    5    5    0    0 -0.19605648170E+02 -0.97766622734E+01  0.73243449700E+02  0.76449771022E+02  0.00000000000E+00 0.  1.
         12    1    5    5    0    0 -0.32847257202E+02 -0.64009691696E+02  0.13214039471E+04  0.13233610900E+04  0.00000000000E+00 0. -1.
         11    1    3    3    0    0  0.14856814997E+02  0.97757428061E+00 -0.28386959859E+02  0.32054642306E+02  0.00000000000E+00 0. -1.
        -12    1    3    3    0    0 -0.91908809943E+02  0.64669228562E+02 -0.13529039515E+03  0.17587731374E+03  0.00000000000E+00 0.  1.
          5    1    4    4  501    0  0.17167859270E+02 -0.48711722530E+02  0.12782306460E+02  0.53370657315E+02  0.41800000000E+01 0. -1.
         -5    1    4    4    0  501  0.11233704105E+03  0.56851273657E+02  0.81442516754E+02  0.15000677999E+03  0.41800000000E+01 0. -1.
</event>
<event>
11    1  0.8551154E-009  0.1789592E+03  0.7561462E-02  0.1070488E+00
         22   -1    0    0    0    0  0.00000000000E+00  0.00000000000E+00  0.13018930290E+04  0.13018930290E+04  0.00000000000E+00 0.  1.
         22   -1    0    0    0    0 -0.00000000000E+00 -0.00000000000E+00 -0.51797493206E+03  0.51797493206E+03  0.00000000000E+00 0. -1.
         24    2    1    2    0    0  0.64732588185E+02  0.11883044073E+02 -0.47695781358E+03  0.48826691402E+03  0.81143753193E+02 0.  0.
         25    2    1    2    0    0 -0.13872095769E+03  0.86221504985E+02  0.32700030317E+03  0.38633527509E+03  0.12509234383E+03 0.  0.
        -24    2    1    2    0    0  0.73988369506E+02 -0.98104549058E+02  0.93387560739E+03  0.94526577200E+03  0.79403704372E+02 0.  0.
        -11    1    3    3    0    0  0.20530086735E+02 -0.33065935548E+02 -0.23656333105E+03  0.23974371765E+03  0.00000000000E+00 0.  1.
         12    1    3    3    0    0  0.44202501449E+02  0.44948979621E+02 -0.24039448253E+03  0.24852319637E+03  0.00000000000E+00 0. -1.
         11    1    5    5    0    0 -0.10811570139E+02  0.69820277854E+00  0.27026899532E+02  0.29117534825E+02  0.00000000000E+00 0. -1.
        -12    1    5    5    0    0  0.84799939644E+02 -0.98802751837E+02  0.90684870786E+03  0.91614823717E+03  0.00000000000E+00 0.  1.
          5    1    4    4  501    0 -0.13919345142E+03  0.10652177223E+03  0.31920730172E+03  0.36418742256E+03  0.41800000000E+01 0.  1.
         -5    1    4    4    0  501  0.47249373151E+00 -0.20300267242E+02  0.77930014512E+01  0.22147852538E+02  0.41800000000E+01 0.  1.
</event>
<event>
11    1  0.8551154E-009  0.1801816E+03  0.7561462E-02  0.1069496E+00
         22   -1    0    0    0    0  0.00000000000E+00  0.00000000000E+00  0.32625039476E+03  0.32625039476E+03  0.00000000000E+00 0.  1.
         22   -1    0    0    0    0 -0.00000000000E+00 -0.00000000000E+00 -0.84690708927E+03  0.84690708927E+03  0.00000000000E+00 0. -1.
        -24    2    1    2    0    0  0.89390943672E+02  0.29568151735E+02 -0.71510036218E+03  0.72566349614E+03  0.79711763419E+02 0.  0.
         25    2    1    2    0    0 -0.17232388407E+03  0.57581397657E+02  0.20108613456E+02  0.22150397323E+03  0.12509402641E+03 0.  0.
         24    2    1    2    0    0  0.82932940399E+02 -0.87149549391E+02  0.17433505422E+03  0.22599001467E+03  0.78777274888E+02 0.  0.
        -11    1    5    5    0    0  0.75704683114E+02 -0.72169443415E+02  0.18019897217E+03  0.20835377890E+03  0.00000000000E+00 0.  1.
         12    1    5    5    0    0  0.72282572848E+01 -0.14980105977E+02 -0.58639179555E+01  0.17636235773E+02  0.00000000000E+00 0. -1.
         11    1    3    3    0    0  0.59323260634E+02  0.24891669287E+02 -0.65639775916E+03  0.65954291952E+03  0.00000000000E+00 0. -1.
        -12    1    3    3    0    0  0.30067683039E+02  0.46764824478E+01 -0.58702603018E+02  0.66120576620E+02  0.00000000000E+00 0.  1.
          5    1    4    4  501    0 -0.61379590177E+02  0.78393708587E+00 -0.49246007383E+02  0.78808059808E+02  0.41800000000E+01 0. -1.
         -5    1    4    4    0  501 -0.11094429389E+03  0.56797460571E+02  0.69354620839E+02  0.14269591342E+03  0.41800000000E+01 0. -1.
</event>
<event>
11    1  0.8551154E-009  0.1680075E+03  0.7561462E-02  0.1079779E+00
         22   -1    0    0    0    0  0.00000000000E+00  0.00000000000E+00  0.26769344235E+04  0.26769344235E+04  0.00000000000E+00 0.  1.
         22   -1    0    0    0    0 -0.00000000000E+00 -0.00000000000E+00 -0.54368876866E+02  0.54368876866E+02  0.00000000000E+00 0.  1.
        -24    2    1    2    0    0 -0.54269847648E+02  0.14309635621E+02  0.16792609166E+02  0.98968962748E+02  0.79767674088E+02 0.  0.
         25    2    1    2    0    0 -0.51465612232E+02  0.48239897380E+02  0.47395319291E+03  0.49523246143E+03  0.12509102621E+03 0.  0.
         24    2    1    2    0    0  0.10573545988E+03 -0.62549533001E+02  0.21318197446E+04  0.21371018762E+04  0.86351458487E+02 0.  0.
        -11    1    5    5    0    0  0.10005833148E+03 -0.69499888196E+02  0.21099259880E+04  0.21134402237E+04  0.00000000000E+00 0.  1.
         12    1    5    5    0    0  0.56771283996E+01  0.69503551950E+01  0.21893756556E+02  0.23661652527E+02  0.00000000000E+00 0. -1.
         11    1    3    3    0    0  0.18024634889E+02 -0.56771870578E+01  0.14685629739E+02  0.23932940409E+02  0.00000000000E+00 0. -1.
        -12    1    3    3    0    0 -0.72294482537E+02  0.19986822679E+02  0.21069794267E+01  0.75036022339E+02  0.00000000000E+00 0.  1.
          5    1    4    4  501    0 -0.22214214440E+02  0.68181924730E+02  0.12273446453E+03  0.14220923798E+03  0.41800000000E+01 0. -1.
         -5    1    4    4    0  501 -0.29251397792E+02 -0.19942027350E+02  0.35121872838E+03  0.35302322345E+03  0.41800000000E+01 0. -1.
</event>
<event>
11    1  0.8551154E-009  0.1393684E+03  0.7561462E-02  0.1108266E+00
         22   -1    0    0    0    0  0.00000000000E+00  0.00000000000E+00  0.30360326482E+04  0.30360326482E+04  0.00000000000E+00 0.  1.
         22   -1    0    0    0    0 -0.00000000000E+00 -0.00000000000E+00 -0.23697085798E+03  0.23697085798E+03  0.00000000000E+00 0. -1.
         24    2    1    2    0    0  0.23650942186E+02  0.21606095901E+02 -0.21871531675E+03  0.23588111725E+03  0.82324487558E+02 0.  0.
         25    2    1    2    0    0 -0.56814660713E+02 -0.69409041039E+02  0.67489650591E+03  0.69222831090E+03  0.12509684276E+03 0.  0.
        -24    2    1    2    0    0  0.33163718527E+02  0.47802945138E+02  0.23428806011E+04  0.23448940780E+04  0.77805992908E+02 0.  0.
        -13    1    3    3    0    0  0.32241090015E+02  0.17819791071E+02 -0.31611476990E+02  0.48541923290E+02  0.00000000000E+00 0.  1.
         14    1    3    3    0    0 -0.85901478292E+01  0.37863048296E+01 -0.18710383976E+03  0.18733919396E+03  0.00000000000E+00 0. -1.
         13    1    5    5    0    0  0.37926160665E+02  0.81551470374E+01  0.47332422284E+03  0.47491127594E+03  0.00000000000E+00 0. -1.
        -14    1    5    5    0    0 -0.47624421381E+01  0.39647798101E+02  0.18695563782E+04  0.18699828021E+04  0.00000000000E+00 0.  1.
          5    1    4    4  501    0  0.28808657480E+02 -0.39148924097E+02  0.39346875368E+03  0.39648166355E+03  0.41800000000E+01 0.  1.
         -5    1    4    4    0  501 -0.85623318193E+02 -0.30260116942E+02  0.28142775223E+03  0.29574664735E+03  0.41800000000E+01 0.  1.
</event>
<event>
11    1  0.1153913E-008  0.1573197E+03  0.7561462E-02  0.1089626E+00
         22   -1    0    0    0    0  0.00000000000E+00  0.00000000000E+00  0.54624543928E+03  0.54624543928E+03  0.00000000000E+00 0.  1.
         22   -1    0    0    0    0 -0.00000000000E+00 -0.00000000000E+00 -0.12217516908E+04  0.12217516908E+04  0.00000000000E+00 0.  1.
        -24    2    1    2    0    0  0.30135748817E+02 -0.44462402171E+02 -0.95380996171E+03  0.95851059914E+03  0.78128464944E+02 0.  0.
         25    2    1    2    0    0 -0.15333802922E+02  0.13755879466E+03 -0.22418818428E+03  0.29166025727E+03  0.12509123152E+03 0.  0.
         24    2    1    2    0    0 -0.14801945895E+02 -0.93096392492E+02  0.50249189447E+03  0.51782627367E+03  0.82218670587E+02 0.  0.
        -13    1    5    5    0    0 -0.29884062887E+02 -0.36556151571E+02  0.36982624383E+03  0.37282819107E+03  0.00000000000E+00 0.  1.
         14    1    5    5    0    0  0.15082116991E+02 -0.56540240921E+02  0.13266565064E+03  0.14499808260E+03  0.00000000000E+00 0. -1.
         13    1    3    3    0    0  0.14885025764E+02 -0.51724928349E+02 -0.32144800362E+03  0.32592307564E+03  0.00000000000E+00 0. -1.
        -14    1    3    3    0    0  0.15250723053E+02  0.72625261781E+01 -0.63236195810E+03  0.63258752350E+03  0.00000000000E+00 0.  1.
          5    1    4    4  501    0  0.26063715234E+02  0.14051524155E+03 -0.15499848055E+03  0.21086927641E+03  0.41800000000E+01 0.  1.
         -5    1    4    4    0  501 -0.41397518156E+02 -0.29564468896E+01 -0.69189703727E+02  0.80790980867E+02  0.41800000000E+01 0.  1.
</event>
<event>
11    1  0.8551154E-009  0.2263718E+03  0.7561462E-02  0.1037298E+00
         22   -1    0    0    0    0  0.00000000000E+00  0.00000000000E+00  0.69969206965E+02  0.69969206965E+02  0.00000000000E+00 0. -1.
         22   -1    0    0    0    0 -0.00000000000E+00 -0.00000000000E+00 -0.20191426242E+04  0.20191426242E+04  0.00000000000E+00 0. -1.
        -24    2    1    2    0    0 -0.16435636313E+03  0.50271103537E+02 -0.12306169670E+04  0.12452557532E+04  0.81875354507E+02 0.  0.
         25    2    1    2    0    0  0.24868981650E+03 -0.82035875610E+02 -0.62864664405E+03  0.69240238795E+03  0.12509178247E+03 0.  0.
         24    2    1    2    0    0 -0.84333453365E+02  0.31764772073E+02 -0.89909806256E+02  0.15145369000E+03  0.82056778225E+02 0.  0.
        -13    1    5    5    0    0 -0.38182319338E+02  0.11996441619E+02 -0.92903685222E+02  0.10115779184E+03  0.00000000000E+00 0.  1.
         14    1    5    5    0    0 -0.46151134027E+02  0.19768330454E+02  0.29938789654E+01  0.50295898164E+02  0.00000000000E+00 0. -1.
         11    1    3    3    0    0 -0.92718621743E+02 -0.58759953751E+01 -0.78193718083E+03  0.78743699742E+03  0.00000000000E+00 0. -1.
        -12    1    3    3    0    0 -0.71637741391E+02  0.56147098912E+02 -0.44867978612E+03  0.45781875582E+03  0.00000000000E+00 0.  1.
          5    1    4    4  501    0  0.24416963639E+02  0.12670063881E+02 -0.13715572549E+02  0.31021088995E+02  0.41800000000E+01 0.  1.
         -5    1    4    4    0  501  0.22427285286E+03 -0.94705939490E+02 -0.61493107150E+03  0.66138129895E+03  0.41800000000E+01 0.  1.
</event>
<event>
11    1  0.8551154E-009  0.1717570E+03  0.7561462E-02  0.1076513E+00
         22   -1    0    0    0    0  0.00000000000E+00  0.00000000000E+00  0.32951608530E+04  0.32951608530E+04  0.00000000000E+00 0. -1.
         22   -1    0    0    0    0 -0.00000000000E+00 -0.00000000000E+00 -0.32851899850E+03  0.32851899850E+03  0.00000000000E+00 0. -1.
         24    2    1    2    0    0  0.11111827840E+03  0.44396575258E+02 -0.29405500074E+03  0.32712280349E+03  0.78883822232E+02 0.  0.
         25    2    1    2    0    0 -0.47715866111E+02 -0.80334457267E+02  0.34515992697E+03  0.37883225621E+03  0.12509226298E+03 0.  0.
        -24    2    1    2    0    0 -0.63402412287E+02  0.35937882009E+02  0.29155369283E+04  0.29177247918E+04  0.86319078405E+02 0.  0.
        -13    1    3    3    0    0 -0.30581758935E-01 -0.14341434732E+02 -0.13528819267E+02  0.19715644452E+02  0.00000000000E+00 0.  1.
         14    1    3    3    0    0  0.11114886016E+03  0.58738009989E+02 -0.28052618148E+03  0.30740715904E+03  0.00000000000E+00 0. -1.
         13    1    5    5    0    0 -0.21259031699E+02  0.53915009508E+02  0.21748996778E+04  0.21756717085E+04  0.00000000000E+00 0. -1.
        -14    1    5    5    0    0 -0.42143380588E+02 -0.17977127499E+02  0.74063725052E+03  0.74205308335E+03  0.00000000000E+00 0.  1.
          5    1    4    4  501    0 -0.52155074890E+02 -0.11176984059E+03  0.28771113553E+03  0.31306200505E+03  0.41800000000E+01 0.  1.
         -5    1    4    4    0  501  0.44392087785E+01  0.31435383323E+02  0.57448791443E+02  0.65770251159E+02  0.41800000000E+01 0.  1.
</event>
<event>
11    1  0.8551154E-009  0.1321054E+03  0.7561462E-02  0.1116709E+00
         22   -1    0    0    0    0  0.00000000000E+00  0.00000000000E+00  0.43949378581E+03  0.43949378581E+03  0.00000000000E+00 0. -1.
         22   -1    0    0    0    0 -0.00000000000E+00 -0.00000000000E+00 -0.28118502646E+03  0.28118502646E+03  0.00000000000E+00 0.  1.
         24    2    1    2    0    0 -0.46525833174E+01 -0.93132720405E+01 -0.24070848465E+03  0.25367510670E+03  0.79385777098E+02 0.  0.
         25    2    1    2    0    0 -0.37144855170E+02  0.19675301986E+02  0.16257105162E+03  0.20938993321E+03  0.12509172447E+03 0.  0.
        -24    2    1    2    0    0  0.41797438488E+02 -0.10362029945E+02  0.23644619239E+03  0.25761377237E+03  0.92755896256E+02 0.  0.
        -13    1    3    3    0    0  0.30713753688E+02  0.17562326340E+02 -0.11707314778E+03  0.12230246074E+03  0.00000000000E+00 0.  1.
         14    1    3    3    0    0 -0.35366337006E+02 -0.26875598381E+02 -0.12363533687E+03  0.13137264595E+03  0.00000000000E+00 0. -1.
         13    1    5    5    0    0  0.65663390656E+02 -0.28887175974E+02  0.17532526378E+03  0.18943362407E+03  0.00000000000E+00 0. -1.
        -14    1    5    5    0    0 -0.23865952168E+02  0.18525146029E+02  0.61120928612E+02  0.68180148303E+02  0.00000000000E+00 0.  1.
          5    1    4    4  501    0  0.45331954927E+02 -0.27723920789E+01  0.67624176936E+02  0.81566990883E+02  0.41800000000E+01 0.  1.
         -5    1    4    4    0  501 -0.82476810097E+02  0.22447694065E+02  0.94946874680E+02  0.12782294232E+03  0.41800000000E+01 0.  1.
</event>
<event>
11    1  0.8551154E-009  0.2738793E+03  0.7561462E-02  0.1011895E+00
         22   -1    0    0    0    0  0.00000000000E+00  0.00000000000E+00  0.36024748189E+03  0.36024748189E+03  0.00000000000E+00 0. -1.
         22   -1    0    0    0    0 -0.00000000000E+00 -0.00000000000E+00 -0.73887635175E+03  0.73887635175E+03  0.00000000000E+00 0.  1.
        -24    2    1    2    0    0 -0.32114445124E+02 -0.17780399646E+02 -0.29707739899E+03  0.31021293368E+03  0.81422374282E+02 0.  0.
         25    2    1    2    0    0 -0.52560028546E+02 -0.21431246244E+03 -0.33922351421E+03  0.42356929217E+03  0.12508382994E+03 0.  0.
         24    2    1    2    0    0  0.84674473670E+02  0.23209286209E+03  0.25767204334E+03  0.36534160779E+03  0.77735097224E+02 0.  0.
        -13    1    5    5    0    0  0.59227665657E+02  0.69591474503E+02  0.12008614473E+03  0.15090252436E+03  0.00000000000E+00 0.  1.
         14    1    5    5    0    0  0.25446808013E+02  0.16250138759E+03  0.13758589861E+03  0.21443908343E+03  0.00000000000E+00 0. -1.
         13    1    3    3    0    0 -0.84736774115E+01 -0.49223468397E+02 -0.17003724269E+03  0.17722137837E+03  0.00000000000E+00 0. -1.
        -14    1    3    3    0    0 -0.23640767713E+02  0.31443068752E+02 -0.12704015630E+03  0.13299155530E+03  0.00000000000E+00 0.  1.
          5    1    4    4  501    0 -0.76195492900E+02 -0.59669112553E+02 -0.12001386511E+03  0.15423020570E+03  0.41800000000E+01 0.  1.
         -5    1    4    4    0  501  0.23635464354E+02 -0.15464334989E+03 -0.21920964910E+03  0.26933908647E+03  0.41800000000E+01 0.  1.
</event>
<event>
11    1  0.8551154E-009  0.2899865E+03  0.7561462E-02  0.1004520E+00
         22   -1    0    0    0    0  0.00000000000E+00  0.00000000000E+00  0.13415472879E+04  0.13415472879E+04  0.00000000000E+00 0. -1.
         22   -1    0    0    0    0 -0.00000000000E+00 -0.00000000000E+00 -0.10570858593E+04  0.10570858593E+04  0.00000000000E+00 0.  1.
         24    2    1    2    0    0  0.29248826368E+01 -0.50183601172E+01 -0.84616139396E+03  0.84994613013E+03  0.79909827983E+02 0.  0.
         25    2    1    2    0    0  0.23153970800E+03 -0.11184475690E+03 -0.88146551420E+02  0.29922871924E+03  0.12509246927E+03 0.  0.
        -24    2    1    2    0    0 -0.23446459063E+03  0.11686311701E+03  0.12187693740E+04  0.12494582978E+04  0.84360052345E+02 0.  0.
        -13    1    3    3    0    0 -0.45524445447E+00  0.15697324010E+02 -0.78726022132E+03  0.78741683326E+03  0.00000000000E+00 0.  1.
         14    1    3    3    0    0  0.33801270912E+01 -0.20715684127E+02 -0.58901172647E+02  0.62529296871E+02  0.00000000000E+00 0. -1.
         13    1    5    5    0    0 -0.17324154279E+03  0.42888275078E+02  0.83475325858E+03  0.85361879021E+03  0.00000000000E+00 0. -1.
        -14    1    5    5    0    0 -0.61223047844E+02  0.73974841936E+02  0.38401611543E+03  0.39583950755E+03  0.00000000000E+00 0.  1.
          5    1    4    4  501    0  0.16450505211E+03 -0.11837136376E+03 -0.10692772954E+03  0.22918268624E+03  0.41800000000E+01 0.  1.
         -5    1    4    4    0  501  0.67034655888E+02  0.65266068677E+01  0.18781178124E+02  0.70046032999E+02  0.41800000000E+01 0.  1.
</event>
<event>
11    1  0.8551154E-009  0.1586742E+03  0.7561462E-02  0.1088331E+00
         22   -1    0    0    0    0  0.00000000000E+00  0.00000000000E+00  0.42234982127E+03  0.42234982127E+03  0.00000000000E+00 0. -1.
         22   -1    0    0    0    0 -0.00000000000E+00 -0.00000000000E+00 -0.58044444526E+03  0.58044444526E+03  0.00000000000E+00 0. -1.
         24    2    1    2    0    0  0.77678434020E+02 -0.39911953550E+02 -0.47634989672E+03  0.49085632132E+03  0.80023752297E+02 0.  0.
         25    2    1    2    0    0  0.75363735764E+01  0.97065848368E+02 -0.97600813972E+01  0.15880816382E+03  0.12508476270E+03 0.  0.
        -24    2    1    2    0    0 -0.85214807597E+02 -0.57153894818E+02  0.32801535412E+03  0.35312978138E+03  0.81107575676E+02 0.  0.
        -11    1    3    3    0    0  0.34064629045E+02  0.23568457179E+02 -0.16368929560E+03  0.16884921267E+03  0.00000000000E+00 0.  1.
         12    1    3    3    0    0  0.43613804975E+02 -0.63480410729E+02 -0.31266060112E+03  0.32200710865E+03  0.00000000000E+00 0. -1.
         11    1    5    5    0    0 -0.92200528950E+02 -0.44579798012E+02  0.32135316148E+03  0.33727755680E+03  0.00000000000E+00 0. -1.
        -12    1    5    5    0    0  0.69857213536E+01 -0.12574096806E+02  0.66621926434E+01  0.15852224580E+02  0.00000000000E+00 0.  1.
          5    1    4    4  501    0  0.19321968883E+02 -0.78236583157E+01  0.37482791272E+02  0.43092692565E+02  0.41800000000E+01 0. -1.
         -5    1    4    4    0  501 -0.11785595307E+02  0.10488950668E+03 -0.47242872669E+02  0.11571547125E+03  0.41800000000E+01 0. -1.
</event>
<event>
11    1  0.8551154E-009  0.2146168E+03  0.7561462E-02  0.1044643E+00
         22   -1    0    0    0    0  0.00000000000E+00  0.00000000000E+00  0.11365665816E+03  0.11365665816E+03  0.00000000000E+00 0.  1.
         22   -1    0    0    0    0 -0.00000000000E+00 -0.00000000000E+00 -0.15529311338E+04  0.15529311338E+04  0.00000000000E+00 0. -1.
        -24    2    1    2    0    0 -0.16398084101E+03  0.38786619685E+02 -0.11282665334E+04  0.11438157833E+04  0.83276993763E+02 0.  0.
         25    2    1    2    0    0  0.19417307951E+03 -0.52760292529E+02 -0.36220021248E+03  0.43280866842E+03  0.12509003262E+03 0.  0.
         24    2    1    2    0    0 -0.30192238502E+02  0.13973672844E+02  0.51192270197E+02  0.89963340262E+02  0.66075103213E+02 0.  0.
        -13    1    5    5    0    0 -0.34733206136E+02  0.22728197988E+02  0.62456497212E+02  0.74991870468E+02  0.00000000000E+00 0.  1.
         14    1    5    5    0    0  0.45409676343E+01 -0.87545251440E+01 -0.11264227015E+02  0.14971469794E+02  0.00000000000E+00 0. -1.
         11    1    3    3    0    0 -0.83785348153E+02  0.34602091851E+02 -0.35501261836E+03  0.36640312297E+03  0.00000000000E+00 0. -1.
        -12    1    3    3    0    0 -0.80195492858E+02  0.41845278337E+01 -0.77325391500E+03  0.77741266031E+03  0.00000000000E+00 0.  1.
          5    1    4    4  501    0  0.40774009812E+02 -0.24800054402E+02 -0.11918829546E+02  0.49366926907E+02  0.41800000000E+01 0.  1.
         -5    1    4    4    0  501  0.15339906970E+03 -0.27960238127E+02 -0.35028138294E+03  0.38344174151E+03  0.41800000000E+01 0.  1.
</event>
<event>
11    1  0.8551154E-009  0.3897495E+03  0.7561462E-02  0.9680496E-01
         22   -1    0    0    0    0  0.00000000000E+00  0.00000000000E+00  0.12380436373E+04  0.12380436373E+04  0.00000000000E+00 0. -1.
         22   -1    0    0    0    0 -0.00000000000E+00 -0.00000000000E+00 -0.89515648296E+03  0.89515648296E+03  0.00000000000E+00 0. -1.
        -24    2    1    2    0    0 -0.33016033673E+02 -0.80581017954E+02 -0.57974505350E+03  0.59171803222E+03  0.80265457520E+02 0.  0.
         25    2    1    2    0    0  0.34586669183E+03  0.26226516520E+03 -0.92266394775E+02  0.46104937158E+03  0.12508657018E+03 0.  0.
         24    2    1    2    0    0 -0.31285065815E+03 -0.18168414725E+03  0.10148986026E+04  0.10804327164E+04  0.80193625189E+02 0.  0.
        -13    1    5    5    0    0 -0.33557180275E+02 -0.56222651787E+01  0.16891510338E+03  0.17230788248E+03  0.00000000000E+00 0.  1.
         14    1    5    5    0    0 -0.27929347788E+03 -0.17606188207E+03  0.84598349919E+03  0.90812483393E+03  0.00000000000E+00 0. -1.
         11    1    3    3    0    0 -0.42865607999E+02 -0.57688096868E+02 -0.22727474016E+03  0.23836775030E+03  0.00000000000E+00 0. -1.
        -12    1    3    3    0    0  0.98495743259E+01 -0.22892921086E+02 -0.35247031334E+03  0.35335028192E+03  0.00000000000E+00 0.  1.
          5    1    4    4  501    0  0.45784258720E+02  0.66011223838E+01  0.20826540341E+02  0.50901771539E+02  0.41800000000E+01 0. -1.
         -5    1    4    4    0  501  0.30008243311E+03  0.25566404282E+03 -0.11309293512E+03  0.41014760004E+03  0.41800000000E+01 0. -1.
</event>
<event>
11    1  0.8551154E-009  0.1426967E+03  0.7561462E-02  0.1104584E+00
         22   -1    0    0    0    0  0.00000000000E+00  0.00000000000E+00  0.52297470839E+03  0.52297470839E+03  0.00000000000E+00 0. -1.
         22   -1    0    0    0    0 -0.00000000000E+00 -0.00000000000E+00 -0.22208549738E+04  0.22208549738E+04  0.00000000000E+00 0.  1.
         24    2    1    2    0    0  0.36771741769E+02 -0.56335093939E+02 -0.19153397421E+04  0.19181803600E+04  0.79773190990E+02 0.  0.
         25    2    1    2    0    0 -0.57095091921E+02  0.67227356837E+02 -0.28135179870E+03  0.32029242379E+03  0.12509610337E+03 0.  0.
        -24    2    1    2    0    0  0.20323350152E+02 -0.10892262898E+02  0.49881127537E+03  0.50535689841E+03  0.77725326490E+02 0.  0.
        -11    1    3    3    0    0  0.40833239595E+02 -0.74620831337E+02 -0.16396934178E+04  0.16418983301E+04  0.00000000000E+00 0.  1.
         12    1    3    3    0    0 -0.40614978260E+01  0.18285737398E+02 -0.27564632426E+03  0.27628202988E+03  0.00000000000E+00 0. -1.
         11    1    5    5    0    0  0.20734369977E+02 -0.15230107517E+02  0.50014022195E+03  0.50080146953E+03  0.00000000000E+00 0. -1.
        -12    1    5    5    0    0 -0.41101982490E+00  0.43378446186E+01 -0.13289465784E+01  0.45554288755E+01  0.00000000000E+00 0.  1.
          5    1    4    4  501    0 -0.78475399051E+02  0.61310803050E+02 -0.28052122400E+03  0.29770292632E+03  0.41800000000E+01 0.  1.
         -5    1    4    4    0  501  0.21380307130E+02  0.59165537875E+01 -0.83057470216E+00  0.22589497472E+02  0.41800000000E+01 0.  1.
</event>
<event>
11    1  0.8551154E-009  0.1518949E+03  0.7561462E-02  0.1094958E+00
         22   -1    0    0    0    0  0.00000000000E+00  0.00000000000E+00  0.16932937645E+03  0.16932937645E+03  0.00000000000E+00 0. -1.
         22   -1    0    0    0    0 -0.00000000000E+00 -0.00000000000E+00 -0.62657229646E+03  0.62657229646E+03  0.00000000000E+00 0.  1.
        -24    2    1    2    0    0 -0.17775510358E+01 -0.84906743756E+02 -0.44809276021E+03  0.46475934522E+03  0.89452850131E+02 0.  0.
         25    2    1    2    0    0  0.63576027179E+02  0.88310510661E+02 -0.10316617678E+03  0.19527292411E+03  0.12509035667E+03 0.  0.
         24    2    1    2    0    0 -0.61798476143E+02 -0.34037669058E+01  0.94016016978E+02  0.13586940358E+03  0.76097609024E+02 0.  0.
        -11    1    5    5    0    0 -0.17262970163E+02  0.34288604264E+02  0.26558160102E+02  0.46680342643E+02  0.00000000000E+00 0.  1.
         12    1    5    5    0    0 -0.44535505980E+02 -0.37692371170E+02  0.67457856876E+02  0.89189060941E+02  0.00000000000E+00 0. -1.
         11    1    3    3    0    0  0.54382591952E+01 -0.28887091791E+02 -0.27055688154E+02  0.39950581931E+02  0.00000000000E+00 0. -1.
        -12    1    3    3    0    0 -0.72158102310E+01 -0.56019651965E+02 -0.42103707205E+03  0.42480876329E+03  0.00000000000E+00 0.  1.
          5    1    4    4  501    0 -0.20274952142E+02  0.76571626311E+02 -0.35952258281E+02  0.87088029693E+02  0.41800000000E+01 0.  1.
         -5    1    4    4    0  501  0.83850979320E+02  0.11738884350E+02 -0.67213918501E+02  0.10818489441E+03  0.41800000000E+01 0.  1.
</event>
<event>
11    1  0.8551154E-009  0.1293717E+03  0.7561462E-02  0.1120043E+00
         22   -1    0    0    0    0  0.00000000000E+00  0.00000000000E+00  0.21830840089E+03  0.21830840089E+03  0.00000000000E+00 0.  1.
         22   -1    0    0    0    0 -0.00000000000E+00 -0.00000000000E+00 -0.16241748844E+04  0.16241748844E+04  0.00000000000E+00 0. -1.
         24    2    1    2    0    0 -0.32439477871E+02  0.88366144271E+01 -0.14933359972E+04  0.14958698527E+04  0.80273345763E+02 0.  0.
         25    2    1    2    0    0  0.18918758809E+02  0.58618613165E+01 -0.86766223842E+02  0.15351986034E+03  0.12509072335E+03 0.  0.
        -24    2    1    2    0    0  0.13520719062E+02 -0.14698475744E+02  0.17423573753E+03  0.19309357231E+03  0.80797155904E+02 0.  0.
        -13    1    3    3    0    0  0.25779322588E+02 -0.69423120910E+01 -0.44631017504E+03  0.44710797523E+03  0.00000000000E+00 0.  1.
         14    1    3    3    0    0 -0.58218800459E+02  0.15778926518E+02 -0.10470258222E+04  0.10487618774E+04  0.00000000000E+00 0. -1.
         13    1    5    5    0    0  0.63704436089E+01  0.36706039849E+01 -0.73764507307E+01  0.10414792882E+02  0.00000000000E+00 0. -1.
        -14    1    5    5    0    0  0.71502754531E+01 -0.18369079729E+02  0.18161218826E+03  0.18267877943E+03  0.00000000000E+00 0.  1.
          5    1    4    4  501    0 -0.12382002231E+02  0.49823188268E+02 -0.30057268770E+00  0.51509482742E+02  0.41800000000E+01 0.  1.
         -5    1    4    4    0  501  0.31300761040E+02 -0.43961326951E+02 -0.86465651155E+02  0.10201037760E+03  0.41800000000E+01 0.  1.
</event>
<event>
11    1  0.8551154E-009  0.1534252E+03  0.7561462E-02  0.1093429E+00
         22   -1    0    0    0    0  0.00000000000E+00  0.00000000000E+00  0.26299514488E+03  0.26299514488E+03  0.00000000000E+00 0. -1.
         22   -1    0    0    0    0 -0.00000000000E+00 -0.00000000000E+00 -0.11336353233E+04  0.11336353233E+04  0.00000000000E+00 0. -1.
         24    2    1    2    0    0  0.30944087357E+02  0.51095174076E+02 -0.93659653895E+03  0.94198472808E+03  0.80956147360E+02 0.  0.
         25    2    1    2    0    0 -0.11643513591E+03 -0.58423621925E+02 -0.13256436041E+03  0.22404892356E+03  0.12511654578E+03 0.  0.
        -24    2    1    2    0    0  0.85491048554E+02  0.73284478488E+01  0.19852072099E+03  0.23059681649E+03  0.80012433933E+02 0.  0.
        -11    1    3    3    0    0 -0.13923514791E+02 -0.52899849199E+01 -0.43369704888E+02  0.45856073825E+02  0.00000000000E+00 0.  1.
         12    1    3    3    0    0  0.44867602148E+02  0.56385158996E+02 -0.89322683407E+03  0.89612865425E+03  0.00000000000E+00 0. -1.
         13    1    5    5    0    0  0.84231677112E+02  0.33780202122E+02  0.15731680662E+03  0.18161678097E+03  0.00000000000E+00 0. -1.
        -14    1    5    5    0    0  0.12593714420E+01 -0.26451754273E+02  0.41203914364E+02  0.48980035520E+02  0.00000000000E+00 0.  1.
          5    1    4    4  501    0 -0.14257252578E+03 -0.58391749983E+02 -0.11456304629E+03  0.19203823980E+03  0.41800000000E+01 0.  1.
         -5    1    4    4    0  501  0.26137389865E+02 -0.31871941995E-01 -0.18001314118E+02  0.32010683760E+02  0.41800000000E+01 0.  1.
</event>
<event>
11    1  0.8551154E-009  0.2508300E+03  0.7561462E-02  0.1023458E+00
         22   -1    0    0    0    0  0.00000000000E+00  0.00000000000E+00  0.11083162607E+04  0.11083162607E+04  0.00000000000E+00 0. -1.
         22   -1    0    0    0    0 -0.00000000000E+00 -0.00000000000E+00 -0.12334362419E+04  0.12334362419E+04  0.00000000000E+00 0. -1.
        -24    2    1    2    0    0  0.13316025853E+03 -0.13760642652E+03 -0.11137088471E+04  0.11329363356E+04  0.80809413747E+02 0.  0.
         25    2    1    2    0    0 -0.11236837793E+03  0.33519816805E+03  0.27872285498E+03  0.46724844984E+03  0.12510083840E+03 0.  0.
         24    2    1    2    0    0 -0.20791880605E+02 -0.19759174153E+03  0.70986601091E+03  0.74156771721E+03  0.80858686256E+02 0.  0.
        -13    1    5    5    0    0  0.59430399077E+01 -0.13707249395E+03  0.35507509755E+03  0.38066062736E+03  0.00000000000E+00 0.  1.
         14    1    5    5    0    0 -0.26734920513E+02 -0.60519247582E+02  0.35479091336E+03  0.36090708985E+03  0.00000000000E+00 0. -1.
         11    1    3    3    0    0  0.12776850450E+02 -0.42053333246E+00 -0.24137610449E+03  0.24171439464E+03  0.00000000000E+00 0. -1.
        -12    1    3    3    0    0  0.12038340808E+03 -0.13718589319E+03 -0.87233274256E+03  0.89122194091E+03  0.00000000000E+00 0.  1.
          5    1    4    4  501    0 -0.13576689862E+03  0.26342420608E+03  0.24467551947E+03  0.38432869440E+03  0.41800000000E+01 0.  1.
         -5    1    4    4    0  501  0.23398520692E+02  0.71773961973E+02  0.34047335513E+02  0.82919755447E+02  0.41800000000E+01 0.  1.
</event>
<event>
11    1  0.8551154E-009  0.1454685E+03  0.7561462E-02  0.1101601E+00
         22   -1    0    0    0    0  0.00000000000E+00  0.00000000000E+00  0.55297687670E+03  0.55297687670E+03  0.00000000000E+00 0.  1.
         22   -1    0    0    0    0 -0.00000000000E+00 -0.00000000000E+00 -0.53041053422E+03  0.53041053422E+03  0.00000000000E+00 0.  1.
         24    2    1    2    0    0 -0.43477847723E+02 -0.28147277702E+02 -0.44529120805E+03  0.45547116960E+03  0.80542745692E+02 0.  0.
         25    2    1    2    0    0  0.25685913107E+02 -0.47588953065E+02 -0.79488356241E+01  0.13651682913E+03  0.12509670683E+03 0.  0.
        -24    2    1    2    0    0  0.17791934616E+02  0.75736230767E+02  0.47580638616E+03  0.49139941220E+03  0.95021763875E+02 0.  0.
        -11    1    3    3    0    0 -0.60988742629E+02 -0.45450637473E+00 -0.24261569260E+03  0.25016436116E+03  0.00000000000E+00 0.  1.
         12    1    3    3    0    0  0.17510894906E+02 -0.27692771327E+02 -0.20267551546E+03  0.20530680844E+03  0.00000000000E+00 0. -1.
         11    1    5    5    0    0  0.16060333251E+01  0.37454475961E+02  0.44898980405E+02  0.58492183700E+02  0.00000000000E+00 0. -1.
        -12    1    5    5    0    0  0.16185901291E+02  0.38281754806E+02  0.43090740575E+03  0.43290722850E+03  0.00000000000E+00 0.  1.
          5    1    4    4  501    0 -0.13785485340E+02  0.37048218298E+02  0.10760221100E+02  0.41180879583E+02  0.41800000000E+01 0.  1.
         -5    1    4    4    0  501  0.39471398447E+02 -0.84637171363E+02 -0.18709056724E+02  0.95335949543E+02  0.41800000000E+01 0.  1.
</event>
<event>
11    1  0.8551154E-009  0.1963492E+03  0.7561462E-02  0.1057136E+00
         22   -1    0    0    0    0  0.00000000000E+00  0.00000000000E+00  0.14215538199E+04  0.14215538199E+04  0.00000000000E+00 0. -1.
         22   -1    0    0    0    0 -0.00000000000E+00 -0.00000000000E+00 -0.28591504737E+03  0.28591504737E+03  0.00000000000E+00 0. -1.
        -24    2    1    2    0    0 -0.71223995085E+02 -0.13175661390E+03 -0.23381887925E+03  0.28970823297E+03  0.82625233291E+02 0.  0.
         25    2    1    2    0    0  0.11710194188E+03  0.14675041668E+03  0.57680463681E+03  0.61935429407E+03  0.12509037912E+03 0.  0.
         24    2    1    2    0    0 -0.45877946797E+02 -0.14993802783E+02  0.79265301497E+03  0.79840634024E+03  0.82609211789E+02 0.  0.
        -13    1    5    5    0    0 -0.13340812079E+02  0.29629397890E+02  0.46480765963E+03  0.46594209827E+03  0.00000000000E+00 0.  1.
         14    1    5    5    0    0 -0.32537134717E+02 -0.44623200672E+02  0.32784535534E+03  0.33246424197E+03  0.00000000000E+00 0. -1.
         13    1    3    3    0    0 -0.57924726993E+02 -0.86363820906E+02 -0.21494876503E+03  0.23878223374E+03  0.00000000000E+00 0. -1.
        -14    1    3    3    0    0 -0.13299268091E+02 -0.45392792993E+02 -0.18870114213E+02  0.50925999233E+02  0.00000000000E+00 0.  1.
          5    1    4    4  501    0  0.73537807667E+02  0.19995714572E+02  0.11155648773E+03  0.13516641636E+03  0.41800000000E+01 0. -1.
         -5    1    4    4    0  501  0.43564134214E+02  0.12675470211E+03  0.46524814908E+03  0.48418787771E+03  0.41800000000E+01 0. -1.
</event>
<event>
11    1  0.8551154E-009  0.1325502E+03  0.7561462E-02  0.1116175E+00
         22   -1    0    0    0    0  0.00000000000E+00  0.00000000000E+00  0.64825917971E+03  0.64825917971E+03  0.00000000000E+00 0.  1.
         22   -1    0    0    0    0 -0.00000000000E+00 -0.00000000000E+00 -0.48751437480E+03  0.48751437480E+03  0.00000000000E+00 0. -1.
         24    2    1    2    0    0 -0.48498522263E+02  0.21697085836E+02 -0.34901938144E+03  0.36200384524E+03  0.80058635720E+02 0.  0.
         25    2    1    2    0    0 -0.21875867486E+01 -0.50712385670E+01 -0.97704497848E+02  0.15882037593E+03  0.12508892803E+03 0.  0.
        -24    2    1    2    0    0  0.50686109012E+02 -0.16625847269E+02  0.60746868420E+03  0.61494933333E+03  0.79366112681E+02 0.  0.
        -13    1    3    3    0    0  0.18012178295E+01 -0.26383918264E+02 -0.90690750358E+02  0.94467813191E+02  0.00000000000E+00 0.  1.
         14    1    3    3    0    0 -0.50299740093E+02  0.48081004099E+02 -0.25832863108E+03  0.26753603205E+03  0.00000000000E+00 0. -1.
         11    1    5    5    0    0  0.14779206500E+02 -0.41288551803E+02  0.17992594438E+03  0.18519318270E+03  0.00000000000E+00 0. -1.
        -12    1    5    5    0    0  0.35906902511E+02  0.24662704534E+02  0.42754273981E+03  0.42975615063E+03  0.00000000000E+00 0.  1.
          5    1    4    4  501    0 -0.68733161921E+01 -0.53952040290E+02 -0.94897437402E+02  0.10945803375E+03  0.41800000000E+01 0. -1.
         -5    1    4    4    0  501  0.46857294435E+01  0.48880801723E+02 -0.28070604462E+01  0.49362342183E+02  0.41800000000E+01 0. -1.
</event>
<event>
11    1  0.8551154E-009  0.1633963E+03  0.7561462E-02  0.1083926E+00
         22   -1    0    0    0    0  0.00000000000E+00  0.00000000000E+00  0.67111899577E+03  0.67111899577E+03  0.00000000000E+00 0.  1.
         22   -1    0    0    0    0 -0.00000000000E+00 -0.00000000000E+00 -0.10071880454E+04  0.10071880454E+04  0.00000000000E+00 0.  1.
         24    2    1    2    0    0 -0.37094279930E+01 -0.27210386790E+01 -0.89878773404E+03  0.90229834277E+03  0.79383528467E+02 0.  0.
         25    2    1    2    0    0  0.53757950576E+02  0.94871043802E+02 -0.30140704012E+02  0.16864553027E+03  0.12506966315E+03 0.  0.
        -24    2    1    2    0    0 -0.50048522583E+02 -0.92150005123E+02  0.59285938846E+03  0.60736316809E+03  0.80070502738E+02 0.  0.
        -13    1    3    3    0    0 -0.17449397758E+02 -0.24131377482E+02 -0.79056741396E+03  0.79112808121E+03  0.00000000000E+00 0.  1.
         14    1    3    3    0    0  0.13739969765E+02  0.21410338803E+02 -0.10822032009E+03  0.11117026157E+03  0.00000000000E+00 0. -1.
         13    1    5    5    0    0 -0.21454352269E+01 -0.44224287580E+02  0.93802636460E+02  0.10372716670E+03  0.00000000000E+00 0. -1.
        -14    1    5    5    0    0 -0.47903087356E+02 -0.47925717543E+02  0.49905675200E+03  0.50363600139E+03  0.00000000000E+00 0.  1.
          5    1    4    4  501    0  0.27157586441E+02  0.91478151316E+02  0.32083549537E+02  0.10076017676E+03  0.41800000000E+01 0.  1.
         -5    1    4    4    0  501  0.26600364135E+02  0.33928924861E+01 -0.62224253550E+02  0.67885353511E+02  0.41800000000E+01 0.  1.
</event>
<event>
11    1  0.8551154E-009  0.1357659E+03  0.7561462E-02  0.1112381E+00
         22   -1    0    0    0    0  0.00000000000E+00  0.00000000000E+00  0.26517701686E+03  0.26517701686E+03  0.00000000000E+00 0.  1.
         22   -1    0    0    0    0 -0.00000000000E+00 -0.00000000000E+00 -0.15864572154E+04  0.15864572154E+04  0.00000000000E+00 0.  1.
        -24    2    1    2    0    0  0.83815416354E+01  0.41733405926E+02 -0.11134003941E+04  0.11172450605E+04  0.82244515132E+02 0.  0.
         25    2    1    2    0    0  0.44497609789E+02 -0.40840304755E+02 -0.45177701391E+03  0.47265565455E+03  0.12511166895E+03 0.  0.
         24    2    1    2    0    0 -0.52879151424E+02 -0.89310117097E+00  0.24389720946E+03  0.26173351720E+03  0.78877011596E+02 0.  0.
        -11    1    5    5    0    0 -0.57678892180E+02 -0.29124861182E+02  0.19022316057E+03  0.20089789187E+03  0.00000000000E+00 0.  1.
         12    1    5    5    0    0  0.47997407551E+01  0.28231760011E+02  0.53674048891E+02  0.60835625328E+02  0.00000000000E+00 0. -1.
         11    1    3    3    0    0 -0.31805327296E+02  0.19217081334E+02 -0.26472352726E+03  0.26731894984E+03  0.00000000000E+00 0. -1.
        -12    1    3    3    0    0  0.40186868931E+02  0.22516324592E+02 -0.84867686686E+03  0.84992611070E+03  0.00000000000E+00 0.  1.
          5    1    4    4  501    0  0.12034415804E+02 -0.83887825057E+02 -0.27566183389E+03  0.28842488349E+03  0.41800000000E+01 0. -1.
         -5    1    4    4    0  501  0.32463193985E+02  0.43047520303E+02 -0.17611518002E+03  0.18423077105E+03  0.41800000000E+01 0. -1.
</event>
<event>
11    1  0.8551154E-009  0.1377916E+03  0.7561462E-02  0.1110050E+00
         22   -1    0    0    0    0  0.00000000000E+00  0.00000000000E+00  0.99634177303E+03  0.99634177303E+03  0.00000000000E+00 0.  1.
         22   -1    0    0    0    0 -0.00000000000E+00 -0.00000000000E+00 -0.83488797042E+02  0.83488797042E+02  0.00000000000E+00 0.  1.
        -24    2    1    2    0    0 -0.21175688010E+02 -0.49425202368E+02 -0.26085257731E+02  0.99979289522E+02  0.80150840736E+02 0.  0.
         25    2    1    2    0    0  0.52367834720E+02  0.86372136003E+02  0.37342799367E+03  0.40656903050E+03  0.12508946442E+03 0.  0.
         24    2    1    2    0    0 -0.31192146710E+02 -0.36946933635E+02  0.56551024004E+03  0.57328225005E+03  0.80701181575E+02 0.  0.
        -13    1    5    5    0    0 -0.31095242221E+02 -0.42659766568E+02  0.17639025356E+03  0.18412031752E+03  0.00000000000E+00 0.  1.
         14    1    5    5    0    0 -0.96904489555E-01  0.57128329332E+01  0.38911998648E+03  0.38916193253E+03  0.00000000000E+00 0. -1.
         11    1    3    3    0    0 -0.33048572880E+02 -0.45833967967E+02  0.13835826453E+02  0.58175517897E+02  0.00000000000E+00 0. -1.
        -12    1    3    3    0    0  0.11872884869E+02 -0.35912344013E+01 -0.39921084184E+02  0.41803771625E+02  0.00000000000E+00 0.  1.
          5    1    4    4  501    0  0.85328431474E+02  0.79931364589E+02  0.33754050889E+03  0.35724085966E+03  0.41800000000E+01 0. -1.
         -5    1    4    4    0  501 -0.32960596754E+02  0.64407714144E+01  0.35887484780E+02  0.49328170842E+02  0.41800000000E+01 0. -1.
</event>
<event>
11    1  0.8551154E-009  0.1318190E+03  0.7561462E-02  0.1117054E+00
         22   -1    0    0    0    0  0.00000000000E+00  0.00000000000E+00  0.51473337534E+03  0.51473337534E+03  0.00000000000E+00 0.  1.
         22   -1    0    0    0    0 -0.00000000000E+00 -0.00000000000E+00 -0.46457985406E+03  0.46457985406E+03  0.00000000000E+00 0.  1.
        -24    2    1    2    0    0 -0.26206499289E+02 -0.11898850785E+02 -0.38538703793E+03  0.39462156621E+03  0.79841394427E+02 0.  0.
         25    2    1    2    0    0  0.66080553698E+02  0.11864125333E+02  0.24436765822E+01  0.14199206791E+03  0.12509348003E+03 0.  0.
         24    2    1    2    0    0 -0.39874054409E+02  0.34725452014E-01  0.43309688262E+03  0.44269959529E+03  0.82583778727E+02 0.  0.
        -11    1    5    5    0    0 -0.63805181556E+02  0.10431046732E+02  0.27763154228E+03  0.28505996070E+03  0.00000000000E+00 0.  1.
         12    1    5    5    0    0  0.23931127147E+02 -0.10396321280E+02  0.15546534035E+03  0.15763963458E+03  0.00000000000E+00 0. -1.
         11    1    3    3    0    0 -0.14535589255E+02 -0.14616143302E+01 -0.75208864460E+01  0.16431171729E+02  0.00000000000E+00 0. -1.
        -12    1    3    3    0    0 -0.11670910034E+02 -0.10437236455E+02 -0.37786615148E+03  0.37819039448E+03  0.00000000000E+00 0.  1.
          5    1    4    4  501    0  0.74572775087E+02 -0.24335582365E+02 -0.37684676404E+02  0.87125923748E+02  0.41800000000E+01 0. -1.
         -5    1    4    4    0  501 -0.84922213885E+01  0.36199707698E+02  0.40128352986E+02  0.54866144160E+02  0.41800000000E+01 0. -1.
</event>
<event>
11    1  0.8551154E-009  0.2219216E+03  0.7561462E-02  0.1040020E+00
         22   -1    0    0    0    0  0.00000000000E+00  0.00000000000E+00  0.20764907637E+03  0.20764907637E+03  0.00000000000E+00 0.  1.
         22   -1    0    0    0    0 -0.00000000000E+00 -0.00000000000E+00 -0.72106005039E+03  0.72106005039E+03  0.00000000000E+00 0. -1.
         24    2    1    2    0    0  0.13989869930E+03 -0.11518168537E+03 -0.54917987738E+03  0.58387021943E+03  0.80420325267E+02 0.  0.
         25    2    1    2    0    0 -0.16289805754E+03  0.10942743606E+03 -0.33690989140E+02  0.23514511159E+03  0.12509196552E+03 0.  0.
        -24    2    1    2    0    0  0.22999358245E+02  0.57542493034E+01  0.69459892497E+02  0.10969379575E+03  0.81522820698E+02 0.  0.
        -11    1    3    3    0    0 -0.69629533696E+01 -0.16007235686E+02 -0.90080431487E+02  0.91756190258E+02  0.00000000000E+00 0.  1.
         12    1    3    3    0    0  0.14686165267E+03 -0.99174449683E+02 -0.45909944589E+03  0.49211402917E+03  0.00000000000E+00 0. -1.
         11    1    5    5    0    0 -0.60677093506E+01  0.51756593869E+01 -0.16837511122E+02  0.18630789775E+02  0.00000000000E+00 0. -1.
        -12    1    5    5    0    0  0.29067067596E+02  0.57858991648E+00  0.86297403619E+02  0.91063005970E+02  0.00000000000E+00 0.  1.
          5    1    4    4  501    0 -0.11390651253E+03  0.10398949329E+03  0.27221798168E+02  0.15667484485E+03  0.41800000000E+01 0.  1.
         -5    1    4    4    0  501 -0.48991545016E+02  0.54379427705E+01 -0.60912787308E+02  0.78470266740E+02  0.41800000000E+01 0.  1.
</event>
<event>
11    1  0.8551154E-009  0.1275911E+03  0.7561462E-02  0.1122265E+00
         22   -1    0    0    0    0  0.00000000000E+00  0.00000000000E+00  0.93310925578E+03  0.93310925578E+03  0.00000000000E+00 0.  1.
         22   -1    0    0    0    0 -0.00000000000E+00 -0.00000000000E+00 -0.27072068332E+03  0.27072068332E+03  0.00000000000E+00 0. -1.
        -24    2    1    2    0    0 -0.51330609357E+01  0.62325674870E+01 -0.24220786117E+03  0.25392160512E+03  0.75804619395E+02 0.  0.
         25    2    1    2    0    0 -0.17317142059E+02 -0.17908591221E+02  0.18131113055E+03  0.22167987003E+03  0.12509051789E+03 0.  0.
         24    2    1    2    0    0  0.22450202995E+02  0.11676023734E+02  0.72328530308E+03  0.72822846395E+03  0.80837645353E+02 0.  0.
        -11    1    5    5    0    0 -0.12097422052E+02  0.31106301378E+01  0.59404709707E+03  0.59417840517E+03  0.00000000000E+00 0.  1.
         12    1    5    5    0    0  0.34547625047E+02  0.85653935958E+01  0.12923820602E+03  0.13405005878E+03  0.00000000000E+00 0. -1.
         13    1    3    3    0    0 -0.30001420406E+02  0.34182095783E+00 -0.21303609954E+03  0.21513851764E+03  0.00000000000E+00 0. -1.
        -14    1    3    3    0    0  0.24868359470E+02  0.58907465292E+01 -0.29171761636E+02  0.38783087478E+02  0.00000000000E+00 0.  1.
          5    1    4    4  501    0  0.36729939337E+02 -0.16063532623E+02  0.15726632993E+03  0.16234930383E+03  0.41800000000E+01 0. -1.
         -5    1    4    4    0  501 -0.54047081396E+02 -0.18450585977E+01  0.24044800618E+02  0.59330566198E+02  0.41800000000E+01 0. -1.
</event>
<event>
11    1  0.8551154E-009  0.1342572E+03  0.7561462E-02  0.1114146E+00
         22   -1    0    0    0    0  0.00000000000E+00  0.00000000000E+00  0.98587173810E+03  0.98587173810E+03  0.00000000000E+00 0.  1.
         22   -1    0    0    0    0 -0.00000000000E+00 -0.00000000000E+00 -0.22409428850E+04  0.22409428850E+04  0.00000000000E+00 0.  1.
        -24    2    1    2    0    0  0.41650432207E+02  0.31202995669E+01 -0.20098552291E+04  0.20118863143E+04  0.80149891462E+02 0.  0.
         25    2    1    2    0    0  0.13400304231E+01  0.20715507593E+02 -0.21016567975E+03  0.24545007582E+03  0.12508076926E+03 0.  0.
         24    2    1    2    0    0 -0.42990462630E+02 -0.23835807160E+02  0.96494976190E+03  0.96947823299E+03  0.79647194917E+02 0.  0.
        -11    1    5    5    0    0 -0.54793708003E+02 -0.42168605197E+02  0.81838319096E+03  0.82129872089E+03  0.00000000000E+00 0.  1.
         12    1    5    5    0    0  0.11803245373E+02  0.18332798036E+02  0.14656657095E+03  0.14817951209E+03  0.00000000000E+00 0. -1.
         11    1    3    3    0    0  0.10695822419E+02  0.40247913157E+02 -0.10246294073E+04  0.10254753617E+04  0.00000000000E+00 0. -1.
        -12    1    3    3    0    0  0.30954609788E+02 -0.37127613590E+02 -0.98522582179E+03  0.98641095263E+03  0.00000000000E+00 0.  1.
          5    1    4    4  501    0 -0.30543502867E+02 -0.20827835763E+02 -0.10028009883E+02  0.38532294146E+02  0.41800000000E+01 0.  1.
         -5    1    4    4    0  501  0.31883533290E+02  0.41543343357E+02 -0.20013766987E+03  0.20691778167E+03  0.41800000000E+01 0.  1.
</event>
<event>
11    1  0.8551154E-009  0.1381414E+03  0.7561462E-02  0.1109652E+00
         22   -1    0    0    0    0  0.00000000000E+00  0.00000000000E+00  0.11078804347E+04  0.11078804347E+04  0.00000000000E+00 0.  1.
         22   -1    0    0    0    0 -0.00000000000E+00 -0.00000000000E+00 -0.13425777550E+04  0.13425777550E+04  0.00000000000E+00 0.  1.
        -24    2    1    2    0    0 -0.24018261119E+02 -0.66770201699E+01 -0.12529271558E+04  0.12557500270E+04  0.80375450311E+02 0.  0.
         25    2    1    2    0    0  0.13420282934E+02 -0.51318314279E+02 -0.31408590177E+02  0.13945488474E+03  0.12508993551E+03 0.  0.
         24    2    1    2    0    0  0.10597978185E+02  0.57995334449E+02  0.10496384256E+04  0.10552532780E+04  0.91339368731E+02 0.  0.
        -13    1    5    5    0    0 -0.61612522765E+01  0.80437912682E+02  0.76806074499E+03  0.77228591002E+03  0.00000000000E+00 0.  1.
         14    1    5    5    0    0  0.16759230462E+02 -0.22442578233E+02  0.28157768060E+03  0.28296736797E+03  0.00000000000E+00 0. -1.
         13    1    3    3    0    0 -0.19649339837E+02  0.17286195543E+02 -0.13259133142E+03  0.13514943685E+03  0.00000000000E+00 0. -1.
        -14    1    3    3    0    0 -0.43689212821E+01 -0.23963215713E+02 -0.11203358244E+04  0.11206005901E+04  0.00000000000E+00 0.  1.
          5    1    4    4  501    0  0.57328877462E+02  0.11444916526E+02 -0.74034627326E+01  0.59075121378E+02  0.41800000000E+01 0. -1.
         -5    1    4    4    0  501 -0.43908594529E+02 -0.62763230805E+02 -0.24005127445E+02  0.80379763362E+02  0.41800000000E+01 0. -1.
</event>
<event>
11    1  0.8551154E-009  0.1802118E+03  0.7561462E-02  0.1069472E+00
         22   -1    0    0    0    0  0.00000000000E+00  0.00000000000E+00  0.26939566851E+04  0.26939566851E+04  0.00000000000E+00 0. -1.
         22   -1    0    0    0    0 -0.00000000000E+00 -0.00000000000E+00 -0.59350715214E+03  0.59350715214E+03  0.00000000000E+00 0.  1.
        -24    2    1    2    0    0 -0.14954555736E+02 -0.12853444310E+03 -0.57243574158E+03  0.59232715313E+03  0.80150086087E+02 0.  0.
         25    2    1    2    0    0  0.66437628933E+02  0.16120583799E+03  0.12169011918E+04  0.12356784165E+04  0.12510538695E+03 0.  0.
         24    2    1    2    0    0 -0.51483073198E+02 -0.32671394889E+02  0.14559840828E+04  0.14594582676E+04  0.80067837667E+02 0.  0.
        -13    1    5    5    0    0 -0.13629101484E+02 -0.13087016750E+02  0.61825848000E+02  0.64648726945E+02  0.00000000000E+00 0.  1.
         14    1    5    5    0    0 -0.37853971714E+02 -0.19584378139E+02  0.13941582348E+04  0.13948095406E+04  0.00000000000E+00 0. -1.
         11    1    3    3    0    0 -0.20362438658E+02 -0.23391223571E+02 -0.27626388716E+03  0.27799912517E+03  0.00000000000E+00 0. -1.
        -12    1    3    3    0    0  0.54078829225E+01 -0.10514321953E+03 -0.29617185442E+03  0.31432802796E+03  0.00000000000E+00 0.  1.
          5    1    4    4  501    0  0.13739437779E+02  0.61349825990E+02  0.14842820313E+03  0.16124818506E+03  0.41800000000E+01 0.  1.
         -5    1    4    4    0  501  0.52698191155E+02  0.99856011997E+02  0.10684729886E+04  0.10744302315E+04  0.41800000000E+01 0.  1.
</event>
<event>
11    1  0.8551154E-009  0.1445053E+03  0.7561462E-02  0.1102629E+00
         22   -1    0    0    0    0  0.00000000000E+00  0.00000000000E+00  0.33354236232E+03  0.33354236232E+03  0.00000000000E+00 0. -1.
         22   -1    0    0    0    0 -0.00000000000E+00 -0.00000000000E+00 -0.10244093923E+04  0.10244093923E+04  0.00000000000E+00 0.  1.
        -24    2    1    2    0    0  0.71836726730E+02 -0.13453064991E+01 -0.97128315326E+03  0.97727836396E+03  0.80744731686E+02 0.  0.
         25    2    1    2    0    0 -0.98755966158E+02 -0.20392380284E+01  0.11665826440E+03  0.19751704938E+03  0.12508770843E+03 0.  0.
         24    2    1    2    0    0  0.26919239428E+02  0.33845445275E+01  0.16375785890E+03  0.18315634126E+03  0.77417752490E+02 0.  0.
        -11    1    5    5    0    0  0.51059117285E+02 -0.10030487423E+02  0.84627106608E+02  0.99344810175E+02  0.00000000000E+00 0.  1.
         12    1    5    5    0    0 -0.24139877857E+02  0.13415031951E+02  0.79130752292E+02  0.83811531089E+02  0.00000000000E+00 0. -1.
         13    1    3    3    0    0  0.79697195492E+01 -0.33478991574E+02 -0.23079300444E+03  0.23334474540E+03  0.00000000000E+00 0. -1.
        -14    1    3    3    0    0  0.63867007181E+02  0.32133685075E+02 -0.74049014882E+03  0.74393361856E+03  0.00000000000E+00 0.  1.
          5    1    4    4  501    0 -0.96377096145E+02  0.47928165015E+02  0.66706234565E+02  0.12669983344E+03  0.41800000000E+01 0.  1.
         -5    1    4    4    0  501 -0.23788700132E+01 -0.49967403043E+02  0.49952029835E+02  0.70817215944E+02  0.41800000000E+01 0.  1.
</event>
<event>
11    1  0.8551154E-009  0.1572315E+03  0.7561462E-02  0.1089710E+00
         22   -1    0    0    0    0  0.00000000000E+00  0.00000000000E+00  0.50001688041E+03  0.50001688041E+03  0.00000000000E+00 0. -1.
         22   -1    0    0    0    0 -0.00000000000E+00 -0.00000000000E+00 -0.90271087808E+03  0.90271087808E+03  0.00000000000E+00 0.  1.
         24    2    1    2    0    0 -0.41603788313E+02  0.69868654093E+02 -0.42571571492E+03  0.44100311803E+03  0.81470093616E+02 0.  0.
         25    2    1    2    0    0  0.15123060706E+02 -0.13529783962E+03 -0.44491559512E+03  0.48180098447E+03  0.12509232382E+03 0.  0.
        -24    2    1    2    0    0  0.26480727607E+02  0.65429185528E+02  0.46793731238E+03  0.47992365600E+03  0.79869769094E+02 0.  0.
        -11    1    3    3    0    0 -0.40024921710E+02  0.87450600657E+02 -0.33246259650E+03  0.34609388897E+03  0.00000000000E+00 0.  1.
         12    1    3    3    0    0 -0.15788666037E+01 -0.17581946564E+02 -0.93253118423E+02  0.94909229058E+02  0.00000000000E+00 0. -1.
         11    1    5    5    0    0  0.26662881511E+02  0.33405701592E+02  0.42063272885E+03  0.42279870238E+03  0.00000000000E+00 0. -1.
        -12    1    5    5    0    0 -0.18215390408E+00  0.32023483937E+02  0.47304583527E+02  0.57124953620E+02  0.00000000000E+00 0.  1.
          5    1    4    4  501    0  0.16164106913E+02  0.11492719156E+02 -0.15987275243E+03  0.16115250639E+03  0.41800000000E+01 0. -1.
         -5    1    4    4    0  501 -0.10410462069E+01 -0.14679055878E+03 -0.28504284269E+03  0.32064847808E+03  0.41800000000E+01 0. -1.
</event>
<event>
11    1  0.8551154E-009  0.1644560E+03  0.7561462E-02  0.1082960E+00
         22   -1    0    0    0    0  0.00000000000E+00  0.00000000000E+00  0.19647649881E+04  0.19647649881E+04  0.00000000000E+00 0.  1.
         22   -1    0    0    0    0 -0.00000000000E+00 -0.00000000000E+00 -0.11098978428E+04  0.11098978428E+04  0.00000000000E+00 0.  1.
         24    2    1    2    0    0 -0.41005678344E+02 -0.10015727423E+03 -0.98805284490E+03  0.99723679394E+03  0.80745610733E+02 0.  0.
         25    2    1    2    0    0  0.13262192711E+02  0.91734972183E+02 -0.64151145890E+02  0.16838856264E+03  0.12509255627E+03 0.  0.
        -24    2    1    2    0    0  0.27743485633E+02  0.84223020470E+01  0.19070711360E+04  0.19090374743E+04  0.81627962833E+02 0.  0.
        -13    1    3    3    0    0 -0.49676753345E+02 -0.39878724833E+02 -0.69558138613E+03  0.69849234588E+03  0.00000000000E+00 0.  1.
         14    1    3    3    0    0  0.86710750010E+01 -0.60278549397E+02 -0.29247145876E+03  0.29874444807E+03  0.00000000000E+00 0. -1.
         13    1    5    5    0    0  0.46812302144E+02  0.36506591956E+01  0.60547677352E+03  0.60729469141E+03  0.00000000000E+00 0. -1.
        -14    1    5    5    0    0 -0.19068816511E+02  0.47716428514E+01  0.13015943625E+04  0.13017427829E+04  0.00000000000E+00 0.  1.
          5    1    4    4  501    0 -0.45519612535E+02  0.72072297137E+02 -0.99135969331E+01  0.85919747114E+02  0.41800000000E+01 0. -1.
         -5    1    4    4    0  501  0.58781805246E+02  0.19662675046E+02 -0.54237548957E+02  0.82468815529E+02  0.41800000000E+01 0. -1.
</event>
<event>
11    1  0.8551154E-009  0.2336563E+03  0.7561462E-02  0.1032985E+00
         22   -1    0    0    0    0  0.00000000000E+00  0.00000000000E+00  0.88386439256E+03  0.88386439256E+03  0.00000000000E+00 0. -1.
         22   -1    0    0    0    0 -0.00000000000E+00 -0.00000000000E+00 -0.52517727672E+03  0.52517727672E+03  0.00000000000E+00 0. -1.
         24    2    1    2    0    0 -0.83975064821E+02 -0.19029637311E+03 -0.39416537540E+03  0.45302579089E+03  0.81249633340E+02 0.  0.
         25    2    1    2    0    0  0.75680895862E+02  0.14089883670E+03  0.58065602399E+01  0.20312982699E+03  0.12509168753E+03 0.  0.
        -24    2    1    2    0    0  0.82941689587E+01  0.49397536414E+02  0.74704593100E+03  0.75288605139E+03  0.79062465880E+02 0.  0.
        -13    1    3    3    0    0  0.96552561020E+01 -0.46074735092E+02 -0.12558669336E+03  0.13411980739E+03  0.00000000000E+00 0.  1.
         14    1    3    3    0    0 -0.93630320923E+02 -0.14422163802E+03 -0.26857868204E+03  0.31890598350E+03  0.00000000000E+00 0. -1.
         11    1    5    5    0    0  0.35075138736E+02  0.18193990384E+02  0.55909373339E+03  0.56048825979E+03  0.00000000000E+00 0. -1.
        -12    1    5    5    0    0 -0.26780969777E+02  0.31203546031E+02  0.18795219761E+03  0.19239779161E+03  0.00000000000E+00 0.  1.
          5    1    4    4  501    0  0.89011753943E+02  0.14088823219E+03  0.35385298114E+02  0.17041765763E+03  0.41800000000E+01 0.  1.
         -5    1    4    4    0  501 -0.13330858081E+02  0.10604504217E-01 -0.29578737875E+02  0.32712169355E+02  0.41800000000E+01 0.  1.
</event>
<event>
11    1  0.8551154E-009  0.1382928E+03  0.7561462E-02  0.1109480E+00
         22   -1    0    0    0    0  0.00000000000E+00  0.00000000000E+00  0.21989910582E+03  0.21989910582E+03  0.00000000000E+00 0. -1.
         22   -1    0    0    0    0 -0.00000000000E+00 -0.00000000000E+00 -0.82584102303E+03  0.82584102303E+03  0.00000000000E+00 0.  1.
        -24    2    1    2    0    0 -0.23083790882E+02 -0.17918434218E+02 -0.71781495439E+03  0.72298711898E+03  0.81228897472E+02 0.  0.
         25    2    1    2    0    0  0.16363488619E+02 -0.43544277280E+02 -0.40853414451E+02  0.13957096375E+03  0.12508870695E+03 0.  0.
         24    2    1    2    0    0  0.67203022635E+01  0.61462711498E+02  0.15272645162E+03  0.18318204612E+03  0.80046646574E+02 0.  0.
        -13    1    5    5    0    0 -0.13213956475E+02 -0.30599960456E+01 -0.25995493170E+01  0.13810498839E+02  0.00000000000E+00 0.  1.
         14    1    5    5    0    0  0.19934258738E+02  0.64522707544E+02  0.15532600094E+03  0.16937154728E+03  0.00000000000E+00 0. -1.
         11    1    3    3    0    0  0.24261508159E+02  0.12399324600E+02 -0.15552976569E+03  0.15789829652E+03  0.00000000000E+00 0. -1.
        -12    1    3    3    0    0 -0.47345299041E+02 -0.30317758818E+02 -0.56228518870E+03  0.56508882246E+03  0.00000000000E+00 0.  1.
          5    1    4    4  501    0  0.71320424046E+01 -0.79757453113E+02  0.49154040005E+01  0.80335241037E+02  0.41800000000E+01 0.  1.
         -5    1    4    4    0  501  0.92314462141E+01  0.36213175833E+02 -0.45768818451E+02  0.59235722715E+02  0.41800000000E+01 0.  1.
</event>
<event>
11    1  0.8551154E-009  0.1569645E+03  0.7561462E-02  0.1089968E+00
         22   -1    0    0    0    0  0.00000000000E+00  0.00000000000E+00  0.44819897457E+03  0.44819897457E+03  0.00000000000E+00 0. -1.
         22   -1    0    0    0    0 -0.00000000000E+00 -0.00000000000E+00 -0.96259994512E+03  0.96259994512E+03  0.00000000000E+00 0. -1.
         24    2    1    2    0    0  0.37257554289E+01 -0.41776836608E+01 -0.49150124163E+03  0.49847755958E+03  0.82916057451E+02 0.  0.
         25    2    1    2    0    0  0.60663141856E+02 -0.65570785496E+02 -0.44586173296E+03  0.47161366401E+03  0.12508884234E+03 0.  0.
        -24    2    1    2    0    0 -0.64388897285E+02  0.69748469157E+02  0.42296200404E+03  0.44070769610E+03  0.79470985249E+02 0.  0.
        -13    1    3    3    0    0 -0.10184388465E+02 -0.22718647850E+02 -0.45194662620E+03  0.45263187212E+03  0.00000000000E+00 0.  1.
         14    1    3    3    0    0  0.13910143894E+02  0.18540964189E+02 -0.39554615432E+02  0.45845687455E+02  0.00000000000E+00 0. -1.
         11    1    5    5    0    0 -0.55484744234E+02  0.21098439611E+01  0.19620523673E+03  0.20391052745E+03  0.00000000000E+00 0. -1.
        -12    1    5    5    0    0 -0.89041530509E+01  0.67638625196E+02  0.22675676731E+03  0.23679716865E+03  0.00000000000E+00 0.  1.
          5    1    4    4  501    0 -0.33561648446E+02  0.32693212555E+01 -0.14399926502E+03  0.14795382197E+03  0.41800000000E+01 0.  1.
         -5    1    4    4    0  501  0.94224790303E+02 -0.68840106752E+02 -0.30186246793E+03  0.32365984204E+03  0.41800000000E+01 0.  1.
</event>
<event>
11    1  0.8551154E-009  0.2110791E+03  0.7561462E-02  0.1046954E+00
         22   -1    0    0    0    0  0.00000000000E+00  0.00000000000E+00  0.75788824057E+03  0.75788824057E+03  0.00000000000E+00 0.  1.
         22   -1    0    0    0    0 -0.00000000000E+00 -0.00000000000E+00 -0.32453369310E+03  0.32453369310E+03  0.00000000000E+00 0.  1.
        -24    2    1    2    0    0  0.15851211889E+03 -0.50707400755E+02 -0.20736709906E+03  0.27785580433E+03  0.80656071692E+02 0.  0.
         25    2    1    2    0    0 -0.17750474968E+03  0.56520067700E+02  0.80579244328E+02  0.23841816550E+03  0.12509097813E+03 0.  0.
         24    2    1    2    0    0  0.18992630793E+02 -0.58126669453E+01  0.56014240220E+03  0.56614796384E+03  0.79809141692E+02 0.  0.
        -11    1    5    5    0    0  0.75610859208E+01  0.12348850666E+02  0.52338123209E+03  0.52358149149E+03  0.00000000000E+00 0.  1.
         12    1    5    5    0    0  0.11431544873E+02 -0.18161517611E+02  0.36761170115E+02  0.42566472350E+02  0.00000000000E+00 0. -1.
         13    1    3    3    0    0  0.26058011430E+02  0.16642336819E+02 -0.13873646942E+02  0.33889016125E+02  0.00000000000E+00 0. -1.
        -14    1    3    3    0    0  0.13245410746E+03 -0.67349737573E+02 -0.19349345212E+03  0.24396678820E+03  0.00000000000E+00 0.  1.
          5    1    4    4  501    0 -0.18441502939E+03  0.32799791505E+02  0.41342721199E+02  0.19186303027E+03  0.41800000000E+01 0.  1.
         -5    1    4    4    0  501  0.69102797092E+01  0.23720276195E+02  0.39236523129E+02  0.46555135223E+02  0.41800000000E+01 0.  1.
</event>
<event>
11    1  0.1207584E-008  0.1609981E+03  0.7561462E-02  0.1086142E+00
         22   -1    0    0    0    0  0.00000000000E+00  0.00000000000E+00  0.97980059970E+03  0.97980059970E+03  0.00000000000E+00 0. -1.
         22   -1    0    0    0    0 -0.00000000000E+00 -0.00000000000E+00 -0.72604949370E+03  0.72604949370E+03  0.00000000000E+00 0.  1.
        -24    2    1    2    0    0 -0.34870345563E+02  0.29773135192E+02 -0.47364495537E+03  0.48261562295E+03  0.80473071178E+02 0.  0.
         25    2    1    2    0    0  0.13528972061E+03 -0.37234561912E+02 -0.20722277256E+03  0.27978261389E+03  0.12508921803E+03 0.  0.
         24    2    1    2    0    0 -0.10041937504E+03  0.74614267202E+01  0.93461883393E+03  0.94345185657E+03  0.80307640597E+02 0.  0.
        -13    1    5    5    0    0  0.13791945479E+02 -0.29546151722E+01  0.10574337396E+03  0.10667993554E+03  0.00000000000E+00 0.  1.
         14    1    5    5    0    0 -0.11421132052E+03  0.10416041892E+02  0.82887545997E+03  0.83677192102E+03  0.00000000000E+00 0. -1.
         13    1    3    3    0    0  0.19749948019E+02 -0.15025875572E+00 -0.40979128344E+02  0.45490350452E+02  0.00000000000E+00 0. -1.
        -14    1    3    3    0    0 -0.54620293581E+02  0.29923393948E+02 -0.43266582703E+03  0.43712527250E+03  0.00000000000E+00 0.  1.
          5    1    4    4  501    0  0.78472805829E+02 -0.50212456374E+02 -0.20029830258E+03  0.22094378119E+03  0.41800000000E+01 0.  1.
         -5    1    4    4    0  501  0.56816914776E+02  0.12977894462E+02 -0.69244699808E+01  0.58838832703E+02  0.41800000000E+01 0.  1.
</event>
<event>
11    1  0.8551154E-009  0.2591531E+03  0.7561462E-02  0.1019133E+00
         22   -1    0    0    0    0  0.00000000000E+00  0.00000000000E+00  0.40370906369E+03  0.40370906369E+03  0.00000000000E+00 0.  1.
         22   -1    0    0    0    0 -0.00000000000E+00 -0.00000000000E+00 -0.15420936798E+04  0.15420936798E+04  0.00000000000E+00 0. -1.
        -24    2    1    2    0    0  0.17206807478E+03 -0.15378383389E+03 -0.14032639003E+04  0.14243382484E+04  0.79580035530E+02 0.  0.
         25    2    1    2    0    0 -0.13989384167E+03  0.12667632273E+03 -0.15415873091E+02  0.22694118400E+03  0.12508986439E+03 0.  0.
         24    2    1    2    0    0 -0.32174233108E+02  0.27107511159E+02  0.28029515723E+03  0.29452331113E+03  0.80053776919E+02 0.  0.
        -11    1    5    5    0    0 -0.17788157535E+02  0.13139519965E+02  0.27187934813E+03  0.27277728182E+03  0.00000000000E+00 0.  1.
         12    1    5    5    0    0 -0.14386075573E+02  0.13967991195E+02  0.84158090937E+01  0.21746029318E+02  0.00000000000E+00 0. -1.
         13    1    3    3    0    0  0.93646638928E+02 -0.76405082795E+02 -0.50094984677E+03  0.51532337289E+03  0.00000000000E+00 0. -1.
        -14    1    3    3    0    0  0.78421435850E+02 -0.77378751098E+02 -0.90231405350E+03  0.90901487549E+03  0.00000000000E+00 0.  1.
          5    1    4    4  501    0 -0.67178360342E+01  0.37231530135E+02 -0.49938364867E+02  0.62790356288E+02  0.41800000000E+01 0. -1.
         -5    1    4    4    0  501 -0.13317600563E+03  0.89444792598E+02  0.34522491776E+02  0.16415082771E+03  0.41800000000E+01 0. -1.
</event>
<event>
11    1  0.8551154E-009  0.1785483E+03  0.7561462E-02  0.1070823E+00
         22   -1    0    0    0    0  0.00000000000E+00  0.00000000000E+00  0.50383136444E+03  0.50383136444E+03  0.00000000000E+00 0.  1.
         22   -1    0    0    0    0 -0.00000000000E+00 -0.00000000000E+00 -0.96709822126E+03  0.96709822126E+03  0.00000000000E+00 0. -1.
        -24    2    1    2    0    0  0.77614481139E+02  0.10176113954E+03 -0.91463639184E+03  0.92731115651E+03  0.83468044876E+02 0.  0.
         25    2    1    2    0    0 -0.12162867783E+03 -0.40462732083E+02  0.19779562946E+03  0.26683307895E+03  0.12508402389E+03 0.  0.
         24    2    1    2    0    0  0.44014196688E+02 -0.61298407462E+02  0.25357390556E+03  0.27678535023E+03  0.81336709134E+02 0.  0.
        -11    1    5    5    0    0  0.14251693531E+02 -0.44772550149E+02  0.23148219977E+03  0.23620266896E+03  0.00000000000E+00 0.  1.
         12    1    5    5    0    0  0.29762503157E+02 -0.16525857313E+02  0.22091705796E+02  0.40582681270E+02  0.00000000000E+00 0. -1.
         11    1    3    3    0    0  0.50451236723E+02  0.98021634345E+02 -0.51160410886E+03  0.52334723874E+03  0.00000000000E+00 0. -1.
        -12    1    3    3    0    0  0.27163244416E+02  0.37395052001E+01 -0.40303228297E+03  0.40396391778E+03  0.00000000000E+00 0.  1.
          5    1    4    4  501    0 -0.42841232734E+02  0.44963082063E+02  0.79273447479E+02  0.10079088176E+03  0.41800000000E+01 0.  1.
         -5    1    4    4    0  501 -0.78787445093E+02 -0.85425814146E+02  0.11852218198E+03  0.16604219719E+03  0.41800000000E+01 0.  1.
</event>
<event>
11    1  0.8551154E-009  0.1338042E+03  0.7561462E-02  0.1114681E+00
         22   -1    0    0    0    0  0.00000000000E+00  0.00000000000E+00  0.40441450328E+03  0.40441450328E+03  0.00000000000E+00 0.  1.
         22   -1    0    0    0    0 -0.00000000000E+00 -0.00000000000E+00 -0.12403500063E+04  0.12403500063E+04  0.00000000000E+00 0.  1.
        -24    2    1    2    0    0  0.10450808405E+02  0.15798709313E+02 -0.10010307342E+04  0.10045496521E+04  0.81845306103E+02 0.  0.
         25    2    1    2    0    0  0.37229129825E+02 -0.17901374708E+02 -0.21329672647E+03  0.25069765273E+03  0.12508937699E+03 0.  0.
         24    2    1    2    0    0 -0.47679938230E+02  0.21026653944E+01  0.37839195764E+03  0.38951720474E+03  0.79154162694E+02 0.  0.
        -11    1    5    5    0    0 -0.47575661220E+02 -0.24912889575E+02  0.32774166681E+03  0.33211247457E+03  0.00000000000E+00 0.  1.
         12    1    5    5    0    0 -0.10427700991E+00  0.27015554969E+02  0.50650290836E+02  0.57404730169E+02  0.00000000000E+00 0. -1.
         13    1    3    3    0    0  0.42828116450E+02  0.91225372960E+01 -0.76025889284E+03  0.76151891138E+03  0.00000000000E+00 0. -1.
        -14    1    3    3    0    0 -0.32377308045E+02  0.66761720174E+01 -0.24077184139E+03  0.24303074076E+03  0.00000000000E+00 0.  1.
          5    1    4    4  501    0  0.65122255656E+02 -0.32047506971E+02 -0.60219878599E+02  0.94402632714E+02  0.41800000000E+01 0.  1.
         -5    1    4    4    0  501 -0.27893125831E+02  0.14146132263E+02 -0.15307684788E+03  0.15629502002E+03  0.41800000000E+01 0.  1.
</event>
<event>
11    1  0.8551154E-009  0.3478721E+03  0.7561462E-02  0.9817469E-01
         22   -1    0    0    0    0  0.00000000000E+00  0.00000000000E+00  0.22437136220E+03  0.22437136220E+03  0.00000000000E+00 0.  1.
         22   -1    0    0    0    0 -0.00000000000E+00 -0.00000000000E+00 -0.28055134210E+04  0.28055134210E+04  0.00000000000E+00 0. -1.
         24    2    1    2    0    0  0.36940187408E+01 -0.43262102025E+02 -0.14183261756E+04  0.14211218055E+04  0.77799680627E+02 0.  0.
         25    2    1    2    0    0 -0.39530989282E+02 -0.28370879270E+03 -0.12254554286E+04  0.12646902831E+04  0.12508847497E+03 0.  0.
        -24    2    1    2    0    0  0.35836970542E+02  0.32697089473E+03  0.62639545492E+02  0.34407269453E+03  0.79171030073E+02 0.  0.
        -13    1    3    3    0    0 -0.34380367494E+02 -0.12539885474E+02 -0.41759850894E+03  0.41919896596E+03  0.00000000000E+00 0.  1.
         14    1    3    3    0    0  0.38074386235E+02 -0.30722216552E+02 -0.10007276667E+04  0.10019228395E+04  0.00000000000E+00 0. -1.
         11    1    5    5    0    0  0.35527889080E+02  0.50505918619E+02  0.80978097150E+01  0.62278834609E+02  0.00000000000E+00 0. -1.
        -12    1    5    5    0    0  0.30908146202E+00  0.27646497611E+03  0.54541735777E+02  0.28179385992E+03  0.00000000000E+00 0.  1.
          5    1    4    4  501    0 -0.71156275110E+02 -0.15731875422E+03 -0.84655800759E+03  0.86399672368E+03  0.41800000000E+01 0.  1.
         -5    1    4    4    0  501  0.31625285828E+02 -0.12639003848E+03 -0.37889742102E+03  0.40069355945E+03  0.41800000000E+01 0.  1.
</event>
<event>
11    1  0.8551154E-009  0.1333896E+03  0.7561462E-02  0.1115173E+00
         22   -1    0    0    0    0  0.00000000000E+00  0.00000000000E+00  0.77643875745E+03  0.77643875745E+03  0.00000000000E+00 0.  1.
         22   -1    0    0    0    0 -0.00000000000E+00 -0.00000000000E+00 -0.90206843453E+03  0.90206843453E+03  0.00000000000E+00 0.  1.
        -24    2    1    2    0    0  0.27076599913E+01 -0.60201474076E+01 -0.73775734934E+03  0.74172386768E+03  0.76320480821E+02 0.  0.
         25    2    1    2    0    0  0.32876884536E+01 -0.40004672910E+02 -0.13240959205E+03  0.18652708475E+03  0.12509544567E+03 0.  0.
         24    2    1    2    0    0 -0.59953484449E+01  0.46024820317E+02  0.74453726431E+03  0.75025623954E+03  0.79965359583E+02 0.  0.
        -11    1    5    5    0    0  0.16228580647E+02  0.18798847490E+02  0.62904369219E+03  0.62953374030E+03  0.00000000000E+00 0.  1.
         12    1    5    5    0    0 -0.22223929092E+02  0.27225972827E+02  0.11549357212E+03  0.12072249924E+03  0.00000000000E+00 0. -1.
         11    1    3    3    0    0 -0.34070968603E+02 -0.45442047864E+01 -0.22097805304E+03  0.22363537427E+03  0.00000000000E+00 0. -1.
        -12    1    3    3    0    0  0.36778628594E+02 -0.14759426212E+01 -0.51677929630E+03  0.51808849342E+03  0.00000000000E+00 0.  1.
          5    1    4    4  501    0  0.71075165421E+01  0.44747776439E+01  0.22967503254E+02  0.24809656025E+02  0.41800000000E+01 0.  1.
         -5    1    4    4    0  501 -0.38198280885E+01 -0.44479450554E+02 -0.15537709530E+03  0.16171742873E+03  0.41800000000E+01 0.  1.
</event>
<event>
11    1  0.8551154E-009  0.1943964E+03  0.7561462E-02  0.1058559E+00
         22   -1    0    0    0    0  0.00000000000E+00  0.00000000000E+00  0.51225555216E+03  0.51225555216E+03  0.00000000000E+00 0. -1.
         22   -1    0    0    0    0 -0.00000000000E+00 -0.00000000000E+00 -0.72516040065E+03  0.72516040065E+03  0.00000000000E+00 0.  1.
         24    2    1    2    0    0 -0.42495746399E+01 -0.14978184725E+03 -0.67237756313E+03  0.69352754105E+03  0.80225944337E+02 0.  0.
         25    2    1    2    0    0 -0.62163875908E+02  0.11898459723E+03  0.29050981082E+03  0.34360635983E+03  0.12509076100E+03 0.  0.
        -24    2    1    2    0    0  0.66413450548E+02  0.30797250024E+02  0.16896290382E+03  0.20028205192E+03  0.78773221533E+02 0.  0.
        -11    1    3    3    0    0 -0.38809106264E+02 -0.93469537679E+02 -0.34446722643E+03  0.35902697850E+03  0.00000000000E+00 0.  1.
         12    1    3    3    0    0  0.34559531625E+02 -0.56312309575E+02 -0.32791033670E+03  0.33450056256E+03  0.00000000000E+00 0. -1.
         11    1    5    5    0    0  0.75829656895E+02  0.27622110351E+01  0.13786132160E+03  0.15736426109E+03  0.00000000000E+00 0. -1.
        -12    1    5    5    0    0 -0.94162063469E+01  0.28035038989E+02  0.31101582217E+02  0.42917790827E+02  0.00000000000E+00 0.  1.
          5    1    4    4  501    0 -0.70094449315E+02  0.13603122909E+03  0.20441446936E+03  0.25538299630E+03  0.41800000000E+01 0.  1.
         -5    1    4    4    0  501  0.79305734064E+01 -0.17046631863E+02  0.86095341460E+02  0.88223363536E+02  0.41800000000E+01 0.  1.
</event>
<event>
11    1  0.8551154E-009  0.3031082E+03  0.7561462E-02  0.9988843E-01
         22   -1    0    0    0    0  0.00000000000E+00  0.00000000000E+00  0.37030175382E+03  0.37030175382E+03  0.00000000000E+00 0.  1.
         22   -1    0    0    0    0 -0.00000000000E+00 -0.00000000000E+00 -0.13082407284E+04  0.13082407284E+04  0.00000000000E+00 0.  1.
         24    2    1    2    0    0  0.15824777708E+02  0.13653890968E+01 -0.46545550868E+03  0.47267272373E+03  0.80736517876E+02 0.  0.
         25    2    1    2    0    0 -0.21905427667E+03  0.18435197883E+03 -0.74648239741E+03  0.80923021585E+03  0.12508854614E+03 0.  0.
        -24    2    1    2    0    0  0.20322949896E+03 -0.18571736792E+03  0.27399893151E+03  0.39663954266E+03  0.80338921688E+02 0.  0.
        -13    1    3    3    0    0  0.33144849845E+02  0.29631814988E+02 -0.34066951534E+03  0.34355835634E+03  0.00000000000E+00 0.  1.
         14    1    3    3    0    0 -0.17320072137E+02 -0.28266425891E+02 -0.12478599334E+03  0.12911436739E+03  0.00000000000E+00 0. -1.
         11    1    5    5    0    0  0.84793024826E+02 -0.10482645202E+03  0.85009719138E+02  0.15938975641E+03  0.00000000000E+00 0. -1.
        -12    1    5    5    0    0  0.11843647413E+03 -0.80890915903E+02  0.18898921237E+03  0.23724978624E+03  0.00000000000E+00 0.  1.
          5    1    4    4  501    0 -0.11595424669E+03  0.19141889385E+02 -0.28837121112E+03  0.31142772365E+03  0.41800000000E+01 0. -1.
         -5    1    4    4    0  501 -0.10310002998E+03  0.16521008944E+03 -0.45811118629E+03  0.49780249220E+03  0.41800000000E+01 0. -1.
</event>
<event>
11    1  0.8551154E-009  0.2376367E+03  0.7561462E-02  0.1030699E+00
         22   -1    0    0    0    0  0.00000000000E+00  0.00000000000E+00  0.43591476811E+03  0.43591476811E+03  0.00000000000E+00 0. -1.
         22   -1    0    0    0    0 -0.00000000000E+00 -0.00000000000E+00 -0.36240802500E+03  0.36240802500E+03  0.00000000000E+00 0.  1.
        -24    2    1    2    0    0 -0.11228168718E+00 -0.34090962577E+02 -0.18160149852E+03  0.20146171399E+03  0.80283943611E+02 0.  0.
         25    2    1    2    0    0  0.31557069195E+02  0.22637178754E+03 -0.80203554210E+01  0.26068794833E+03  0.12511532876E+03 0.  0.
         24    2    1    2    0    0 -0.31444787508E+02 -0.19228082496E+03  0.26312859705E+03  0.33617313080E+03  0.76256311065E+02 0.  0.
        -11    1    5    5    0    0 -0.22280722044E+02 -0.82789237224E+02  0.58123116739E+02  0.10357984878E+03  0.00000000000E+00 0.  1.
         12    1    5    5    0    0 -0.91640654635E+01 -0.10949158774E+03  0.20500548031E+03  0.23259328201E+03  0.00000000000E+00 0. -1.
         13    1    3    3    0    0 -0.77768192721E+01  0.24846926064E+02 -0.38170538366E+02  0.46204314214E+02  0.00000000000E+00 0. -1.
        -14    1    3    3    0    0  0.76645375849E+01 -0.58937888641E+02 -0.14343096016E+03  0.15525739978E+03  0.00000000000E+00 0.  1.
          5    1    4    4  501    0  0.44444482484E+02  0.34305470970E+02  0.30941433667E+02  0.64241902829E+02  0.41800000000E+01 0. -1.
         -5    1    4    4    0  501 -0.12887413289E+02  0.19206631657E+03 -0.38961789088E+02  0.19644604550E+03  0.41800000000E+01 0. -1.
</event>
<event>
11    1  0.8551154E-009  0.1315218E+03  0.7561462E-02  0.1117413E+00
         22   -1    0    0    0    0  0.00000000000E+00  0.00000000000E+00  0.37101629581E+03  0.37101629581E+03  0.00000000000E+00 0.  1.
         22   -1    0    0    0    0 -0.00000000000E+00 -0.00000000000E+00 -0.96144034722E+03  0.96144034722E+03  0.00000000000E+00 0. -1.
        -24    2    1    2    0    0 -0.11533614299E+02  0.86660287107E+00 -0.88806407002E+03  0.89159410650E+03  0.78412263242E+02 0.  0.
         25    2    1    2    0    0  0.84621953695E+01 -0.41304319596E+02  0.32575603386E+01  0.13206179260E+03  0.12510815241E+03 0.  0.
         24    2    1    2    0    0  0.30714189295E+01  0.40437716725E+02  0.29438245827E+03  0.30880074392E+03  0.83977527714E+02 0.  0.
        -11    1    5    5    0    0 -0.38933706994E+01 -0.11019441327E+02  0.20571950573E+03  0.20605121077E+03  0.00000000000E+00 0.  1.
         12    1    5    5    0    0  0.69647896290E+01  0.51457158053E+02  0.88662952543E+02  0.10274953315E+03  0.00000000000E+00 0. -1.
         13    1    3    3    0    0  0.13287206994E+02 -0.15227248772E+02 -0.75546923733E+03  0.75573949713E+03  0.00000000000E+00 0. -1.
        -14    1    3    3    0    0 -0.24820821293E+02  0.16093851643E+02 -0.13259483270E+03  0.13585460937E+03  0.00000000000E+00 0.  1.
          5    1    4    4  501    0  0.34186704215E+02  0.28005478526E+02 -0.27126507136E+02  0.52022662004E+02  0.41800000000E+01 0. -1.
         -5    1    4    4    0  501 -0.25724508846E+02 -0.69309798122E+02  0.30384067475E+02  0.80039130601E+02  0.41800000000E+01 0. -1.
</event>
<event>
11    1  0.8551154E-009  0.1949811E+03  0.7561462E-02  0.1058131E+00
         22   -1    0    0    0    0  0.00000000000E+00  0.00000000000E+00  0.52064444415E+03  0.52064444415E+03  0.00000000000E+00 0.  1.
         22   -1    0    0    0    0 -0.00000000000E+00 -0.00000000000E+00 -0.25309809499E+03  0.25309809499E+03  0.00000000000E+00 0.  1.
         24    2    1    2    0    0  0.75391901261E+02 -0.10712671515E+03 -0.74918935451E+02  0.17050548104E+03  0.79367501538E+02 0.  0.
         25    2    1    2    0    0 -0.12382289133E+03  0.14566003794E+03 -0.17708053480E+02  0.22913934440E+03  0.12506921653E+03 0.  0.
        -24    2    1    2    0    0  0.48430990072E+02 -0.38533322787E+02  0.36017333809E+03  0.37409771371E+03  0.79961791911E+02 0.  0.
        -13    1    3    3    0    0  0.78644675131E+02 -0.11229484028E+03 -0.83086515401E+02  0.16030747057E+03  0.00000000000E+00 0.  1.
         14    1    3    3    0    0 -0.32527738700E+01  0.51681251303E+01  0.81675799499E+01  0.10198010465E+02  0.00000000000E+00 0. -1.
         11    1    5    5    0    0  0.19713259873E+02  0.92342055133E+01  0.20566547929E+02  0.29947722117E+02  0.00000000000E+00 0. -1.
        -12    1    5    5    0    0  0.28717730198E+02 -0.47767528301E+02  0.33960679016E+03  0.34414999159E+03  0.00000000000E+00 0.  1.
          5    1    4    4  501    0 -0.13892455368E+03  0.91775878760E+02 -0.35450151878E+02  0.17028514088E+03  0.41800000000E+01 0.  1.
         -5    1    4    4    0  501  0.15101662350E+02  0.53884159175E+02  0.17742098398E+02  0.58854203514E+02  0.41800000000E+01 0.  1.
</event>
<event>
11    1  0.8551154E-009  0.1631868E+03  0.7561462E-02  0.1084118E+00
         22   -1    0    0    0    0  0.00000000000E+00  0.00000000000E+00  0.10887257419E+04  0.10887257419E+04  0.00000000000E+00 0. -1.
         22   -1    0    0    0    0 -0.00000000000E+00 -0.00000000000E+00 -0.10462609793E+03  0.10462609793E+03  0.00000000000E+00 0.  1.
        -24    2    1    2    0    0  0.66829768270E+02 -0.25934733701E+01 -0.39286787249E+02  0.11249865337E+03  0.81483442036E+02 0.  0.
         25    2    1    2    0    0 -0.29168030485E+02  0.10412884906E+03  0.27766933864E+03  0.32317241036E+03  0.12508618625E+03 0.  0.
         24    2    1    2    0    0 -0.37661737785E+02 -0.10153537569E+03  0.74571709262E+03  0.75768077614E+03  0.79109653613E+02 0.  0.
        -13    1    5    5    0    0  0.34764975409E+01 -0.63905231652E+02  0.22309896078E+03  0.23209720156E+03  0.00000000000E+00 0.  1.
         14    1    5    5    0    0 -0.41138235326E+02 -0.37630144038E+02  0.52261813184E+03  0.52558357458E+03  0.00000000000E+00 0. -1.
         13    1    3    3    0    0  0.13553076637E+02  0.34505920366E+02 -0.91104019236E+00  0.37083344251E+02  0.00000000000E+00 0. -1.
        -14    1    3    3    0    0  0.53276691634E+02 -0.37099393736E+02 -0.38375747057E+02  0.75415309117E+02  0.00000000000E+00 0.  1.
          5    1    4    4  501    0  0.41335464991E+02  0.76264689941E+02  0.17621416176E+03  0.19645311604E+03  0.41800000000E+01 0.  1.
         -5    1    4    4    0  501 -0.70503495476E+02  0.27864159120E+02  0.10145517688E+03  0.12671929432E+03  0.41800000000E+01 0.  1.
</event>
<event>
11    1  0.8551154E-009  0.2507047E+03  0.7561462E-02  0.1023524E+00
         22   -1    0    0    0    0  0.00000000000E+00  0.00000000000E+00  0.31155241342E+03  0.31155241342E+03  0.00000000000E+00 0.  1.
         22   -1    0    0    0    0 -0.00000000000E+00 -0.00000000000E+00 -0.20236217861E+04  0.20236217861E+04  0.00000000000E+00 0. -1.
        -24    2    1    2    0    0  0.11529952087E+02 -0.22006706042E+03 -0.16733380029E+04  0.16898348317E+04  0.83181943915E+02 0.  0.
         25    2    1    2    0    0  0.11166656187E+03  0.19889595823E+03 -0.26748704345E+03  0.37312991457E+03  0.12509033332E+03 0.  0.
         24    2    1    2    0    0 -0.12319651396E+03  0.21171102192E+02  0.22875567362E+03  0.27220945325E+03  0.78378770125E+02 0.  0.
        -11    1    5    5    0    0 -0.10217801124E+03 -0.17062187133E+02  0.16894765213E+03  0.19817864005E+03  0.00000000000E+00 0.  1.
         12    1    5    5    0    0 -0.21018502722E+02  0.38233289325E+02  0.59808021486E+02  0.74030813201E+02  0.00000000000E+00 0. -1.
         13    1    3    3    0    0  0.23232262576E+02 -0.10716193933E+02 -0.15771036535E+03  0.15977213204E+03  0.00000000000E+00 0. -1.
        -14    1    3    3    0    0 -0.11702310489E+02 -0.20935086649E+03 -0.15156276375E+04  0.15300626997E+04  0.00000000000E+00 0.  1.
          5    1    4    4  501    0  0.11416372982E+03  0.18732220721E+03 -0.27978388975E+03  0.35555514887E+03  0.41800000000E+01 0. -1.
         -5    1    4    4    0  501 -0.24971679512E+01  0.11573751022E+02  0.12296846302E+02  0.17574765702E+02  0.41800000000E+01 0. -1.
</event>
<event>
11    1  0.8551154E-009  0.1587440E+03  0.7561462E-02  0.1088265E+00
         22   -1    0    0    0    0  0.00000000000E+00  0.00000000000E+00  0.89586955055E+02  0.89586955055E+02  0.00000000000E+00 0.  1.
         22   -1    0    0    0    0 -0.00000000000E+00 -0.00000000000E+00 -0.11671580970E+04  0.11671580970E+04  0.00000000000E+00 0.  1.
         24    2    1    2    0    0 -0.61279023436E+01  0.20949498396E+02 -0.88087744426E+03  0.88449556179E+03  0.76882340981E+02 0.  0.
         25    2    1    2    0    0 -0.20824324976E+02  0.78282372109E+02 -0.19274006972E+03  0.24363229531E+03  0.12508468551E+03 0.  0.
        -24    2    1    2    0    0  0.26952227320E+02 -0.99231870506E+02 -0.39536279257E+01  0.12861719491E+03  0.77158051887E+02 0.  0.
        -11    1    3    3    0    0 -0.58280033045E+01  0.30548366282E+02 -0.86734153892E+03  0.86789890738E+03  0.00000000000E+00 0.  1.
         12    1    3    3    0    0 -0.29989903913E+00 -0.95988678864E+01 -0.13535905340E+02  0.16596654407E+02  0.00000000000E+00 0. -1.
         13    1    5    5    0    0  0.33085828627E+02 -0.51458933129E+02 -0.35793646555E+02  0.70879326947E+02  0.00000000000E+00 0. -1.
        -14    1    5    5    0    0 -0.61336013076E+01 -0.47772937376E+02  0.31840018629E+02  0.57737867963E+02  0.00000000000E+00 0.  1.
          5    1    4    4  501    0 -0.21259816844E+02  0.88714442468E+01  0.12775184370E+02  0.26671334255E+02  0.41800000000E+01 0. -1.
         -5    1    4    4    0  501  0.43549186755E+00  0.69410927863E+02 -0.20551525409E+03  0.21696096106E+03  0.41800000000E+01 0. -1.
</event>
<event>
11    1  0.8551154E-009  0.2391306E+03  0.7561462E-02  0.1029854E+00
         22   -1    0    0    0    0  0.00000000000E+00  0.00000000000E+00  0.17470565687E+03  0.17470565687E+03  0.00000000000E+00 0. -1.
         22   -1    0    0    0    0 -0.00000000000E+00 -0.00000000000E+00 -0.17398335435E+04  0.17398335435E+04  0.00000000000E+00 0. -1.
         24    2    1    2    0    0 -0.17558142900E+02 -0.45706982413E+02 -0.13324443183E+04  0.13362041992E+04  0.87386405924E+02 0.  0.
         25    2    1    2    0    0  0.96521373700E+02  0.22099282452E+03 -0.25013578884E+03  0.36928425191E+03  0.12509493108E+03 0.  0.
        -24    2    1    2    0    0 -0.78963230800E+02 -0.17528584211E+03  0.17452220576E+02  0.20905074921E+03  0.80232895251E+02 0.  0.
        -11    1    3    3    0    0  0.13985511719E+02  0.17174542619E+02 -0.14541815499E+03  0.14709520472E+03  0.00000000000E+00 0.  1.
         12    1    3    3    0    0 -0.31543654619E+02 -0.62881525032E+02 -0.11870261634E+04  0.11891089945E+04  0.00000000000E+00 0. -1.
         13    1    5    5    0    0 -0.95058392936E+02 -0.13888743985E+03  0.10323134669E+02  0.16861905623E+03  0.00000000000E+00 0. -1.
        -14    1    5    5    0    0  0.16095162136E+02 -0.36398402256E+02  0.71290859061E+01  0.40431692975E+02  0.00000000000E+00 0.  1.
          5    1    4    4  501    0  0.97406550071E+02  0.22566396592E+03 -0.25984099661E+03  0.35769690722E+03  0.41800000000E+01 0.  1.
         -5    1    4    4    0  501 -0.88517637136E+00 -0.46711414038E+01  0.97052077713E+01  0.11587344696E+02  0.41800000000E+01 0.  1.
</event>
<event>
11    1  0.8551154E-009  0.1292370E+03  0.7561462E-02  0.1120210E+00
         22   -1    0    0    0    0  0.00000000000E+00  0.00000000000E+00  0.46872251837E+03  0.46872251837E+03  0.00000000000E+00 0.  1.
         22   -1    0    0    0    0 -0.00000000000E+00 -0.00000000000E+00 -0.25992962612E+03  0.25992962612E+03  0.00000000000E+00 0.  1.
         24    2    1    2    0    0  0.54448688995E+01 -0.31789183124E+02 -0.18220123623E+03  0.20212992028E+03  0.81357331743E+02 0.  0.
         25    2    1    2    0    0  0.21653606403E+01  0.34695627795E+02  0.26252098544E+01  0.12985726851E+03  0.12509013984E+03 0.  0.
        -24    2    1    2    0    0 -0.76102295399E+01 -0.29064446713E+01  0.38836891862E+03  0.39666495570E+03  0.80288897831E+02 0.  0.
        -13    1    3    3    0    0 -0.15481750005E+02 -0.51635572930E+02 -0.84241211084E+02  0.10001249232E+03  0.00000000000E+00 0.  1.
         14    1    3    3    0    0  0.20926618904E+02  0.19846389806E+02 -0.97960025142E+02  0.10211742796E+03  0.00000000000E+00 0. -1.
         11    1    5    5    0    0 -0.14879716999E+02  0.10592739940E+02  0.16913796786E+02  0.24893546134E+02  0.00000000000E+00 0. -1.
        -12    1    5    5    0    0  0.72694874588E+01 -0.13499184611E+02  0.37145512183E+03  0.37177140956E+03  0.00000000000E+00 0.  1.
          5    1    4    4  501    0  0.51709628808E+02 -0.18689144250E+02  0.11618397476E+02  0.56352722952E+02  0.41800000000E+01 0. -1.
         -5    1    4    4    0  501 -0.49544268167E+02  0.53384772045E+02 -0.89931876213E+01  0.73504545561E+02  0.41800000000E+01 0. -1.
</event>
<event>
11    1  0.8551154E-009  0.1364496E+03  0.7561462E-02  0.1111589E+00
         22   -1    0    0    0    0  0.00000000000E+00  0.00000000000E+00  0.15779620487E+04  0.15779620487E+04  0.00000000000E+00 0.  1.
         22   -1    0    0    0    0 -0.00000000000E+00 -0.00000000000E+00 -0.76299877458E+02  0.76299877458E+02  0.00000000000E+00 0. -1.
        -24    2    1    2    0    0 -0.41484384822E+02  0.38047924590E+02 -0.23949743698E+02  0.10095118434E+03  0.80305371216E+02 0.  0.
         25    2    1    2    0    0  0.15588541897E+02 -0.39120725642E+02  0.33894838523E+03  0.36374016440E+03  0.12508982984E+03 0.  0.
         24    2    1    2    0    0  0.25895842925E+02  0.10728010518E+01  0.11866635297E+04  0.11895705774E+04  0.78968856900E+02 0.  0.
        -13    1    5    5    0    0  0.51339835929E+02  0.56850503074E+01  0.56101739423E+03  0.56339028673E+03  0.00000000000E+00 0.  1.
         14    1    5    5    0    0 -0.25443993004E+02 -0.46122492556E+01  0.62564613545E+03  0.62618029067E+03  0.00000000000E+00 0. -1.
         13    1    3    3    0    0 -0.49333381339E+02 -0.78800958684E+01 -0.35423798668E+01  0.50084197910E+02  0.00000000000E+00 0. -1.
        -14    1    3    3    0    0  0.78489965167E+01  0.45928020458E+02 -0.20407363831E+02  0.50866986426E+02  0.00000000000E+00 0.  1.
          5    1    4    4  501    0 -0.48830250398E+02 -0.14292932326E+02  0.73915669636E+02  0.89831396996E+02  0.41800000000E+01 0. -1.
         -5    1    4    4    0  501  0.64418792295E+02 -0.24827793315E+02  0.26503271560E+03  0.27390876740E+03  0.41800000000E+01 0. -1.
</event>
<event>
11    1  0.8551154E-009  0.1967077E+03  0.7561462E-02  0.1056877E+00
         22   -1    0    0    0    0  0.00000000000E+00  0.00000000000E+00  0.79884751866E+03  0.79884751866E+03  0.00000000000E+00 0.  1.
         22   -1    0    0    0    0 -0.00000000000E+00 -0.00000000000E+00 -0.38319507588E+03  0.38319507588E+03  0.00000000000E+00 0. -1.
         24    2    1    2    0    0  0.70037708675E+02 -0.13291713853E+03 -0.27508060203E+03  0.32345153278E+03  0.79870583390E+02 0.  0.
         25    2    1    2    0    0 -0.16108503702E+03  0.93969734605E+02  0.85402208184E+02  0.24024882925E+03  0.12508901877E+03 0.  0.
        -24    2    1    2    0    0  0.91047328346E+02  0.38947403926E+02  0.60533083662E+03  0.61834223251E+03  0.78199606607E+02 0.  0.
        -13    1    3    3    0    0  0.37394757089E+02 -0.75790016990E+02 -0.75572880119E+02  0.11337440074E+03  0.00000000000E+00 0.  1.
         14    1    3    3    0    0  0.32642951585E+02 -0.57127121541E+02 -0.19950772191E+03  0.21007713204E+03  0.00000000000E+00 0. -1.
         11    1    5    5    0    0  0.49086675841E+02  0.16537803498E+01  0.11835252481E+03  0.12813881872E+03  0.00000000000E+00 0. -1.
        -12    1    5    5    0    0  0.41960652505E+02  0.37293623576E+02  0.48697831181E+03  0.49020341379E+03  0.00000000000E+00 0.  1.
          5    1    4    4  501    0 -0.16226484209E+03  0.68950403946E+02  0.10754168622E+03  0.20655925023E+03  0.41800000000E+01 0. -1.
         -5    1    4    4    0  501  0.11798050669E+01  0.25019330659E+02 -0.22139478033E+02  0.33689579015E+02  0.41800000000E+01 0. -1.
</event>
<event>
11    1  0.9723555E-009  0.1529831E+03  0.7561462E-02  0.1093869E+00
         22   -1    0    0    0    0  0.00000000000E+00  0.00000000000E+00  0.73941347969E+03  0.73941347969E+03  0.00000000000E+00 0. -1.
         22   -1    0    0    0    0 -0.00000000000E+00 -0.00000000000E+00 -0.99226622115E+03  0.99226622115E+03  0.00000000000E+00 0.  1.
        -24    2    1    2    0    0 -0.22762867177E+02  0.57606042662E+02 -0.86937673264E+03  0.87529361024E+03  0.80538168573E+02 0.  0.
         25    2    1    2    0    0 -0.15551021371E+02  0.24729028667E+02 -0.78623200162E+02  0.15060567973E+03  0.12508838491E+03 0.  0.
         24    2    1    2    0    0  0.38313888548E+02 -0.82335071328E+02  0.69514719134E+03  0.70578041088E+03  0.81543563363E+02 0.  0.
        -11    1    5    5    0    0  0.36496502721E+02 -0.76944232364E+00  0.30621674410E+03  0.30838495606E+03  0.00000000000E+00 0.  1.
         12    1    5    5    0    0  0.18173858277E+01 -0.81565629005E+02  0.38893044724E+03  0.39739545482E+03  0.00000000000E+00 0. -1.
         11    1    3    3    0    0 -0.78436234915E+01  0.12048471697E+02 -0.20358125444E+02  0.24922707945E+02  0.00000000000E+00 0. -1.
        -12    1    3    3    0    0 -0.14919243686E+02  0.45557570965E+02 -0.84901860719E+03  0.85037090229E+03  0.00000000000E+00 0.  1.
          5    1    4    4  501    0 -0.92501220903E+01 -0.12530206305E+02 -0.10377483100E+03  0.10502027794E+03  0.41800000000E+01 0.  1.
         -5    1    4    4    0  501 -0.63008992811E+01  0.37259234972E+02  0.25151630840E+02  0.45585401790E+02  0.41800000000E+01 0.  1.
</event>
<event>
11    1  0.8551154E-009  0.1761355E+03  0.7561462E-02  0.1072812E+00
         22   -1    0    0    0    0  0.00000000000E+00  0.00000000000E+00  0.71000076170E+03  0.71000076170E+03  0.00000000000E+00 0.  1.
         22   -1    0    0    0    0 -0.00000000000E+00 -0.00000000000E+00 -0.30396603083E+04  0.30396603083E+04  0.00000000000E+00 0.  1.
        -24    2    1    2    0    0 -0.46211761782E+02 -0.10871914863E+02 -0.28677830768E+04  0.28693018321E+04  0.80371031126E+02 0.  0.
         25    2    1    2    0    0  0.13199554262E+03 -0.76999134953E+02 -0.10296632768E+03  0.22271252084E+03  0.12508841773E+03 0.  0.
         24    2    1    2    0    0 -0.85783780839E+02  0.87871049815E+02  0.64108985792E+03  0.65764671701E+03  0.80142498182E+02 0.  0.
        -13    1    5    5    0    0 -0.61418103835E+02  0.68616998344E+02  0.59491523249E+03  0.60200050647E+03  0.00000000000E+00 0.  1.
         14    1    5    5    0    0 -0.24365677004E+02  0.19254051471E+02  0.46174625431E+02  0.55646210541E+02  0.00000000000E+00 0. -1.
         11    1    3    3    0    0  0.64163037104E+01  0.27482300878E+02 -0.87610686591E+03  0.87656128497E+03  0.00000000000E+00 0. -1.
        -12    1    3    3    0    0 -0.52628065493E+02 -0.38354215740E+02 -0.19916762109E+04  0.19927405471E+04  0.00000000000E+00 0.  1.
          5    1    4    4  501    0  0.47408517073E+02 -0.91130235456E+02 -0.22935033406E+02  0.10533648685E+03  0.41800000000E+01 0. -1.
         -5    1    4    4    0  501  0.84587025549E+02  0.14131100503E+02 -0.80031294271E+02  0.11737603399E+03  0.41800000000E+01 0. -1.
</event>
<event>
11    1  0.8551154E-009  0.1648754E+03  0.7561462E-02  0.1082579E+00
         22   -1    0    0    0    0  0.00000000000E+00  0.00000000000E+00  0.62031992811E+03  0.62031992811E+03  0.00000000000E+00 0. -1.
         22   -1    0    0    0    0 -0.00000000000E+00 -0.00000000000E+00 -0.51415556126E+03  0.51415556126E+03  0.00000000000E+00 0. -1.
        -24    2    1    2    0    0 -0.27590789942E+02 -0.45643280177E+02 -0.25658031751E+03  0.27609886815E+03  0.86905494333E+02 0.  0.
         25    2    1    2    0    0  0.57686864692E+02  0.14705676880E+03 -0.19767268052E+03  0.28226363545E+03  0.12507918957E+03 0.  0.
         24    2    1    2    0    0 -0.30096074751E+02 -0.10141348862E+03  0.56041736488E+03  0.57611298577E+03  0.81535759758E+02 0.  0.
        -11    1    5    5    0    0 -0.24848429369E+01 -0.36324655783E+02  0.56205021922E+02  0.66967600759E+02  0.00000000000E+00 0.  1.
         12    1    5    5    0    0 -0.27611231814E+02 -0.65088832839E+02  0.50421234296E+03  0.50914538501E+03  0.00000000000E+00 0. -1.
         13    1    3    3    0    0  0.24787013701E+02 -0.42815936534E+02 -0.12072462912E+03  0.13046852703E+03  0.00000000000E+00 0. -1.
        -14    1    3    3    0    0 -0.52377803643E+02 -0.28273436435E+01 -0.13585568839E+03  0.14563034112E+03  0.00000000000E+00 0.  1.
          5    1    4    4  501    0  0.67862928465E+02  0.16070452231E+03 -0.19901772044E+03  0.26468253815E+03  0.41800000000E+01 0.  1.
         -5    1    4    4    0  501 -0.10176063772E+02 -0.13647753513E+02  0.13450399180E+01  0.17581097298E+02  0.41800000000E+01 0.  1.
</event>
<event>
11    1  0.8551154E-009  0.2606119E+03  0.7561462E-02  0.1018393E+00
         22   -1    0    0    0    0  0.00000000000E+00  0.00000000000E+00  0.69216027624E+03  0.69216027624E+03  0.00000000000E+00 0. -1.
         22   -1    0    0    0    0 -0.00000000000E+00 -0.00000000000E+00 -0.42338840175E+03  0.42338840175E+03  0.00000000000E+00 0.  1.
        -24    2    1    2    0    0 -0.32096540192E+02 -0.99457980369E+02 -0.17562730892E+03  0.21910249250E+03  0.78986535748E+02 0.  0.
         25    2    1    2    0    0 -0.14407821289E+03  0.23822391594E+03 -0.84400551538E+02  0.31667251247E+03  0.12509540957E+03 0.  0.
         24    2    1    2    0    0  0.17617475309E+03 -0.13876593557E+03  0.52879973494E+03  0.57977367303E+03  0.78834153550E+02 0.  0.
        -11    1    5    5    0    0  0.15655746851E+03 -0.83297781468E+02  0.42392649146E+03  0.45952413593E+03  0.00000000000E+00 0.  1.
         12    1    5    5    0    0  0.19617284572E+02 -0.55468154104E+02  0.10487324349E+03  0.12024953710E+03  0.00000000000E+00 0. -1.
         13    1    3    3    0    0 -0.54709460802E+02 -0.44874842714E+02 -0.81091632428E+02  0.10762308981E+03  0.00000000000E+00 0. -1.
        -14    1    3    3    0    0  0.22612920610E+02 -0.54583137655E+02 -0.94535676487E+02  0.11147940269E+03  0.00000000000E+00 0.  1.
          5    1    4    4  501    0 -0.21732641320E+02  0.14228421774E+03 -0.71045178172E+02  0.16056773044E+03  0.41800000000E+01 0. -1.
         -5    1    4    4    0  501 -0.12234557157E+03  0.95939698201E+02 -0.13355373367E+02  0.15610478203E+03  0.41800000000E+01 0. -1.
</event>
<event>
11    1  0.8551154E-009  0.1360506E+03  0.7561462E-02  0.1112050E+00
         22   -1    0    0    0    0  0.00000000000E+00  0.00000000000E+00  0.63718928902E+03  0.63718928902E+03  0.00000000000E+00 0. -1.
         22   -1    0    0    0    0 -0.00000000000E+00 -0.00000000000E+00 -0.30190115576E+03  0.30190115576E+03  0.00000000000E+00 0.  1.
        -24    2    1    2    0    0  0.28549613920E+02  0.29688209843E+02 -0.25456859976E+03  0.27023914676E+03  0.80793280657E+02 0.  0.
         25    2    1    2    0    0 -0.75459159374E+02 -0.43641514215E+02  0.13374876629E+03  0.20281634341E+03  0.12508824955E+03 0.  0.
         24    2    1    2    0    0  0.46909545454E+02  0.13953304372E+02  0.45610796673E+03  0.46603495460E+03  0.82212538218E+02 0.  0.
        -13    1    5    5    0    0 -0.20082128772E+02  0.13611443285E+01  0.44761414840E+02  0.49078802638E+02  0.00000000000E+00 0.  1.
         14    1    5    5    0    0  0.66991674226E+02  0.12592160043E+02  0.41134655189E+03  0.41695615196E+03  0.00000000000E+00 0. -1.
         11    1    3    3    0    0 -0.13403626243E+02  0.67692934105E+01 -0.45485688514E+01  0.15689805873E+02  0.00000000000E+00 0. -1.
        -12    1    3    3    0    0  0.41953240163E+02  0.22918916433E+02 -0.25002003091E+03  0.25454934089E+03  0.00000000000E+00 0.  1.
          5    1    4    4  501    0 -0.24078463118E+02 -0.49241286698E+02  0.14017225692E+03  0.15056630005E+03  0.41800000000E+01 0. -1.
         -5    1    4    4    0  501 -0.51380696255E+02  0.55997724831E+01 -0.64234906253E+01  0.52250043362E+02  0.41800000000E+01 0. -1.
</event>
<event>
11    1  0.8551154E-009  0.1359777E+03  0.7561462E-02  0.1112135E+00
         22   -1    0    0    0    0  0.00000000000E+00  0.00000000000E+00  0.17721882170E+03  0.17721882170E+03  0.00000000000E+00 0. -1.
         22   -1    0    0    0    0 -0.00000000000E+00 -0.00000000000E+00 -0.50690564030E+03  0.50690564030E+03  0.00000000000E+00 0. -1.
         24    2    1    2    0    0  0.24308458291E+02 -0.51112149573E+02 -0.40940580233E+03  0.42063274836E+03  0.78201310961E+02 0.  0.
         25    2    1    2    0    0 -0.14259328541E+02  0.16186252653E+02 -0.16526749167E+02  0.12800524157E+03  0.12508751020E+03 0.  0.
        -24    2    1    2    0    0 -0.10049129749E+02  0.34925896920E+02  0.96245732895E+02  0.13548647207E+03  0.88162008416E+02 0.  0.
        -13    1    3    3    0    0  0.24830143917E+02 -0.46066591218E+02 -0.11685656818E+03  0.12803954233E+03  0.00000000000E+00 0.  1.
         14    1    3    3    0    0 -0.52168562662E+00 -0.50455583550E+01 -0.29254923415E+03  0.29259320603E+03  0.00000000000E+00 0. -1.
         11    1    5    5    0    0 -0.28572889078E+02  0.28628705491E+02  0.10612291724E+03  0.11356974215E+03  0.00000000000E+00 0. -1.
        -12    1    5    5    0    0  0.18523759328E+02  0.62971914292E+01 -0.98771843468E+01  0.21916729915E+02  0.00000000000E+00 0.  1.
          5    1    4    4  501    0 -0.19330827611E+02 -0.44062305115E+02 -0.40300859563E+02  0.62903094596E+02  0.41800000000E+01 0. -1.
         -5    1    4    4    0  501  0.50714990698E+01  0.60248557768E+02  0.23774110396E+02  0.65102146978E+02  0.41800000000E+01 0. -1.
</event>
<event>
11    1  0.8551154E-009  0.1859214E+03  0.7561462E-02  0.1064951E+00
         22   -1    0    0    0    0  0.00000000000E+00  0.00000000000E+00  0.54600357180E+03  0.54600357180E+03  0.00000000000E+00 0.  1.
         22   -1    0    0    0    0 -0.00000000000E+00 -0.00000000000E+00 -0.14052142330E+04  0.14052142330E+04  0.00000000000E+00 0.  1.
        -24    2    1    2    0    0 -0.10877641249E+03  0.87670875124E+02 -0.13025242909E+04  0.13128903783E+04  0.87138548948E+02 0.  0.
         25    2    1    2    0    0  0.35691961231E+02 -0.11713923843E+03 -0.62945982950E+01  0.17516669382E+03  0.12509289101E+03 0.  0.
         24    2    1    2    0    0  0.73084451259E+02  0.29468363305E+02  0.44960822801E+03  0.46316073270E+03  0.78489388896E+02 0.  0.
        -11    1    5    5    0    0  0.28248040921E+02  0.28815187047E+02  0.36660901943E+03  0.36882304693E+03  0.00000000000E+00 0.  1.
         12    1    5    5    0    0  0.44836410338E+02  0.65317625788E+00  0.82999208576E+02  0.94337685765E+02  0.00000000000E+00 0. -1.
         11    1    3    3    0    0 -0.16745424179E+02 -0.72836255875E+01 -0.47018804676E+02  0.50440345219E+02  0.00000000000E+00 0. -1.
        -12    1    3    3    0    0 -0.92030988311E+02  0.94954500711E+02 -0.12555054862E+04  0.12624500331E+04  0.00000000000E+00 0.  1.
          5    1    4    4  501    0  0.58953582335E+02 -0.99812226706E+02 -0.46875086476E+02  0.12511095716E+03  0.41800000000E+01 0.  1.
         -5    1    4    4    0  501 -0.23261621103E+02 -0.17327011722E+02  0.40580488181E+02  0.50055736661E+02  0.41800000000E+01 0.  1.
</event>
<event>
11    1  0.8551154E-009  0.1374567E+03  0.7561462E-02  0.1110432E+00
         22   -1    0    0    0    0  0.00000000000E+00  0.00000000000E+00  0.36384564059E+03  0.36384564059E+03  0.00000000000E+00 0.  1.
         22   -1    0    0    0    0 -0.00000000000E+00 -0.00000000000E+00 -0.50362515680E+03  0.50362515680E+03  0.00000000000E+00 0. -1.
         24    2    1    2    0    0 -0.27237239667E+02 -0.43933008284E+01 -0.41658733039E+03  0.42566710778E+03  0.82983820656E+02 0.  0.
         25    2    1    2    0    0 -0.32934055527E+02 -0.15933920290E+01 -0.13934153621E+02  0.13011458731E+03  0.12509378195E+03 0.  0.
        -24    2    1    2    0    0  0.60171295194E+02  0.59866928574E+01  0.29074196781E+03  0.31168910230E+03  0.94671956739E+02 0.  0.
        -11    1    3    3    0    0 -0.18311471759E+02 -0.19018768262E+02 -0.35736639269E+02  0.44431193214E+02  0.00000000000E+00 0.  1.
         12    1    3    3    0    0 -0.89257679077E+01  0.14625467434E+02 -0.38085069112E+03  0.38123591457E+03  0.00000000000E+00 0. -1.
         13    1    5    5    0    0  0.79394428759E+01  0.44873596172E+02  0.94265312736E+02  0.10470254807E+03  0.00000000000E+00 0. -1.
        -14    1    5    5    0    0  0.52231852318E+02 -0.38886903315E+02  0.19647665507E+03  0.20698655423E+03  0.00000000000E+00 0.  1.
          5    1    4    4  501    0 -0.43934593183E+02  0.20939203297E+02 -0.60078684229E+02  0.77431385185E+02  0.41800000000E+01 0. -1.
         -5    1    4    4    0  501  0.11000537656E+02 -0.22532595326E+02  0.46144530608E+02  0.52683202123E+02  0.41800000000E+01 0. -1.
</event>
<event>
11    1  0.8551154E-009  0.1277538E+03  0.7561462E-02  0.1122060E+00
         22   -1    0    0    0    0  0.00000000000E+00  0.00000000000E+00  0.19819006096E+04  0.19819006096E+04  0.00000000000E+00 0. -1.
         22   -1    0    0    0    0 -0.00000000000E+00 -0.00000000000E+00 -0.24757885443E+02  0.24757885443E+02  0.00000000000E+00 0. -1.
         24    2    1    2    0    0 -0.17126469920E+02 -0.17649948124E+02  0.94254802873E+02  0.13025725622E+03  0.86476287463E+02 0.  0.
         25    2    1    2    0    0  0.50806065129E+02  0.21072996067E+01  0.10737344461E+04  0.10821914158E+04  0.12508758089E+03 0.  0.
        -24    2    1    2    0    0 -0.33679595209E+02  0.15542648517E+02  0.78915347521E+03  0.79420982297E+03  0.81425710973E+02 0.  0.
        -13    1    3    3    0    0 -0.45427681405E+02 -0.61918836055E+01  0.87799951306E+02  0.99049710296E+02  0.00000000000E+00 0.  1.
         14    1    3    3    0    0  0.28301211485E+02 -0.11458064518E+02  0.64548515667E+01  0.31207545926E+02  0.00000000000E+00 0. -1.
         11    1    5    5    0    0 -0.35189910654E+02  0.31589468293E+02  0.75461973418E+03  0.75609997192E+03  0.00000000000E+00 0. -1.
        -12    1    5    5    0    0  0.15103154444E+01 -0.16046819776E+02  0.34533741029E+02  0.38109851051E+02  0.00000000000E+00 0.  1.
          5    1    4    4  501    0  0.64918069528E+01 -0.45989738561E+02  0.17616284795E+03  0.18223068076E+03  0.41800000000E+01 0.  1.
         -5    1    4    4    0  501  0.44314258177E+02  0.48097038168E+02  0.89757159811E+03  0.89996073508E+03  0.41800000000E+01 0.  1.
</event>
<event>
11    1  0.8551154E-009  0.1504755E+03  0.7561462E-02  0.1096394E+00
         22   -1    0    0    0    0  0.00000000000E+00  0.00000000000E+00  0.12334616255E+03  0.12334616255E+03  0.00000000000E+00 0.  1.
         22   -1    0    0    0    0 -0.00000000000E+00 -0.00000000000E+00 -0.77596931010E+03  0.77596931010E+03  0.00000000000E+00 0. -1.
        -24    2    1    2    0    0  0.32852869144E+02 -0.23028188222E+02 -0.37529089160E+03  0.38538638428E+03  0.77908943058E+02 0.  0.
         25    2    1    2    0    0  0.73620757855E+01 -0.53831493177E+02 -0.34807156554E+03  0.37383627161E+03  0.12509082067E+03 0.  0.
         24    2    1    2    0    0 -0.40214944930E+02  0.76859681399E+02  0.70739309598E+02  0.14009281676E+03  0.84245444771E+02 0.  0.
        -11    1    5    5    0    0 -0.63014600788E+02  0.51175472199E+02  0.67539898362E+02  0.10560022130E+03  0.00000000000E+00 0.  1.
         12    1    5    5    0    0  0.22799655858E+02  0.25684209199E+02  0.31994112356E+01  0.34492595462E+02  0.00000000000E+00 0. -1.
         11    1    3    3    0    0  0.82155574927E+01 -0.88156822966E+01 -0.33929727398E+03  0.33951119535E+03  0.00000000000E+00 0. -1.
        -12    1    3    3    0    0  0.24637311652E+02 -0.14212505925E+02 -0.35993617626E+02  0.45875188936E+02  0.00000000000E+00 0.  1.
          5    1    4    4  501    0  0.22965636712E+02 -0.13965217842E+02 -0.32280647144E+03  0.32395051811E+03  0.41800000000E+01 0. -1.
         -5    1    4    4    0  501 -0.15603560926E+02 -0.39866275335E+02 -0.25265094101E+02  0.49885753503E+02  0.41800000000E+01 0. -1.
</event>
<event>
11    1  0.8551154E-009  0.1414617E+03  0.7561462E-02  0.1105937E+00
         22   -1    0    0    0    0  0.00000000000E+00  0.00000000000E+00  0.28839154895E+03  0.28839154895E+03  0.00000000000E+00 0.  1.
         22   -1    0    0    0    0 -0.00000000000E+00 -0.00000000000E+00 -0.44476208898E+03  0.44476208898E+03  0.00000000000E+00 0.  1.
         24    2    1    2    0    0 -0.64879450339E+02  0.30429997158E+02 -0.29482709914E+03  0.31326044276E+03  0.77934323676E+02 0.  0.
         25    2    1    2    0    0  0.46024442899E+02 -0.90713567412E+01 -0.99788962454E+02  0.16674941965E+03  0.12508794134E+03 0.  0.
        -24    2    1    2    0    0  0.18855007440E+02 -0.21358640417E+02  0.23824552155E+03  0.25314377552E+03  0.80679239708E+02 0.  0.
        -13    1    3    3    0    0 -0.69471868499E+02  0.34904527268E+02 -0.15614591004E+03  0.17443110892E+03  0.00000000000E+00 0.  1.
         14    1    3    3    0    0  0.45924181600E+01 -0.44745301100E+01 -0.13868118910E+03  0.13882933384E+03  0.00000000000E+00 0. -1.
         13    1    5    5    0    0  0.38375075323E+02  0.17317323911E+02  0.11024934192E+03  0.11801463260E+03  0.00000000000E+00 0. -1.
        -14    1    5    5    0    0 -0.19520067883E+02 -0.38675964328E+02  0.12799617963E+03  0.13512914292E+03  0.00000000000E+00 0.  1.
          5    1    4    4  501    0  0.51153046896E+02  0.51465386134E+02 -0.53067568751E+02  0.89994218869E+02  0.41800000000E+01 0.  1.
         -5    1    4    4    0  501 -0.51286039968E+01 -0.60536742876E+02 -0.46721393702E+02  0.76755200778E+02  0.41800000000E+01 0.  1.
</event>
<event>
11    1  0.8551154E-009  0.5506677E+03  0.7561462E-02  0.9286925E-01
         22   -1    0    0    0    0  0.00000000000E+00  0.00000000000E+00  0.17975518892E+04  0.17975518892E+04  0.00000000000E+00 0. -1.
         22   -1    0    0    0    0 -0.00000000000E+00 -0.00000000000E+00 -0.67269346859E+03  0.67269346859E+03  0.00000000000E+00 0. -1.
        -24    2    1    2    0    0 -0.45008057538E+03 -0.23662106997E+03 -0.31114627017E+03  0.60195874790E+03  0.83548055904E+02 0.  0.
         25    2    1    2    0    0  0.47566109857E+03  0.61626982787E+03  0.80393227881E+03  0.11260536176E+04  0.12509060463E+03 0.  0.
         24    2    1    2    0    0 -0.25580523191E+02 -0.37964875790E+03  0.63207241202E+03  0.74223299235E+03  0.81281845158E+02 0.  0.
        -13    1    5    5    0    0  0.93660749704E+01 -0.16830984148E+01  0.15321244758E+02  0.18035984075E+02  0.00000000000E+00 0.  1.
         14    1    5    5    0    0 -0.34946598161E+02 -0.37796565949E+03  0.61675116726E+03  0.72419700827E+03  0.00000000000E+00 0. -1.
         13    1    3    3    0    0 -0.25322385300E+03 -0.16684236150E+03 -0.15095261093E+03  0.33874088041E+03  0.00000000000E+00 0. -1.
        -14    1    3    3    0    0 -0.19685672238E+03 -0.69778708472E+02 -0.16019365924E+03  0.26321786748E+03  0.00000000000E+00 0.  1.
          5    1    4    4  501    0  0.10440528575E+03  0.22632549308E+03  0.27774605818E+03  0.37320776753E+03  0.41800000000E+01 0.  1.
         -5    1    4    4    0  501  0.37125581282E+03  0.38994433479E+03  0.52618622062E+03  0.75284585006E+03  0.41800000000E+01 0.  1.
</event>
<event>
11    1  0.8551154E-009  0.1336026E+03  0.7561462E-02  0.1114920E+00
         22   -1    0    0    0    0  0.00000000000E+00  0.00000000000E+00  0.16440450074E+04  0.16440450074E+04  0.00000000000E+00 0.  1.
         22   -1    0    0    0    0 -0.00000000000E+00 -0.00000000000E+00 -0.10121573584E+03  0.10121573584E+03  0.00000000000E+00 0.  1.
         24    2    1    2    0    0 -0.39994393884E+02  0.19294388885E+02 -0.55548599453E+02  0.10666896359E+03  0.79503433307E+02 0.  0.
         25    2    1    2    0    0  0.49461284944E+02 -0.73609825159E+02  0.29716533050E+03  0.33439375035E+03  0.12508845493E+03 0.  0.
        -24    2    1    2    0    0 -0.94668910601E+01  0.54315436274E+02  0.13012125405E+04  0.13041980293E+04  0.68837746633E+02 0.  0.
        -13    1    3    3    0    0  0.15470039001E+02  0.25687255832E+02 -0.37453205380E+02  0.47978118055E+02  0.00000000000E+00 0.  1.
         14    1    3    3    0    0 -0.55464432885E+02 -0.63928669471E+01 -0.18095394074E+02  0.58690845536E+02  0.00000000000E+00 0. -1.
         11    1    5    5    0    0 -0.25813846749E+02  0.26598594879E+02  0.27565505736E+03  0.27813584914E+03  0.00000000000E+00 0. -1.
        -12    1    5    5    0    0  0.16346955689E+02  0.27716841395E+02  0.10255574831E+04  0.10260621801E+04  0.00000000000E+00 0.  1.
          5    1    4    4  501    0 -0.21069585856E+02 -0.48065954521E+02  0.39001312095E+02  0.65519754100E+02  0.41800000000E+01 0.  1.
         -5    1    4    4    0  501  0.70530870800E+02 -0.25543870638E+02  0.25816401840E+03  0.26887399625E+03  0.41800000000E+01 0.  1.
</event>
<event>
11    1  0.8551154E-009  0.1559599E+03  0.7561462E-02  0.1090940E+00
         22   -1    0    0    0    0  0.00000000000E+00  0.00000000000E+00  0.30644874922E+03  0.30644874922E+03  0.00000000000E+00 0. -1.
         22   -1    0    0    0    0 -0.00000000000E+00 -0.00000000000E+00 -0.75765713794E+03  0.75765713794E+03  0.00000000000E+00 0. -1.
         24    2    1    2    0    0 -0.25508703307E+02 -0.24437136990E+01 -0.67259560286E+03  0.67772420501E+03  0.79174411141E+02 0.  0.
         25    2    1    2    0    0  0.90308307101E+01 -0.90619766269E+02  0.29420660739E+02  0.15750302257E+03  0.12509248138E+03 0.  0.
        -24    2    1    2    0    0  0.16477872597E+02  0.93063479968E+02  0.19196655340E+03  0.22887865958E+03  0.81252394417E+02 0.  0.
        -11    1    3    3    0    0 -0.93904250716E+01 -0.39719563852E+02 -0.26715413723E+03  0.27025387486E+03  0.00000000000E+00 0.  1.
         12    1    3    3    0    0 -0.16118278235E+02  0.37275850153E+02 -0.40544146563E+03  0.40747033015E+03  0.00000000000E+00 0. -1.
         13    1    5    5    0    0 -0.20134101000E+02  0.60980003330E+02  0.15492723620E+03  0.16770924646E+03  0.00000000000E+00 0. -1.
        -14    1    5    5    0    0  0.36611973596E+02  0.32083476637E+02  0.37039317199E+02  0.61169413127E+02  0.00000000000E+00 0.  1.
          5    1    4    4  501    0 -0.19268413348E+02  0.19289269961E+02 -0.19566032197E+02  0.33817890302E+02  0.41800000000E+01 0.  1.
         -5    1    4    4    0  501  0.28299244058E+02 -0.10990903623E+03  0.48986692936E+02  0.12368513227E+03  0.41800000000E+01 0.  1.
</event>
<event>
11    1  0.8551154E-009  0.1589704E+03  0.7561462E-02  0.1088050E+00
         22   -1    0    0    0    0  0.00000000000E+00  0.00000000000E+00  0.63500511508E+03  0.63500511508E+03  0.00000000000E+00 0.  1.
         22   -1    0    0    0    0 -0.00000000000E+00 -0.00000000000E+00 -0.47729786998E+03  0.47729786998E+03  0.00000000000E+00 0.  1.
         24    2    1    2    0    0  0.43586164793E+02  0.18741893977E+02 -0.26921914023E+03  0.28546562513E+03  0.82223265049E+02 0.  0.
         25    2    1    2    0    0  0.49361015326E+02  0.17349265997E+02 -0.16938899288E+03  0.21697397566E+03  0.12509024080E+03 0.  0.
        -24    2    1    2    0    0 -0.92947180119E+02 -0.36091159974E+02  0.59631537821E+03  0.60986338427E+03  0.79997294035E+02 0.  0.
        -11    1    3    3    0    0  0.19280684550E+02  0.11948669057E+02 -0.25594957864E+03  0.25695272386E+03  0.00000000000E+00 0.  1.
         12    1    3    3    0    0  0.24305480243E+02  0.67932249202E+01 -0.13269561589E+02  0.28512901280E+02  0.00000000000E+00 0. -1.
         13    1    5    5    0    0  0.98535323850E+01  0.87809342395E+01  0.10951708429E+03  0.11030951300E+03  0.00000000000E+00 0. -1.
        -14    1    5    5    0    0 -0.10280071250E+03 -0.44872094214E+02  0.48679829392E+03  0.49955387126E+03  0.00000000000E+00 0.  1.
          5    1    4    4  501    0  0.21018130128E+02  0.23305553092E+02  0.11536957502E+02  0.33696949230E+02  0.41800000000E+01 0. -1.
         -5    1    4    4    0  501  0.28342885198E+02 -0.59562870951E+01 -0.18092595038E+03  0.18327702643E+03  0.41800000000E+01 0. -1.
</event>
<event>
11    1  0.8551154E-009  0.1898792E+03  0.7561462E-02  0.1061921E+00
         22   -1    0    0    0    0  0.00000000000E+00  0.00000000000E+00  0.73822666079E+03  0.73822666079E+03  0.00000000000E+00 0. -1.
         22   -1    0    0    0    0 -0.00000000000E+00 -0.00000000000E+00 -0.15115233905E+04  0.15115233905E+04  0.00000000000E+00 0. -1.
        -24    2    1    2    0    0  0.83133577332E+02  0.11989528782E+03 -0.14415979741E+04  0.14512044371E+04  0.80644453264E+02 0.  0.
         25    2    1    2    0    0 -0.85152513774E+02 -0.36367504894E+02  0.41053569503E+02  0.16095527558E+03  0.12509060378E+03 0.  0.
         24    2    1    2    0    0  0.20189364422E+01 -0.83527782923E+02  0.62724767486E+03  0.63759033857E+03  0.78107794717E+02 0.  0.
        -13    1    5    5    0    0 -0.80829557014E+01 -0.18989982269E+02  0.27955923802E+02  0.34748917611E+02  0.00000000000E+00 0.  1.
         14    1    5    5    0    0  0.10101892144E+02 -0.64537800653E+02  0.59929175106E+03  0.60284142096E+03  0.00000000000E+00 0. -1.
         13    1    3    3    0    0  0.63918567737E+02  0.38221659005E+02 -0.90812448393E+03  0.91117317609E+03  0.00000000000E+00 0. -1.
        -14    1    3    3    0    0  0.19215009594E+02  0.81673628812E+02 -0.53347349013E+03  0.54003126105E+03  0.00000000000E+00 0.  1.
          5    1    4    4  501    0 -0.24349793729E+02 -0.31566289245E+02  0.79290685422E+02  0.88847218674E+02  0.41800000000E+01 0.  1.
         -5    1    4    4    0  501 -0.60802720045E+02 -0.48012156490E+01 -0.38237115919E+02  0.72108056903E+02  0.41800000000E+01 0.  1.
</event>
<event>
11    1  0.8551154E-009  0.1317272E+03  0.7561462E-02  0.1117165E+00
         22   -1    0    0    0    0  0.00000000000E+00  0.00000000000E+00  0.97817257166E+02  0.97817257166E+02  0.00000000000E+00 0. -1.
         22   -1    0    0    0    0 -0.00000000000E+00 -0.00000000000E+00 -0.14605970873E+04  0.14605970873E+04  0.00000000000E+00 0. -1.
        -24    2    1    2    0    0  0.11150388153E+02  0.62685419275E+01 -0.13308414435E+04  0.13333130878E+04  0.80132494029E+02 0.  0.
         25    2    1    2    0    0 -0.75740663617E+01 -0.44727520406E+02 -0.87665546496E+01  0.13335031955E+03  0.12509011823E+03 0.  0.
         24    2    1    2    0    0 -0.35763217914E+01  0.38458978478E+02 -0.23171831935E+02  0.91750937067E+02  0.79933832350E+02 0.  0.
        -11    1    5    5    0    0  0.14040420038E+02 -0.13951346961E+02 -0.30102012237E+02  0.36026443310E+02  0.00000000000E+00 0.  1.
         12    1    5    5    0    0 -0.17616741830E+02  0.52410325439E+02  0.69301803022E+01  0.55724493756E+02  0.00000000000E+00 0. -1.
         11    1    3    3    0    0 -0.98938183743E+01  0.32450890745E+02 -0.10375119670E+04  0.10380664862E+04  0.00000000000E+00 0. -1.
        -12    1    3    3    0    0  0.21044206527E+02 -0.26182348818E+02 -0.29332947646E+03  0.29524660163E+03  0.00000000000E+00 0.  1.
          5    1    4    4  501    0 -0.20796897372E+02 -0.78682403309E+02  0.23165105261E+02  0.84720281117E+02  0.41800000000E+01 0. -1.
         -5    1    4    4    0  501  0.13222831010E+02  0.33954882904E+02 -0.31931659910E+02  0.48630038428E+02  0.41800000000E+01 0. -1.
</event>
<event>
11    1  0.8551154E-009  0.1250945E+03  0.7561462E-02  0.1125448E+00
         22   -1    0    0    0    0  0.00000000000E+00  0.00000000000E+00  0.78868160128E+03  0.78868160128E+03  0.00000000000E+00 0. -1.
         22   -1    0    0    0    0 -0.00000000000E+00 -0.00000000000E+00 -0.21397539959E+03  0.21397539959E+03  0.00000000000E+00 0.  1.
        -24    2    1    2    0    0 -0.30165762820E+02 -0.26085216176E+02 -0.17582830167E+03  0.19771311340E+03  0.81144758266E+02 0.  0.
         25    2    1    2    0    0  0.26017449625E+02  0.23561016772E+02  0.15357371844E+03  0.20115879001E+03  0.12509173676E+03 0.  0.
         24    2    1    2    0    0  0.41483131954E+01  0.25241994050E+01  0.59696078492E+03  0.60378509747E+03  0.90391842023E+02 0.  0.
        -13    1    5    5    0    0  0.50361969247E+00  0.44717306533E+02  0.22345302638E+03  0.22788406293E+03  0.00000000000E+00 0.  1.
         14    1    5    5    0    0  0.36446935029E+01 -0.42193107129E+02  0.37350775854E+03  0.37590103454E+03  0.00000000000E+00 0. -1.
         11    1    3    3    0    0 -0.16599184356E+02 -0.36178288156E+02 -0.27397087399E+02  0.48321856889E+02  0.00000000000E+00 0. -1.
        -12    1    3    3    0    0 -0.13566578465E+02  0.10093071980E+02 -0.14843121427E+03  0.14939125651E+03  0.00000000000E+00 0.  1.
          5    1    4    4  501    0  0.51383187554E+02 -0.33004386701E+02  0.10786531410E+03  0.12402386823E+03  0.41800000000E+01 0. -1.
         -5    1    4    4    0  501 -0.25365737929E+02  0.56565403473E+02  0.45708404339E+02  0.77134921779E+02  0.41800000000E+01 0. -1.
</event>
<event>
11    1  0.8551154E-009  0.1483716E+03  0.7561462E-02  0.1098554E+00
         22   -1    0    0    0    0  0.00000000000E+00  0.00000000000E+00  0.16783985683E+04  0.16783985683E+04  0.00000000000E+00 0.  1.
         22   -1    0    0    0    0 -0.00000000000E+00 -0.00000000000E+00 -0.17291218675E+04  0.17291218675E+04  0.00000000000E+00 0.  1.
        -24    2    1    2    0    0  0.39507274342E+02 -0.28741541244E+02 -0.16783285301E+04  0.16810419499E+04  0.82027321149E+02 0.  0.
         25    2    1    2    0    0 -0.11688272859E+03  0.16612964543E+02  0.10881667302E+03  0.20353608626E+03  0.12509319427E+03 0.  0.
         24    2    1    2    0    0  0.77375454244E+02  0.12128576701E+02  0.15187885579E+04  0.15229423995E+04  0.80627572696E+02 0.  0.
        -11    1    5    5    0    0  0.57075481379E+02 -0.91047498049E+01  0.13734109663E+04  0.13746265636E+04  0.00000000000E+00 0.  1.
         12    1    5    5    0    0  0.20299972865E+02  0.21233326506E+02  0.14537759162E+03  0.14831583596E+03  0.00000000000E+00 0. -1.
         13    1    3    3    0    0  0.55956059741E+02  0.56346531434E+00 -0.74043857778E+03  0.74255012328E+03  0.00000000000E+00 0. -1.
        -14    1    3    3    0    0 -0.16448785399E+02 -0.29305006558E+02 -0.93788995233E+03  0.93849182662E+03  0.00000000000E+00 0.  1.
          5    1    4    4  501    0 -0.11720855748E+03  0.56890441628E+02  0.92691169791E+02  0.15994840934E+03  0.41800000000E+01 0.  1.
         -5    1    4    4    0  501  0.32582889204E+00 -0.40277477085E+02  0.16125503231E+02  0.43587676919E+02  0.41800000000E+01 0.  1.
</event>
<event>
11    1  0.8551154E-009  0.1360612E+03  0.7561462E-02  0.1112038E+00
         22   -1    0    0    0    0  0.00000000000E+00  0.00000000000E+00  0.30720716779E+04  0.30720716779E+04  0.00000000000E+00 0.  1.
         22   -1    0    0    0    0 -0.00000000000E+00 -0.00000000000E+00 -0.58093863993E+03  0.58093863993E+03  0.00000000000E+00 0. -1.
        -24    2    1    2    0    0 -0.35814898913E+02 -0.26466672759E+02 -0.56269512540E+03  0.57013213053E+03  0.80259892631E+02 0.  0.
         25    2    1    2    0    0  0.83356610617E+02  0.50557666072E+01  0.40089075300E+03  0.42817762121E+03  0.12509514041E+03 0.  0.
         24    2    1    2    0    0 -0.47541711704E+02  0.21410906152E+02  0.26529374104E+04  0.26547005661E+04  0.81483439814E+02 0.  0.
        -11    1    5    5    0    0 -0.69975619855E+02  0.80860677899E+01  0.18567752766E+04  0.18581109762E+04  0.00000000000E+00 0.  1.
         12    1    5    5    0    0  0.22433908151E+02  0.13324838362E+02  0.79616213376E+03  0.79658958994E+03  0.00000000000E+00 0. -1.
         11    1    3    3    0    0 -0.14082649064E+02  0.38258897858E+01 -0.46991757711E+03  0.47014411377E+03  0.00000000000E+00 0. -1.
        -12    1    3    3    0    0 -0.21732249849E+02 -0.30292562544E+02 -0.92777548294E+02  0.99988016764E+02  0.00000000000E+00 0.  1.
          5    1    4    4  501    0  0.86406513683E+02 -0.26597856026E+01  0.12448127925E+03  0.15161207522E+03  0.41800000000E+01 0.  1.
         -5    1    4    4    0  501 -0.30499030660E+01  0.77155522098E+01  0.27640947374E+03  0.27656554599E+03  0.41800000000E+01 0.  1.
</event>
<event>
11    1  0.8551154E-009  0.2164110E+03  0.7561462E-02  0.1043489E+00
         22   -1    0    0    0    0  0.00000000000E+00  0.00000000000E+00  0.14086916521E+03  0.14086916521E+03  0.00000000000E+00 0. -1.
         22   -1    0    0    0    0 -0.00000000000E+00 -0.00000000000E+00 -0.22639999449E+04  0.22639999449E+04  0.00000000000E+00 0.  1.
         24    2    1    2    0    0  0.91161121954E+01 -0.51584447935E+01 -0.18870463580E+04  0.18885710432E+04  0.75145958170E+02 0.  0.
         25    2    1    2    0    0 -0.10347643049E+03  0.15162789165E+03 -0.23651469739E+03  0.32447654949E+03  0.12508972738E+03 0.  0.
        -24    2    1    2    0    0  0.94360318292E+02 -0.14646944686E+03  0.43027562367E+00  0.19182151746E+03  0.80238026465E+02 0.  0.
        -11    1    3    3    0    0 -0.29260352513E+02  0.11612705132E+02 -0.57982504852E+03  0.58067900775E+03  0.00000000000E+00 0.  1.
         12    1    3    3    0    0  0.38376464708E+02 -0.16771149926E+02 -0.13072213094E+04  0.13078920354E+04  0.00000000000E+00 0. -1.
         11    1    5    5    0    0  0.66749963569E+02 -0.14915376236E+03  0.60365004358E+01  0.16352015717E+03  0.00000000000E+00 0. -1.
        -12    1    5    5    0    0  0.27610354724E+02  0.26843154997E+01 -0.56062248122E+01  0.28301360291E+02  0.00000000000E+00 0.  1.
          5    1    4    4  501    0 -0.22974237178E+02  0.13719593376E+03 -0.16402405768E+03  0.21510905075E+03  0.41800000000E+01 0.  1.
         -5    1    4    4    0  501 -0.80502193310E+02  0.14431957888E+02 -0.72490639709E+02  0.10936749874E+03  0.41800000000E+01 0.  1.
</event>
<event>
11    1  0.8551154E-009  0.1323006E+03  0.7561462E-02  0.1116474E+00
         22   -1    0    0    0    0  0.00000000000E+00  0.00000000000E+00  0.77201817858E+02  0.77201817858E+02  0.00000000000E+00 0.  1.
         22   -1    0    0    0    0 -0.00000000000E+00 -0.00000000000E+00 -0.15138704350E+04  0.15138704350E+04  0.00000000000E+00 0.  1.
         24    2    1    2    0    0 -0.38004605722E+02 -0.21723740944E+02 -0.13124500089E+04  0.13157806698E+04  0.82689021948E+02 0.  0.
         25    2    1    2    0    0  0.47266292986E+02 -0.23808753215E+02 -0.12088737297E+03  0.18182997221E+03  0.12508965851E+03 0.  0.
        -24    2    1    2    0    0 -0.92616872645E+01  0.45532494159E+02 -0.33312352838E+01  0.93461610799E+02  0.81024617798E+02 0.  0.
        -11    1    3    3    0    0 -0.59339775061E+02 -0.49547626659E+01 -0.10990944760E+04  0.11007063303E+04  0.00000000000E+00 0.  1.
         12    1    3    3    0    0  0.21335169339E+02 -0.16768978278E+02 -0.21335553291E+03  0.21507433949E+03  0.00000000000E+00 0. -1.
         11    1    5    5    0    0 -0.23535500273E+02  0.39894860268E+02 -0.35142310433E+02  0.58142081416E+02  0.00000000000E+00 0. -1.
        -12    1    5    5    0    0  0.14273813008E+02  0.56376338912E+01  0.31811075149E+02  0.35319529383E+02  0.00000000000E+00 0.  1.
          5    1    4    4  501    0  0.33163730208E+00  0.48041088002E+02 -0.57562275157E+02  0.75092902733E+02  0.41800000000E+01 0. -1.
         -5    1    4    4    0  501  0.46934655684E+02 -0.71849841217E+02 -0.63325097818E+02  0.10673706948E+03  0.41800000000E+01 0. -1.
</event>
<event>
11    1  0.8551154E-009  0.1286594E+03  0.7561462E-02  0.1120927E+00
         22   -1    0    0    0    0  0.00000000000E+00  0.00000000000E+00  0.27373140239E+03  0.27373140239E+03  0.00000000000E+00 0. -1.
         22   -1    0    0    0    0 -0.00000000000E+00 -0.00000000000E+00 -0.23860381471E+03  0.23860381471E+03  0.00000000000E+00 0.  1.
        -24    2    1    2    0    0  0.74665030032E+01 -0.36173404838E+02 -0.14917410862E+03  0.17408922176E+03  0.81791677862E+02 0.  0.
         25    2    1    2    0    0 -0.40682654030E+02 -0.19941159391E+02 -0.69547166232E+00  0.13304159015E+03  0.12508738087E+03 0.  0.
         24    2    1    2    0    0  0.33216151027E+02  0.56114564229E+02  0.18499716795E+03  0.20520440519E+03  0.60272205447E+02 0.  0.
        -11    1    5    5    0    0  0.72216446241E+01 -0.25589645556E+01 -0.16463174653E+01  0.78365050801E+01  0.00000000000E+00 0.  1.
         12    1    5    5    0    0  0.25994506403E+02  0.58673528785E+02  0.18664348542E+03  0.19736790011E+03  0.00000000000E+00 0. -1.
         11    1    3    3    0    0 -0.37212658341E+02 -0.17000598299E+02 -0.62217547809E+02  0.74463585320E+02  0.00000000000E+00 0. -1.
        -12    1    3    3    0    0  0.44679161344E+02 -0.19172806539E+02 -0.86956560809E+02  0.99625636444E+02  0.00000000000E+00 0.  1.
          5    1    4    4  501    0  0.17158060389E+01  0.43851755503E+02  0.26753825098E+02  0.51567043821E+02  0.41800000000E+01 0.  1.
         -5    1    4    4    0  501 -0.42398460069E+02 -0.63792914894E+02 -0.27449296760E+02  0.81474546329E+02  0.41800000000E+01 0.  1.
</event>
<event>
11    1  0.8551154E-009  0.1295109E+03  0.7561462E-02  0.1119871E+00
         22   -1    0    0    0    0  0.00000000000E+00  0.00000000000E+00  0.62744854609E+02  0.62744854609E+02  0.00000000000E+00 0.  1.
         22   -1    0    0    0    0 -0.00000000000E+00 -0.00000000000E+00 -0.24638779557E+04  0.24638779557E+04  0.00000000000E+00 0.  1.
         24    2    1    2    0    0 -0.23323840299E+02  0.24757466828E+02 -0.19267879270E+04  0.19287276070E+04  0.79508068441E+02 0.  0.
         25    2    1    2    0    0  0.50014874777E+00 -0.39038236446E+02 -0.49387098539E+03  0.51095776898E+03  0.12508020396E+03 0.  0.
        -24    2    1    2    0    0  0.22823691551E+02  0.14280769618E+02  0.19525811242E+02  0.86937434312E+02  0.80324335685E+02 0.  0.
        -13    1    3    3    0    0 -0.13847906563E+02  0.52320809524E+02 -0.14804844105E+04  0.14814733617E+04  0.00000000000E+00 0.  1.
         14    1    3    3    0    0 -0.94759337358E+01 -0.27563342696E+02 -0.44630351643E+03  0.44725424532E+03  0.00000000000E+00 0. -1.
         11    1    5    5    0    0  0.35816485096E+02  0.26319716997E+02 -0.16001148464E+02  0.47239653466E+02  0.00000000000E+00 0. -1.
        -12    1    5    5    0    0 -0.12992793545E+02 -0.12038947378E+02  0.35526959706E+02  0.39697780846E+02  0.00000000000E+00 0.  1.
          5    1    4    4  501    0 -0.18608709426E+02  0.40226922751E+02 -0.11340152681E+03  0.12182720576E+03  0.41800000000E+01 0.  1.
         -5    1    4    4    0  501  0.19108858174E+02 -0.79265159198E+02 -0.38046945858E+03  0.38913056322E+03  0.41800000000E+01 0.  1.
</event>
<event>
11    1  0.8551154E-009  0.1594782E+03  0.7561462E-02  0.1087569E+00
         22   -1    0    0    0    0  0.00000000000E+00  0.00000000000E+00  0.10114834702E+04  0.10114834702E+04  0.00000000000E+00 0. -1.
         22   -1    0    0    0    0 -0.00000000000E+00 -0.00000000000E+00 -0.91702143218E+03  0.91702143218E+03  0.00000000000E+00 0. -1.
        -24    2    1    2    0    0 -0.64840210967E+01  0.29901904799E+02 -0.85193729902E+03  0.85625761916E+03  0.80273174016E+02 0.  0.
         25    2    1    2    0    0 -0.61687676958E+01 -0.12592472554E+03  0.76614856118E+02  0.19342227567E+03  0.12508896974E+03 0.  0.
         24    2    1    2    0    0  0.12652788792E+02  0.96022820743E+02  0.86978448093E+03  0.87882500755E+03  0.80174032317E+02 0.  0.
        -13    1    5    5    0    0  0.13287688921E+02  0.42265004630E+02  0.13516390466E+03  0.14223984820E+03  0.00000000000E+00 0.  1.
         14    1    5    5    0    0 -0.63490012887E+00  0.53757816113E+02  0.73462057628E+03  0.73658515936E+03  0.00000000000E+00 0. -1.
         11    1    3    3    0    0  0.94278974405E+00  0.56862305514E+02 -0.63099733665E+03  0.63355493013E+03  0.00000000000E+00 0. -1.
        -12    1    3    3    0    0 -0.74268108407E+01 -0.26960400714E+02 -0.22093996237E+03  0.22270268903E+03  0.00000000000E+00 0.  1.
          5    1    4    4  501    0 -0.50148250500E+02 -0.34582134181E+02  0.68304752990E+02  0.91617589543E+02  0.41800000000E+01 0. -1.
         -5    1    4    4    0  501  0.43979482804E+02 -0.91342591361E+02  0.83101031285E+01  0.10180468613E+03  0.41800000000E+01 0. -1.
</event>
<event>
11    1  0.8551154E-009  0.2583928E+03  0.7561462E-02  0.1019521E+00
         22   -1    0    0    0    0  0.00000000000E+00  0.00000000000E+00  0.29627837286E+03  0.29627837286E+03  0.00000000000E+00 0.  1.
         22   -1    0    0    0    0 -0.00000000000E+00 -0.00000000000E+00 -0.10915638262E+04  0.10915638262E+04  0.00000000000E+00 0.  1.
         24    2    1    2    0    0 -0.64215825986E+02 -0.16718892397E+03 -0.38789003278E+03  0.43489767738E+03  0.81249637823E+02 0.  0.
         25    2    1    2    0    0  0.17862787077E+03  0.26868766982E+03 -0.60102343294E+03  0.69352621189E+03  0.12509380279E+03 0.  0.
        -24    2    1    2    0    0 -0.11441204479E+03 -0.10149874584E+03  0.19362801237E+03  0.25941830983E+03  0.80087083226E+02 0.  0.
        -11    1    3    3    0    0 -0.67552355136E+02 -0.11319693054E+03 -0.33153920688E+03  0.35678440475E+03  0.00000000000E+00 0.  1.
         12    1    3    3    0    0  0.33365291497E+01 -0.53991993428E+02 -0.56350825901E+02  0.78113272629E+02  0.00000000000E+00 0. -1.
         11    1    5    5    0    0 -0.38039077053E+02 -0.63576357614E+02  0.41230014696E+02  0.84787019893E+02  0.00000000000E+00 0. -1.
        -12    1    5    5    0    0 -0.76372967734E+02 -0.37922388229E+02  0.15239799767E+03  0.17463128993E+03  0.00000000000E+00 0.  1.
          5    1    4    4  501    0  0.76847388671E+02  0.14616778058E+03 -0.18491610669E+03  0.24795560115E+03  0.41800000000E+01 0. -1.
         -5    1    4    4    0  501  0.10178048210E+03  0.12251988923E+03 -0.41610732625E+03  0.44557061074E+03  0.41800000000E+01 0. -1.
</event>
<event>
11    1  0.8551154E-009  0.1281822E+03  0.7561462E-02  0.1121523E+00
         22   -1    0    0    0    0  0.00000000000E+00  0.00000000000E+00  0.17452648444E+04  0.17452648444E+04  0.00000000000E+00 0.  1.
         22   -1    0    0    0    0 -0.00000000000E+00 -0.00000000000E+00 -0.37403739211E+03  0.37403739211E+03  0.00000000000E+00 0. -1.
        -24    2    1    2    0    0  0.17302199270E+02 -0.22610889738E+02 -0.34331043720E+03  0.35351410507E+03  0.79369690442E+02 0.  0.
         25    2    1    2    0    0  0.20204509342E+01  0.17613791524E+02  0.13805556688E+03  0.18713786672E+03  0.12508762425E+03 0.  0.
         24    2    1    2    0    0 -0.19322650204E+02  0.49970982136E+01  0.15764823226E+04  0.15786502647E+04  0.80260881208E+02 0.  0.
        -11    1    5    5    0    0 -0.49030101215E+02  0.14273035702E+02  0.10627164825E+04  0.10639426641E+04  0.00000000000E+00 0.  1.
         12    1    5    5    0    0  0.29707451010E+02 -0.92759374888E+01  0.51376584011E+03  0.51470760061E+03  0.00000000000E+00 0. -1.
         11    1    3    3    0    0  0.14854505376E+02  0.21019830281E+02 -0.23952488613E+03  0.24090384113E+03  0.00000000000E+00 0. -1.
        -12    1    3    3    0    0  0.24476938939E+01 -0.43630720018E+02 -0.10378555107E+03  0.11261026394E+03  0.00000000000E+00 0.  1.
          5    1    4    4  501    0 -0.59859808899E+02  0.58903841246E+01  0.47509477261E+02  0.76762726477E+02  0.41800000000E+01 0. -1.
         -5    1    4    4    0  501  0.61880259833E+02  0.11723407399E+02  0.90546089623E+02  0.11037514025E+03  0.41800000000E+01 0. -1.
</event>
<event>
11    1  0.8551154E-009  0.1880780E+03  0.7561462E-02  0.1063290E+00
         22   -1    0    0    0    0  0.00000000000E+00  0.00000000000E+00  0.35894163884E+03  0.35894163884E+03  0.00000000000E+00 0. -1.
         22   -1    0    0    0    0 -0.00000000000E+00 -0.00000000000E+00 -0.16474405968E+04  0.16474405968E+04  0.00000000000E+00 0. -1.
         24    2    1    2    0    0  0.79087600656E+02  0.99253983201E+01 -0.15059080634E+04  0.15101802035E+04  0.80819487950E+02 0.  0.
         25    2    1    2    0    0 -0.15320977694E+03  0.10118452044E+03 -0.70968252004E+01  0.22228133454E+03  0.12508830414E+03 0.  0.
        -24    2    1    2    0    0  0.74122176283E+02 -0.11110991876E+03  0.22450593068E+03  0.27392069753E+03  0.82402212114E+02 0.  0.
        -13    1    3    3    0    0  0.18335030728E+02  0.25483397830E+02 -0.98656909284E+03  0.98706846361E+03  0.00000000000E+00 0.  1.
         14    1    3    3    0    0  0.60752569928E+02 -0.15557999509E+02 -0.51933897056E+03  0.52311173992E+03  0.00000000000E+00 0. -1.
         13    1    5    5    0    0  0.83588129688E+02 -0.78039934151E+02  0.20402335787E+03  0.23388616313E+03  0.00000000000E+00 0. -1.
        -14    1    5    5    0    0 -0.94659534048E+01 -0.33069984604E+02  0.20482572809E+02  0.40034534398E+02  0.00000000000E+00 0.  1.
          5    1    4    4  501    0 -0.16066528542E+03  0.47326603148E+02 -0.25812001226E+01  0.16756275332E+03  0.41800000000E+01 0.  1.
         -5    1    4    4    0  501  0.74555084841E+01  0.53857917287E+02 -0.45156250779E+01  0.54718581224E+02  0.41800000000E+01 0.  1.
</event>
<event>
11    1  0.8551154E-009  0.1613621E+03  0.7561462E-02  0.1085803E+00
         22   -1    0    0    0    0  0.00000000000E+00  0.00000000000E+00  0.56478817846E+03  0.56478817846E+03  0.00000000000E+00 0. -1.
         22   -1    0    0    0    0 -0.00000000000E+00 -0.00000000000E+00 -0.56399016199E+03  0.56399016199E+03  0.00000000000E+00 0. -1.
         24    2    1    2    0    0  0.92010618801E+01  0.10476692472E+03 -0.46765530260E+03  0.48618216490E+03  0.81307117572E+02 0.  0.
         25    2    1    2    0    0  0.60477872274E+01 -0.79587488649E+02 -0.17219974293E+02  0.14937976885E+03  0.12508814391E+03 0.  0.
        -24    2    1    2    0    0 -0.15248849107E+02 -0.25179436066E+02  0.48567329336E+03  0.49321640670E+03  0.80730072202E+02 0.  0.
        -13    1    3    3    0    0  0.12347491586E+02  0.22178708089E+02 -0.24133170996E+02  0.35025213537E+02  0.00000000000E+00 0.  1.
         14    1    3    3    0    0 -0.31464297063E+01  0.82588216626E+02 -0.44352213160E+03  0.45115695136E+03  0.00000000000E+00 0. -1.
         13    1    5    5    0    0 -0.20977285669E+01  0.15460755708E+02  0.36270549852E+03  0.36304092619E+03  0.00000000000E+00 0. -1.
        -14    1    5    5    0    0 -0.13151120541E+02 -0.40640191774E+02  0.12296779484E+03  0.13017548051E+03  0.00000000000E+00 0.  1.
          5    1    4    4  501    0 -0.26729663008E+02 -0.82051032013E-01  0.38330023140E+02  0.46916358456E+02  0.41800000000E+01 0. -1.
         -5    1    4    4    0  501  0.32777450235E+02 -0.79505437617E+02 -0.55549997432E+02  0.10246341039E+03  0.41800000000E+01 0. -1.
</event>
<event>
11    1  0.8551154E-009  0.1309110E+03  0.7561462E-02  0.1118155E+00
         22   -1    0    0    0    0  0.00000000000E+00  0.00000000000E+00  0.88671708780E+03  0.88671708780E+03  0.00000000000E+00 0. -1.
         22   -1    0    0    0    0 -0.00000000000E+00 -0.00000000000E+00 -0.10240502886E+03  0.10240502886E+03  0.00000000000E+00 0. -1.
        -24    2    1    2    0    0 -0.24735732994E+02  0.30255986691E+02 -0.65144388295E+02  0.11047607241E+03  0.80211533026E+02 0.  0.
         25    2    1    2    0    0  0.13626073231E+02 -0.28971786368E+02  0.35875011835E+03  0.38127795478E+03  0.12508475970E+03 0.  0.
         24    2    1    2    0    0  0.11109659763E+02 -0.12842003225E+01  0.49070632889E+03  0.49736808948E+03  0.80356963012E+02 0.  0.
        -11    1    5    5    0    0  0.27945152777E+01 -0.31330076984E+02  0.87922649648E+02  0.93379737420E+02  0.00000000000E+00 0.  1.
         12    1    5    5    0    0  0.83151444852E+01  0.30045876662E+02  0.40278367924E+03  0.40398835206E+03  0.00000000000E+00 0. -1.
         11    1    3    3    0    0 -0.24982601538E+02  0.55766223973E+02 -0.57342402238E+02  0.83798288826E+02  0.00000000000E+00 0. -1.
        -12    1    3    3    0    0  0.24686854439E+00 -0.25510237282E+02 -0.78019860569E+01  0.26677783579E+02  0.00000000000E+00 0.  1.
          5    1    4    4  501    0 -0.30969346791E+01  0.23954321719E+02  0.29752253379E+03  0.29853061995E+03  0.41800000000E+01 0. -1.
         -5    1    4    4    0  501  0.16723007910E+02 -0.52926108087E+02  0.61227584557E+02  0.82747334830E+02  0.41800000000E+01 0. -1.
</event>
<event>
11    1  0.8551154E-009  0.1347138E+03  0.7561462E-02  0.1113609E+00
         22   -1    0    0    0    0  0.00000000000E+00  0.00000000000E+00  0.11315686276E+04  0.11315686276E+04  0.00000000000E+00 0. -1.
         22   -1    0    0    0    0 -0.00000000000E+00 -0.00000000000E+00 -0.16746725039E+03  0.16746725039E+03  0.00000000000E+00 0.  1.
         24    2    1    2    0    0  0.33928311281E+02  0.36801980439E+02 -0.14059974737E+03  0.16724256542E+03  0.75473642138E+02 0.  0.
         25    2    1    2    0    0 -0.23948920316E+02 -0.43849768115E+02  0.39417055298E+03  0.41655006925E+03  0.12508869814E+03 0.  0.
        -24    2    1    2    0    0 -0.99793909648E+01  0.70477876762E+01  0.71053057158E+03  0.71524324331E+03  0.81055193464E+02 0.  0.
        -11    1    3    3    0    0 -0.17530637805E+02  0.69355619763E+01 -0.80480562036E+02  0.82659216953E+02  0.00000000000E+00 0.  1.
         12    1    3    3    0    0  0.51458949086E+02  0.29866418463E+02 -0.60119185335E+02  0.84583348469E+02  0.00000000000E+00 0. -1.
         11    1    5    5    0    0 -0.78109658446E+01  0.31257632487E+02  0.63669484345E+03  0.63750950931E+03  0.00000000000E+00 0. -1.
        -12    1    5    5    0    0 -0.21684251202E+01 -0.24209844811E+02  0.73835728129E+02  0.77733734000E+02  0.00000000000E+00 0.  1.
          5    1    4    4  501    0  0.30190191015E+02 -0.58784055279E+01  0.29887735161E+03  0.30048485318E+03  0.41800000000E+01 0.  1.
         -5    1    4    4    0  501 -0.54139111331E+02 -0.37971362587E+02  0.95293201371E+02  0.11606521606E+03  0.41800000000E+01 0.  1.
</event>
<event>
11    1  0.8551154E-009  0.1900529E+03  0.7561462E-02  0.1061789E+00
         22   -1    0    0    0    0  0.00000000000E+00  0.00000000000E+00  0.11498844275E+04  0.11498844275E+04  0.00000000000E+00 0.  1.
         22   -1    0    0    0    0 -0.00000000000E+00 -0.00000000000E+00 -0.77542218644E+03  0.77542218644E+03  0.00000000000E+00 0.  1.
         24    2    1    2    0    0  0.39052335891E+02 -0.14496830429E+03 -0.57484576415E+03  0.59944748710E+03  0.79679000014E+02 0.  0.
         25    2    1    2    0    0 -0.79924066167E+02  0.99108830371E+02 -0.14322212133E+03  0.22884364869E+03  0.12508566224E+03 0.  0.
        -24    2    1    2    0    0  0.40871730275E+02  0.45859473916E+02  0.10925301265E+04  0.10970154781E+04  0.77764337940E+02 0.  0.
        -11    1    3    3    0    0  0.16017645208E+02 -0.49460319574E+02 -0.35316605403E+03  0.35697219765E+03  0.00000000000E+00 0.  1.
         12    1    3    3    0    0  0.23034690683E+02 -0.95507984713E+02 -0.22167971012E+03  0.24247528945E+03  0.00000000000E+00 0. -1.
         13    1    5    5    0    0  0.25195871607E+02  0.38206097917E+02  0.24101958162E+03  0.24532626559E+03  0.00000000000E+00 0. -1.
        -14    1    5    5    0    0  0.15675858669E+02  0.76533759992E+01  0.85151054487E+03  0.85168921253E+03  0.00000000000E+00 0.  1.
          5    1    4    4  501    0 -0.19224184834E+02  0.11310139679E+03 -0.79534302762E+02  0.13965913130E+03  0.41800000000E+01 0. -1.
         -5    1    4    4    0  501 -0.60699881333E+02 -0.13992566421E+02 -0.63687818563E+02  0.89184517390E+02  0.41800000000E+01 0. -1.
</event>
<event>
11    1  0.8551154E-009  0.1732351E+03  0.7561462E-02  0.1075250E+00
         22   -1    0    0    0    0  0.00000000000E+00  0.00000000000E+00  0.75185355842E+03  0.75185355842E+03  0.00000000000E+00 0.  1.
         22   -1    0    0    0    0 -0.00000000000E+00 -0.00000000000E+00 -0.91900798856E+03  0.91900798856E+03  0.00000000000E+00 0. -1.
         24    2    1    2    0    0 -0.13705807386E+03 -0.69229958244E+02 -0.84767903166E+03  0.86524529746E+03  0.80696848369E+02 0.  0.
         25    2    1    2    0    0  0.24245177044E+01  0.44743274784E+02  0.30334473809E+02  0.13629160591E+03  0.12508949842E+03 0.  0.
        -24    2    1    2    0    0  0.13463355615E+03  0.24486683461E+02  0.65019012771E+03  0.66932464360E+03  0.80761898541E+02 0.  0.
        -11    1    3    3    0    0 -0.51233705666E+02  0.91096084968E+01 -0.17387916008E+03  0.18149887018E+03  0.00000000000E+00 0.  1.
         12    1    3    3    0    0 -0.85824368192E+02 -0.78339566741E+02 -0.67379987158E+03  0.68374642729E+03  0.00000000000E+00 0. -1.
         11    1    5    5    0    0 -0.10323403528E+02 -0.36218650725E+01  0.56376465391E+02  0.57428184866E+02  0.00000000000E+00 0. -1.
        -12    1    5    5    0    0  0.14495695968E+03  0.28108548533E+02  0.59381366232E+03  0.61189645874E+03  0.00000000000E+00 0.  1.
          5    1    4    4  501    0 -0.13234760088E+02  0.35669450017E+02 -0.44783621654E+02  0.58911066088E+02  0.41800000000E+01 0.  1.
         -5    1    4    4    0  501  0.15659277793E+02  0.90738247663E+01  0.75118095463E+02  0.77380539820E+02  0.41800000000E+01 0.  1.
</event>
<event>
11    1  0.8551154E-009  0.1831255E+03  0.7561462E-02  0.1067142E+00
         22   -1    0    0    0    0  0.00000000000E+00  0.00000000000E+00  0.81303400035E+02  0.81303400035E+02  0.00000000000E+00 0.  1.
         22   -1    0    0    0    0 -0.00000000000E+00 -0.00000000000E+00 -0.24496864297E+04  0.24496864297E+04  0.00000000000E+00 0. -1.
        -24    2    1    2    0    0  0.26273641372E+02  0.54892342482E+02 -0.19891160847E+04  0.19915893444E+04  0.78369924332E+02 0.  0.
         25    2    1    2    0    0  0.87858160257E+02 -0.12066910104E+03 -0.31801578931E+03  0.37291477384E+03  0.12510514791E+03 0.  0.
         24    2    1    2    0    0 -0.11413180163E+03  0.65776758553E+02 -0.61251155635E+02  0.16648571142E+03  0.81321202220E+02 0.  0.
        -11    1    5    5    0    0 -0.76272829867E+02  0.75238664242E+02 -0.67982640076E+02  0.12688593509E+03  0.00000000000E+00 0.  1.
         12    1    5    5    0    0 -0.37858971761E+02 -0.94619056887E+01  0.67314844402E+01  0.39599776323E+02  0.00000000000E+00 0. -1.
         13    1    3    3    0    0  0.17378711186E+02  0.33773607665E+02 -0.18643144053E+04  0.18647012839E+04  0.00000000000E+00 0. -1.
        -14    1    3    3    0    0  0.88949301858E+01  0.21118734817E+02 -0.12480167938E+03  0.12688806058E+03  0.00000000000E+00 0.  1.
          5    1    4    4  501    0  0.11868985589E+03 -0.92205932415E+02 -0.26974542202E+03  0.30881917196E+03  0.41800000000E+01 0. -1.
         -5    1    4    4    0  501 -0.30831695634E+02 -0.28463168620E+02 -0.48270367282E+02  0.64095601886E+02  0.41800000000E+01 0. -1.
</event>
<event>
11    1  0.8551154E-009  0.1311492E+03  0.7561462E-02  0.1117865E+00
         22   -1    0    0    0    0  0.00000000000E+00  0.00000000000E+00  0.51196744582E+03  0.51196744582E+03  0.00000000000E+00 0.  1.
         22   -1    0    0    0    0 -0.00000000000E+00 -0.00000000000E+00 -0.83969510473E+02  0.83969510473E+02  0.00000000000E+00 0.  1.
         24    2    1    2    0    0 -0.71800603545E+01 -0.17560609407E+02 -0.22148196441E+02  0.86026123408E+02  0.80932212583E+02 0.  0.
         25    2    1    2    0    0  0.37856739419E+02 -0.89281251208E+01  0.16223028004E+03  0.20852110464E+03  0.12509813421E+03 0.  0.
        -24    2    1    2    0    0 -0.30676679065E+02  0.26488734527E+02  0.28791585175E+03  0.30138972824E+03  0.79356908372E+02 0.  0.
        -13    1    3    3    0    0 -0.36084434398E+02 -0.34201897650E+02 -0.14797189124E+02  0.51873047092E+02  0.00000000000E+00 0.  1.
         14    1    3    3    0    0  0.28904374044E+02  0.16641288243E+02 -0.73510073178E+01  0.34153076316E+02  0.00000000000E+00 0. -1.
         11    1    5    5    0    0  0.26527149447E+01 -0.16057733411E+02  0.11975901271E+02  0.20206679840E+02  0.00000000000E+00 0. -1.
        -12    1    5    5    0    0 -0.33329394009E+02  0.42546467939E+02  0.27593995048E+03  0.28118304840E+03  0.00000000000E+00 0.  1.
          5    1    4    4  501    0 -0.38198998219E+02  0.93876557182E+01  0.10292153723E+03  0.11026153804E+03  0.41800000000E+01 0.  1.
         -5    1    4    4    0  501  0.76055737638E+02 -0.18315780839E+02  0.59308742806E+02  0.98259566601E+02  0.41800000000E+01 0.  1.
</event>
<event>
11    1  0.8551154E-009  0.1768155E+03  0.7561462E-02  0.1072248E+00
         22   -1    0    0    0    0  0.00000000000E+00  0.00000000000E+00  0.66125572217E+03  0.66125572217E+03  0.00000000000E+00 0.  1.
         22   -1    0    0    0    0 -0.00000000000E+00 -0.00000000000E+00 -0.30293904594E+03  0.30293904594E+03  0.00000000000E+00 0. -1.
         24    2    1    2    0    0 -0.13777002121E+03  0.16343251819E+02 -0.11833961687E+03  0.19888495345E+03  0.79393193433E+02 0.  0.
         25    2    1    2    0    0  0.10489904738E+03 -0.30051154281E+02 -0.92239373257E+02  0.18990265851E+03  0.12509210893E+03 0.  0.
        -24    2    1    2    0    0  0.32870973834E+02  0.13707902462E+02  0.56889566635E+03  0.57540715615E+03  0.78630201843E+02 0.  0.
        -11    1    3    3    0    0 -0.29359772717E+02 -0.28723524032E+02 -0.19747368851E+02  0.45574067883E+02  0.00000000000E+00 0.  1.
         12    1    3    3    0    0 -0.10841024849E+03  0.45066775851E+02 -0.98592248016E+02  0.15331088557E+03  0.00000000000E+00 0. -1.
         13    1    5    5    0    0 -0.19453238592E+02 -0.59513695172E+01  0.30392517979E+03  0.30460525636E+03  0.00000000000E+00 0. -1.
        -14    1    5    5    0    0  0.52324212426E+02  0.19659271979E+02  0.26497048656E+03  0.27080189979E+03  0.00000000000E+00 0.  1.
          5    1    4    4  501    0  0.40612167939E+02  0.49068913327E+02 -0.31808488036E+02  0.71318712488E+02  0.41800000000E+01 0. -1.
         -5    1    4    4    0  501  0.64286879437E+02 -0.79120067607E+02 -0.60430885220E+02  0.11858394602E+03  0.41800000000E+01 0. -1.
</event>
<event>
11    1  0.8551154E-009  0.1454299E+03  0.7561462E-02  0.1101642E+00
         22   -1    0    0    0    0  0.00000000000E+00  0.00000000000E+00  0.33708416665E+03  0.33708416665E+03  0.00000000000E+00 0.  1.
         22   -1    0    0    0    0 -0.00000000000E+00 -0.00000000000E+00 -0.64381795658E+03  0.64381795658E+03  0.00000000000E+00 0. -1.
        -24    2    1    2    0    0  0.14192538120E+02 -0.68540419346E+02 -0.56025839990E+03  0.57000815628E+03  0.78234304165E+02 0.  0.
         25    2    1    2    0    0 -0.44691959364E+02 -0.92448321985E+01  0.16612568998E+01  0.13316405344E+03  0.12508823766E+03 0.  0.
         24    2    1    2    0    0  0.30499421244E+02  0.77785251545E+02  0.25186335307E+03  0.27772991351E+03  0.81963383166E+02 0.  0.
        -11    1    5    5    0    0  0.33757289931E+02  0.26219781863E+01  0.13149200586E+03  0.13578135733E+03  0.00000000000E+00 0.  1.
         12    1    5    5    0    0 -0.32578686871E+01  0.75163273358E+02  0.12037134721E+03  0.14194855617E+03  0.00000000000E+00 0. -1.
         11    1    3    3    0    0 -0.14310239476E+02 -0.49839174870E+02 -0.48023177889E+03  0.48302307166E+03  0.00000000000E+00 0. -1.
        -12    1    3    3    0    0  0.28502777596E+02 -0.18701244477E+02 -0.80026621016E+02  0.86985084624E+02  0.00000000000E+00 0.  1.
          5    1    4    4  501    0 -0.14976819812E+02 -0.63965359887E+02  0.18772299386E+02  0.68452494632E+02  0.41800000000E+01 0.  1.
         -5    1    4    4    0  501 -0.29715139552E+02  0.54720527688E+02 -0.17111042486E+02  0.64711558813E+02  0.41800000000E+01 0.  1.
</event>
<event>
11    1  0.8551154E-009  0.2138932E+03  0.7561462E-02  0.1045112E+00
         22   -1    0    0    0    0  0.00000000000E+00  0.00000000000E+00  0.10219575892E+04  0.10219575892E+04  0.00000000000E+00 0. -1.
         22   -1    0    0    0    0 -0.00000000000E+00 -0.00000000000E+00 -0.99684836652E+02  0.99684836652E+02  0.00000000000E+00 0. -1.
         24    2    1    2    0    0  0.88236984379E+02  0.82641062623E+01  0.98258287403E+02  0.15952964717E+03  0.89112044174E+02 0.  0.
         25    2    1    2    0    0 -0.14897967031E+03  0.14812265207E+03  0.21590060985E+03  0.32618236077E+03  0.12508635787E+03 0.  0.
        -24    2    1    2    0    0  0.60742685934E+02 -0.15638675833E+03  0.60811385528E+03  0.63593041790E+03  0.80365062965E+02 0.  0.
        -13    1    3    3    0    0  0.11545800729E+02 -0.34406996312E+02  0.17612930802E+02  0.40340578096E+02  0.00000000000E+00 0.  1.
         14    1    3    3    0    0  0.76691183650E+02  0.42671102574E+02  0.80645356601E+02  0.11918906907E+03  0.00000000000E+00 0. -1.
         11    1    5    5    0    0  0.72537560854E+02 -0.14382013024E+03  0.58687316346E+03  0.60857705969E+03  0.00000000000E+00 0. -1.
        -12    1    5    5    0    0 -0.11794874920E+02 -0.12566628088E+02  0.21240691825E+02  0.27353358205E+02  0.00000000000E+00 0.  1.
          5    1    4    4  501    0 -0.41452300133E+02  0.30854837763E+02 -0.69762627030E+01  0.52311134962E+02  0.41800000000E+01 0.  1.
         -5    1    4    4    0  501 -0.10752737018E+03  0.11726781431E+03  0.22287687255E+03  0.27387122581E+03  0.41800000000E+01 0.  1.
</event>
<event>
11    1  0.8551154E-009  0.2174643E+03  0.7561462E-02  0.1042818E+00
         22   -1    0    0    0    0  0.00000000000E+00  0.00000000000E+00  0.31781620797E+03  0.31781620797E+03  0.00000000000E+00 0. -1.
         22   -1    0    0    0    0 -0.00000000000E+00 -0.00000000000E+00 -0.54623591865E+03  0.54623591865E+03  0.00000000000E+00 0. -1.
         24    2    1    2    0    0  0.37813608615E+02 -0.26332888121E+02 -0.27135522720E+03  0.28618942565E+03  0.78405599484E+02 0.  0.
         25    2    1    2    0    0 -0.21043891708E+03  0.18203298549E+02 -0.16534477346E+03  0.29597678776E+03  0.12508983524E+03 0.  0.
        -24    2    1    2    0    0  0.17262530846E+03  0.81295895725E+01  0.20828028999E+03  0.28188591322E+03  0.78825132576E+02 0.  0.
        -13    1    3    3    0    0 -0.21957269107E+02 -0.16551596731E+01 -0.36810370110E+02  0.42893642511E+02  0.00000000000E+00 0.  1.
         14    1    3    3    0    0  0.59770877722E+02 -0.24677728448E+02 -0.23454485709E+03  0.24329578314E+03  0.00000000000E+00 0. -1.
         13    1    5    5    0    0  0.17446980436E+03  0.19240047162E+02  0.20554953052E+03  0.27029706167E+03  0.00000000000E+00 0. -1.
        -14    1    5    5    0    0 -0.18444958987E+01 -0.11110457589E+02  0.27307594615E+01  0.11588851548E+02  0.00000000000E+00 0.  1.
          5    1    4    4  501    0 -0.97118421445E+02  0.35329708597E+02 -0.14714345201E+03  0.17985784376E+03  0.41800000000E+01 0. -1.
         -5    1    4    4    0  501 -0.11332049563E+03 -0.17126410048E+02 -0.18201321453E+02  0.11611894399E+03  0.41800000000E+01 0. -1.
</event>
<event>
11    1  0.8551154E-009  0.1489592E+03  0.7561462E-02  0.1097947E+00
         22   -1    0    0    0    0  0.00000000000E+00  0.00000000000E+00  0.11234720271E+04  0.11234720271E+04  0.00000000000E+00 0.  1.
         22   -1    0    0    0    0 -0.00000000000E+00 -0.00000000000E+00 -0.24362119246E+03  0.24362119246E+03  0.00000000000E+00 0.  1.
         24    2    1    2    0    0  0.79365909504E+02  0.82116198361E+02 -0.17724491657E+03  0.22525589236E+03  0.79261838018E+02 0.  0.
         25    2    1    2    0    0 -0.19028818249E+02  0.27612850627E+02  0.77490335955E+02  0.15091974516E+03  0.12508977523E+03 0.  0.
        -24    2    1    2    0    0 -0.60337091255E+02 -0.10972904899E+03  0.97960541526E+03  0.99091758204E+03  0.81301021071E+02 0.  0.
        -13    1    3    3    0    0  0.85719597324E+02  0.92933485430E+02 -0.15970702344E+03  0.20369294395E+03  0.00000000000E+00 0.  1.
         14    1    3    3    0    0 -0.63536878199E+01 -0.10817287068E+02 -0.17537893129E+02  0.21562948403E+02  0.00000000000E+00 0. -1.
         13    1    5    5    0    0 -0.12967593238E+01 -0.84166163145E+01  0.63476502940E+01  0.10621378403E+02  0.00000000000E+00 0. -1.
        -14    1    5    5    0    0 -0.59040331931E+02 -0.10131243267E+03  0.97325776496E+03  0.98029620364E+03  0.00000000000E+00 0.  1.
          5    1    4    4  501    0 -0.58246040255E+02 -0.21344135061E+02  0.18900582811E+02  0.64983672853E+02  0.41800000000E+01 0.  1.
         -5    1    4    4    0  501  0.39217222006E+02  0.48956985688E+02  0.58589753144E+02  0.85936072304E+02  0.41800000000E+01 0.  1.
</event>
<event>
11    1  0.8551154E-009  0.1980215E+03  0.7561462E-02  0.1055932E+00
         22   -1    0    0    0    0  0.00000000000E+00  0.00000000000E+00  0.22228324547E+03  0.22228324547E+03  0.00000000000E+00 0.  1.
         22   -1    0    0    0    0 -0.00000000000E+00 -0.00000000000E+00 -0.48385152093E+03  0.48385152093E+03  0.00000000000E+00 0.  1.
         24    2    1    2    0    0  0.48000309030E+02 -0.52453008651E+02 -0.30296772166E+03  0.32326642126E+03  0.87500805507E+02 0.  0.
         25    2    1    2    0    0 -0.77952896395E+02 -0.11443340339E+03 -0.13219144687E+02  0.18707216650E+03  0.12509832863E+03 0.  0.
        -24    2    1    2    0    0  0.29952587365E+02  0.16688641204E+03  0.54618590883E+02  0.19579617864E+03  0.81269435121E+02 0.  0.
        -13    1    3    3    0    0  0.39302159017E+02 -0.76998430622E+02 -0.24166060825E+03  0.25665788046E+03  0.00000000000E+00 0.  1.
         14    1    3    3    0    0  0.86981500135E+01  0.24545421971E+02 -0.61307113411E+02  0.66608540805E+02  0.00000000000E+00 0. -1.
         13    1    5    5    0    0  0.60050230005E+01  0.24475819683E+02 -0.20983045914E+02  0.32793509514E+02  0.00000000000E+00 0. -1.
        -14    1    5    5    0    0  0.23947564365E+02  0.14241059236E+03  0.75601636797E+02  0.16300266912E+03  0.00000000000E+00 0.  1.
          5    1    4    4  501    0 -0.10220140117E+03 -0.67902218154E+02  0.20625170177E+02  0.12449380577E+03  0.41800000000E+01 0. -1.
         -5    1    4    4    0  501  0.24248504773E+02 -0.46531185236E+02 -0.33844314863E+02  0.62578360731E+02  0.41800000000E+01 0. -1.
</event>
<event>
11    1  0.8551154E-009  0.1603398E+03  0.7561462E-02  0.1086758E+00
         22   -1    0    0    0    0  0.00000000000E+00  0.00000000000E+00  0.49937741024E+03  0.49937741024E+03  0.00000000000E+00 0.  1.
         22   -1    0    0    0    0 -0.00000000000E+00 -0.00000000000E+00 -0.10544739829E+04  0.10544739829E+04  0.00000000000E+00 0. -1.
        -24    2    1    2    0    0 -0.99403021346E+02 -0.17542678506E+02 -0.97006314937E+03  0.97863823055E+03  0.80756215250E+02 0.  0.
         25    2    1    2    0    0  0.92053208596E+02 -0.13580144664E+02  0.46798439255E+01  0.15597114781E+03  0.12508750724E+03 0.  0.
         24    2    1    2    0    0  0.73498127502E+01  0.31122823170E+02  0.41028673274E+03  0.41924201484E+03  0.80037579112E+02 0.  0.
        -11    1    5    5    0    0  0.52366489631E+01  0.25788893673E+02  0.41231715665E+03  0.41315605671E+03  0.00000000000E+00 0.  1.
         12    1    5    5    0    0  0.21131637872E+01  0.53339294972E+01 -0.20304239067E+01  0.60859581261E+01  0.00000000000E+00 0. -1.
         11    1    3    3    0    0 -0.93448505352E+02 -0.15136658617E+02 -0.96681994921E+03  0.97144354225E+03  0.00000000000E+00 0. -1.
        -12    1    3    3    0    0 -0.59545159944E+01 -0.24060198894E+01 -0.32432001599E+01  0.71946882985E+01  0.00000000000E+00 0.  1.
          5    1    4    4  501    0  0.42272849036E+00 -0.91162763625E+01 -0.48717677566E+02  0.49741026342E+02  0.41800000000E+01 0.  1.
         -5    1    4    4    0  501  0.91630480106E+02 -0.44638683011E+01  0.53397521492E+02  0.10623012146E+03  0.41800000000E+01 0.  1.
</event>
<event>
11    1  0.8551154E-009  0.1416675E+03  0.7561462E-02  0.1105711E+00
         22   -1    0    0    0    0  0.00000000000E+00  0.00000000000E+00  0.13567376084E+03  0.13567376084E+03  0.00000000000E+00 0.  1.
         22   -1    0    0    0    0 -0.00000000000E+00 -0.00000000000E+00 -0.58468148535E+03  0.58468148535E+03  0.00000000000E+00 0.  1.
        -24    2    1    2    0    0  0.19160413434E+02 -0.63938179351E+02 -0.40545190346E+03  0.41863366462E+03  0.80048028759E+02 0.  0.
         25    2    1    2    0    0 -0.74260447385E+02  0.20882840466E+02 -0.10318764615E+03  0.17957398489E+03  0.12509363957E+03 0.  0.
         24    2    1    2    0    0  0.55100033951E+02  0.43055338885E+02  0.59631825097E+02  0.12214759667E+03  0.80463065197E+02 0.  0.
        -13    1    5    5    0    0 -0.18068916388E+01  0.30743924964E+02  0.55878509656E+02  0.63803304154E+02  0.00000000000E+00 0.  1.
         14    1    5    5    0    0  0.56906925590E+02  0.12311413922E+02  0.37533154405E+01  0.58344292520E+02  0.00000000000E+00 0. -1.
         13    1    3    3    0    0  0.28358625759E+02 -0.34616882842E+02 -0.79443317371E+02  0.91179936979E+02  0.00000000000E+00 0. -1.
        -14    1    3    3    0    0 -0.91982123247E+01 -0.29321296509E+02 -0.32600858609E+03  0.32745372764E+03  0.00000000000E+00 0.  1.
          5    1    4    4  501    0  0.13176338167E+02  0.33487436860E+02 -0.80491375189E+02  0.88268670516E+02  0.41800000000E+01 0. -1.
         -5    1    4    4    0  501 -0.87436785552E+02 -0.12604596394E+02 -0.22696270960E+02  0.91305314377E+02  0.41800000000E+01 0. -1.
</event>
<event>
11    1  0.8551154E-009  0.1416423E+03  0.7561462E-02  0.1105738E+00
         22   -1    0    0    0    0  0.00000000000E+00  0.00000000000E+00  0.51347442699E+03  0.51347442699E+03  0.00000000000E+00 0. -1.
         22   -1    0    0    0    0 -0.00000000000E+00 -0.00000000000E+00 -0.27729503720E+03  0.27729503720E+03  0.00000000000E+00 0.  1.
        -24    2    1    2    0    0  0.63956326005E+02  0.12820962338E+02 -0.22903902502E+03  0.25151107326E+03  0.80895959593E+02 0.  0.
         25    2    1    2    0    0 -0.85504243197E+02 -0.11491955960E+02  0.15059318323E+03  0.21393798123E+03  0.12509241512E+03 0.  0.
         24    2    1    2    0    0  0.21547917192E+02 -0.13290063773E+01  0.31462523158E+03  0.32532040970E+03  0.79863969506E+02 0.  0.
        -13    1    5    5    0    0 -0.18281181212E+02 -0.67009988993E+01  0.19803550862E+02  0.27772029085E+02  0.00000000000E+00 0.  1.
         14    1    5    5    0    0  0.39829098404E+02  0.53719925220E+01  0.29482168072E+03  0.29754838061E+03  0.00000000000E+00 0. -1.
         11    1    3    3    0    0  0.40955517265E+02 -0.31452067879E+02 -0.89602451158E+02  0.10341753344E+03  0.00000000000E+00 0. -1.
        -12    1    3    3    0    0  0.23000808741E+02  0.44273030216E+02 -0.13943657387E+03  0.14809353983E+03  0.00000000000E+00 0.  1.
          5    1    4    4  501    0 -0.52627930720E+02  0.42391690823E+01 -0.58180983334E+01  0.53282195099E+02  0.41800000000E+01 0.  1.
         -5    1    4    4    0  501 -0.32876312478E+02 -0.15731125043E+02  0.15641128156E+03  0.16065578613E+03  0.41800000000E+01 0.  1.
</event>
<event>
11    1  0.8551154E-009  0.1341999E+03  0.7561462E-02  0.1114214E+00
         22   -1    0    0    0    0  0.00000000000E+00  0.00000000000E+00  0.20767833832E+04  0.20767833832E+04  0.00000000000E+00 0. -1.
         22   -1    0    0    0    0 -0.00000000000E+00 -0.00000000000E+00 -0.12832063323E+03  0.12832063323E+03  0.00000000000E+00 0.  1.
        -24    2    1    2    0    0  0.90659661569E+00  0.52072666438E+02 -0.88346001477E+02  0.13078696191E+03  0.81165441668E+02 0.  0.
         25    2    1    2    0    0 -0.76872475172E+01 -0.41499970658E+00  0.20720341120E+03  0.24215802891E+03  0.12509193161E+03 0.  0.
         24    2    1    2    0    0  0.67806509016E+01 -0.51657666731E+02  0.18296053403E+04  0.18321590256E+04  0.81464730167E+02 0.  0.
        -11    1    5    5    0    0 -0.88271960469E+01 -0.51992661848E+02  0.56465558577E+03  0.56711294009E+03  0.00000000000E+00 0.  1.
         12    1    5    5    0    0  0.15607846948E+02  0.33499511668E+00  0.12649497545E+04  0.12650460855E+04  0.00000000000E+00 0. -1.
         11    1    3    3    0    0  0.67422854185E+01 -0.18824477191E+02 -0.39014457809E+01  0.20372546070E+02  0.00000000000E+00 0. -1.
        -12    1    3    3    0    0 -0.58356888028E+01  0.70897143629E+02 -0.84444555696E+02  0.11041441584E+03  0.00000000000E+00 0.  1.
          5    1    4    4  501    0  0.40450709139E+02 -0.99242345560E+01  0.16161689488E+02  0.44871181269E+02  0.41800000000E+01 0. -1.
         -5    1    4    4    0  501 -0.48137956656E+02  0.95092348494E+01  0.19104172171E+03  0.19728684765E+03  0.41800000000E+01 0. -1.
</event>
<event>
11    1  0.9316170E-009  0.1681780E+03  0.7561462E-02  0.1079628E+00
         22   -1    0    0    0    0  0.00000000000E+00  0.00000000000E+00  0.14891748558E+03  0.14891748558E+03  0.00000000000E+00 0.  1.
         22   -1    0    0    0    0 -0.00000000000E+00 -0.00000000000E+00 -0.10273057663E+04  0.10273057663E+04  0.00000000000E+00 0. -1.
         24    2    1    2    0    0 -0.54731870476E+02  0.36737256960E+01 -0.40256511739E+03  0.41419936651E+03  0.80581434372E+02 0.  0.
         25    2    1    2    0    0  0.12848118706E+03 -0.85385781477E+02 -0.56561631043E+03  0.59947293126E+03  0.12509131700E+03 0.  0.
        -24    2    1    2    0    0 -0.73749316579E+02  0.81712055781E+02  0.89793147136E+02  0.16255095408E+03  0.79020134412E+02 0.  0.
        -13    1    3    3    0    0  0.48353119983E+01  0.16750113098E+02 -0.18882067049E+02  0.25699785737E+02  0.00000000000E+00 0.  1.
         14    1    3    3    0    0 -0.59567182474E+02 -0.13076387402E+02 -0.38368305034E+03  0.38849958077E+03  0.00000000000E+00 0. -1.
         13    1    5    5    0    0 -0.22568607416E+02  0.77986918005E+02  0.37996207974E+02  0.89638235374E+02  0.00000000000E+00 0. -1.
        -14    1    5    5    0    0 -0.51180709163E+02  0.37251377762E+01  0.51796939162E+02  0.72912718701E+02  0.00000000000E+00 0.  1.
          5    1    4    4  501    0  0.47762393305E+01  0.16260731432E+02 -0.19435419600E+03  0.19513649006E+03  0.41800000000E+01 0.  1.
         -5    1    4    4    0  501  0.12370494772E+03 -0.10164651291E+03 -0.37126211443E+03  0.40433644121E+03  0.41800000000E+01 0.  1.
</event>
<event>
11    1  0.8551154E-009  0.1432491E+03  0.7561462E-02  0.1103984E+00
         22   -1    0    0    0    0  0.00000000000E+00  0.00000000000E+00  0.16608674050E+03  0.16608674050E+03  0.00000000000E+00 0. -1.
         22   -1    0    0    0    0 -0.00000000000E+00 -0.00000000000E+00 -0.83302664596E+03  0.83302664596E+03  0.00000000000E+00 0. -1.
        -24    2    1    2    0    0 -0.22878570927E+02  0.60719854735E+02 -0.54953169214E+03  0.55947020416E+03  0.82531805448E+02 0.  0.
         25    2    1    2    0    0  0.79602370845E+02 -0.68572195613E+02 -0.23475351318E+03  0.28599794554E+03  0.12508768705E+03 0.  0.
         24    2    1    2    0    0 -0.56723799919E+02  0.78523408778E+01  0.11734529985E+03  0.15364523675E+03  0.80979569313E+02 0.  0.
        -11    1    5    5    0    0 -0.61679919812E+02  0.15777716642E+02  0.38824550130E+02  0.74570064660E+02  0.00000000000E+00 0.  1.
         12    1    5    5    0    0  0.49561198936E+01 -0.79253757646E+01  0.78520749719E+02  0.79075172095E+02  0.00000000000E+00 0. -1.
         11    1    3    3    0    0  0.23116566513E+01  0.72208509497E+02 -0.46340671403E+03  0.46900447248E+03  0.00000000000E+00 0. -1.
        -12    1    3    3    0    0 -0.25190227578E+02 -0.11488654762E+02 -0.86124978113E+02  0.90465731681E+02  0.00000000000E+00 0.  1.
          5    1    4    4  501    0  0.95405943125E+02 -0.41899663582E+02 -0.23228103522E+03  0.25461702126E+03  0.41800000000E+01 0.  1.
         -5    1    4    4    0  501 -0.15803572280E+02 -0.26672532031E+02 -0.24724779564E+01  0.31380924285E+02  0.41800000000E+01 0.  1.
</event>
<event>
11    1  0.8551154E-009  0.1920586E+03  0.7561462E-02  0.1060286E+00
         22   -1    0    0    0    0  0.00000000000E+00  0.00000000000E+00  0.74794346103E+02  0.74794346103E+02  0.00000000000E+00 0.  1.
         22   -1    0    0    0    0 -0.00000000000E+00 -0.00000000000E+00 -0.15866709965E+04  0.15866709965E+04  0.00000000000E+00 0. -1.
        -24    2    1    2    0    0 -0.72561150570E+02  0.13632694440E+03 -0.12145861460E+04  0.12269470710E+04  0.79557857453E+02 0.  0.
         25    2    1    2    0    0  0.87932079644E+01 -0.11934477967E+03 -0.28031716982E+03  0.32946752446E+03  0.12510250611E+03 0.  0.
         24    2    1    2    0    0  0.63767942606E+02 -0.16982164732E+02 -0.16973334571E+02  0.10505074712E+03  0.79955118414E+02 0.  0.
        -13    1    5    5    0    0  0.48277230413E+02  0.21630181383E+02  0.12134630075E+02  0.54275270336E+02  0.00000000000E+00 0.  1.
         14    1    5    5    0    0  0.15490712193E+02 -0.38612346114E+02 -0.29107964646E+02  0.50775476783E+02  0.00000000000E+00 0. -1.
         11    1    3    3    0    0 -0.76863078348E+02  0.12995986020E+03 -0.12060387814E+04  0.12154534300E+04  0.00000000000E+00 0. -1.
        -12    1    3    3    0    0  0.43019277775E+01  0.63670842008E+01 -0.85473645759E+01  0.11493641069E+02  0.00000000000E+00 0.  1.
          5    1    4    4  501    0 -0.42062367173E+02 -0.40304392821E+01 -0.10711718862E+03  0.11522608937E+03  0.41800000000E+01 0.  1.
         -5    1    4    4    0  501  0.50855575138E+02 -0.11531434039E+03 -0.17319998119E+03  0.21424143508E+03  0.41800000000E+01 0.  1.
</event>
<event>
11    1  0.8551154E-009  0.1434998E+03  0.7561462E-02  0.1103712E+00
         22   -1    0    0    0    0  0.00000000000E+00  0.00000000000E+00  0.29473526509E+04  0.29473526509E+04  0.00000000000E+00 0. -1.
         22   -1    0    0    0    0 -0.00000000000E+00 -0.00000000000E+00 -0.13003096403E+04  0.13003096403E+04  0.00000000000E+00 0. -1.
         24    2    1    2    0    0 -0.22619426918E+02 -0.68442210655E+02 -0.12198604587E+04  0.12246185724E+04  0.80219289550E+02 0.  0.
         25    2    1    2    0    0 -0.25942231924E+02  0.37355363549E+02 -0.19741922988E+02  0.13455801560E+03  0.12509074089E+03 0.  0.
        -24    2    1    2    0    0  0.48561658841E+02  0.31086847106E+02  0.28866453923E+04  0.28884857032E+04  0.85459990094E+02 0.  0.
        -11    1    3    3    0    0 -0.15148161054E+02 -0.41467472350E+02 -0.22102069796E+03  0.22538670540E+03  0.00000000000E+00 0.  1.
         12    1    3    3    0    0 -0.74712658637E+01 -0.26974738305E+02 -0.99883976076E+03  0.99923186698E+03  0.00000000000E+00 0. -1.
         13    1    5    5    0    0 -0.11894917867E+02 -0.16707718246E+02  0.10835501841E+04  0.10837442680E+04  0.00000000000E+00 0. -1.
        -14    1    5    5    0    0  0.60456576708E+02  0.47794565352E+02  0.18030952082E+04  0.18047414352E+04  0.00000000000E+00 0.  1.
          5    1    4    4  501    0  0.13940859241E+02  0.71624611561E+02  0.10367712815E+02  0.73820013592E+02  0.41800000000E+01 0. -1.
         -5    1    4    4    0  501 -0.39883091165E+02 -0.34269248012E+02 -0.30109635803E+02  0.60738002011E+02  0.41800000000E+01 0. -1.
</event>
<event>
11    1  0.8551154E-009  0.1335910E+03  0.7561462E-02  0.1114934E+00
         22   -1    0    0    0    0  0.00000000000E+00  0.00000000000E+00  0.13991106919E+04  0.13991106919E+04  0.00000000000E+00 0.  1.
         22   -1    0    0    0    0 -0.00000000000E+00 -0.00000000000E+00 -0.27369652684E+03  0.27369652684E+03  0.00000000000E+00 0. -1.
        -24    2    1    2    0    0  0.18163258036E+02 -0.27654220336E+02 -0.14310056875E+03  0.16190422443E+03  0.68121547734E+02 0.  0.
         25    2    1    2    0    0  0.79630489212E+01  0.66410238048E+02 -0.77818247393E+02  0.16179468989E+03  0.12509241457E+03 0.  0.
         24    2    1    2    0    0 -0.26126306957E+02 -0.38756017712E+02  0.13463329812E+04  0.13491083044E+04  0.72774363369E+02 0.  0.
        -11    1    5    5    0    0 -0.13610740103E+01 -0.51250477705E+02  0.11045822101E+04  0.11057713700E+04  0.00000000000E+00 0.  1.
         12    1    5    5    0    0 -0.24765232947E+02  0.12494459994E+02  0.24175077109E+03  0.24333693434E+03  0.00000000000E+00 0. -1.
         13    1    3    3    0    0  0.40613826804E+02 -0.38143798169E+01 -0.98156198894E+02  0.10629521063E+03  0.00000000000E+00 0. -1.
        -14    1    3    3    0    0 -0.22450568768E+02 -0.23839840519E+02 -0.44944369861E+02  0.55609013803E+02  0.00000000000E+00 0.  1.
          5    1    4    4  501    0  0.34868563024E+02  0.58124954119E+02  0.10759081522E+02  0.68757233902E+02  0.41800000000E+01 0.  1.
         -5    1    4    4    0  501 -0.26905514103E+02  0.82852839289E+01 -0.88577328915E+02  0.93037455988E+02  0.41800000000E+01 0.  1.
</event>
<event>
11    1  0.8551154E-009  0.1533905E+03  0.7561462E-02  0.1093464E+00
         22   -1    0    0    0    0  0.00000000000E+00  0.00000000000E+00  0.13251782395E+04  0.13251782395E+04  0.00000000000E+00 0. -1.
         22   -1    0    0    0    0 -0.00000000000E+00 -0.00000000000E+00 -0.31121741719E+03  0.31121741719E+03  0.00000000000E+00 0. -1.
        -24    2    1    2    0    0  0.41267855257E+02 -0.79181012737E+02 -0.26705984388E+03  0.29304045731E+03  0.81111532789E+02 0.  0.
         25    2    1    2    0    0  0.87874340298E+00  0.91012871596E+02  0.17483342181E+03  0.23344369908E+03  0.12508045519E+03 0.  0.
         24    2    1    2    0    0 -0.42146598660E+02 -0.11831858860E+02  0.11061872443E+04  0.11099115003E+04  0.79605214763E+02 0.  0.
        -11    1    5    5    0    0  0.19338441596E+01  0.25895805208E+02  0.57061135981E+03  0.57120194015E+03  0.00000000000E+00 0.  1.
         12    1    5    5    0    0 -0.44080442819E+02 -0.37727664068E+02  0.53557588452E+03  0.53870956011E+03  0.00000000000E+00 0. -1.
         13    1    3    3    0    0  0.48916207186E+02 -0.92217857582E+02 -0.21798466226E+03  0.24169038368E+03  0.00000000000E+00 0. -1.
        -14    1    3    3    0    0 -0.76483519286E+01  0.13036844846E+02 -0.49075181625E+02  0.51350073634E+02  0.00000000000E+00 0.  1.
          5    1    4    4  501    0 -0.58789951379E+02  0.21314556714E+02  0.65565751896E+02  0.90702309412E+02  0.41800000000E+01 0. -1.
         -5    1    4    4    0  501  0.59668694782E+02  0.69698314882E+02  0.10926766992E+03  0.14274138966E+03  0.41800000000E+01 0. -1.
</event>
<event>
11    1  0.8551154E-009  0.1565804E+03  0.7561462E-02  0.1090338E+00
         22   -1    0    0    0    0  0.00000000000E+00  0.00000000000E+00  0.25099285982E+04  0.25099285982E+04  0.00000000000E+00 0.  1.
         22   -1    0    0    0    0 -0.00000000000E+00 -0.00000000000E+00 -0.30477089751E+02  0.30477089751E+02  0.00000000000E+00 0.  1.
        -24    2    1    2    0    0  0.25723206634E+02  0.74276136147E+02  0.21917142583E+03  0.24772114808E+03  0.84563736579E+02 0.  0.
         25    2    1    2    0    0 -0.25202015802E+01 -0.13786209846E+03  0.57990507778E+03  0.60905659780E+03  0.12509088889E+03 0.  0.
         24    2    1    2    0    0 -0.23203005054E+02  0.63585962313E+02  0.16803750048E+04  0.16836279421E+04  0.79757986328E+02 0.  0.
        -13    1    5    5    0    0 -0.85697208767E+01  0.40287402563E+02  0.15416959008E+04  0.15422460133E+04  0.00000000000E+00 0.  1.
         14    1    5    5    0    0 -0.14633284177E+02  0.23298559750E+02  0.13867910400E+03  0.14138192875E+03  0.00000000000E+00 0. -1.
         11    1    3    3    0    0 -0.25603242743E+02  0.28955162413E+02  0.12795242784E+03  0.13366282677E+03  0.00000000000E+00 0. -1.
        -12    1    3    3    0    0  0.51326449377E+02  0.45320973734E+02  0.91218997988E+02  0.11405832131E+03  0.00000000000E+00 0.  1.
          5    1    4    4  501    0 -0.50353272690E+02 -0.96527783818E+02  0.24387338379E+03  0.26710440812E+03  0.41800000000E+01 0.  1.
         -5    1    4    4    0  501  0.47833071110E+02 -0.41334314642E+02  0.33603169399E+03  0.34195218968E+03  0.41800000000E+01 0.  1.
</event>
<event>
11    1  0.8551154E-009  0.1480399E+03  0.7561462E-02  0.1098899E+00
         22   -1    0    0    0    0  0.00000000000E+00  0.00000000000E+00  0.29153685547E+04  0.29153685547E+04  0.00000000000E+00 0. -1.
         22   -1    0    0    0    0 -0.00000000000E+00 -0.00000000000E+00 -0.55734936104E+03  0.55734936104E+03  0.00000000000E+00 0.  1.
        -24    2    1    2    0    0 -0.65823796847E+02 -0.43424933265E+02 -0.54231315436E+03  0.55355037335E+03  0.78076637863E+02 0.  0.
         25    2    1    2    0    0  0.12173656738E+03  0.82537419805E+02  0.11914597948E+04  0.12070027843E+04  0.12508821415E+03 0.  0.
         24    2    1    2    0    0 -0.55912770533E+02 -0.39112486540E+02  0.17088725533E+04  0.17121647581E+04  0.81281800116E+02 0.  0.
        -13    1    5    5    0    0  0.69389753854E+01  0.57632466103E+01  0.25984122585E+02  0.27505254360E+02  0.00000000000E+00 0.  1.
         14    1    5    5    0    0 -0.62851745918E+02 -0.44875733150E+02  0.16828884307E+04  0.16846595038E+04  0.00000000000E+00 0. -1.
         11    1    3    3    0    0 -0.36151476109E+02 -0.25799510119E+02 -0.94577944440E+02  0.10448699212E+03  0.00000000000E+00 0. -1.
        -12    1    3    3    0    0 -0.29672320738E+02 -0.17625423146E+02 -0.44773520992E+03  0.44906338123E+03  0.00000000000E+00 0.  1.
          5    1    4    4  501    0  0.12749759048E+03  0.88344417101E+02  0.11864216190E+04  0.11965258468E+04  0.41800000000E+01 0. -1.
         -5    1    4    4    0  501 -0.57610230957E+01 -0.58069972955E+01  0.50381757349E+01  0.10476937503E+02  0.41800000000E+01 0. -1.
</event>
<event>
11    1  0.8551154E-009  0.2169410E+03  0.7561462E-02  0.1043151E+00
         22   -1    0    0    0    0  0.00000000000E+00  0.00000000000E+00  0.53702179112E+03  0.53702179112E+03  0.00000000000E+00 0.  1.
         22   -1    0    0    0    0 -0.00000000000E+00 -0.00000000000E+00 -0.14691115326E+04  0.14691115326E+04  0.00000000000E+00 0.  1.
        -24    2    1    2    0    0  0.14330420484E+03  0.10497235374E+03 -0.12656915674E+04  0.12805949254E+04  0.79955793518E+02 0.  0.
         25    2    1    2    0    0 -0.12275045636E+03 -0.12645334774E+03 -0.13016846266E+03  0.25228911278E+03  0.12509134289E+03 0.  0.
         24    2    1    2    0    0 -0.20553748479E+02  0.21480994004E+02  0.46377028852E+03  0.47324928563E+03  0.89432187455E+02 0.  0.
        -13    1    5    5    0    0 -0.45193385773E+02  0.40161937694E+02  0.24738761089E+03  0.25466851666E+03  0.00000000000E+00 0.  1.
         14    1    5    5    0    0  0.24639637294E+02 -0.18680943690E+02  0.21638267764E+03  0.21858076897E+03  0.00000000000E+00 0. -1.
         13    1    3    3    0    0  0.74654702463E+02  0.72709993792E+02 -0.47628843928E+03  0.48755588930E+03  0.00000000000E+00 0. -1.
        -14    1    3    3    0    0  0.68649502373E+02  0.32262359946E+02 -0.78940312811E+03  0.79303903606E+03  0.00000000000E+00 0.  1.
          5    1    4    4  501    0 -0.70432287036E+02 -0.86369092470E+01 -0.94911336590E+02  0.11857882388E+03  0.41800000000E+01 0.  1.
         -5    1    4    4    0  501 -0.52318169321E+02 -0.11781643850E+03 -0.35257126067E+02  0.13371028891E+03  0.41800000000E+01 0.  1.
</event>
<event>
11    1  0.8551154E-009  0.1688746E+03  0.7561462E-02  0.1079015E+00
         22   -1    0    0    0    0  0.00000000000E+00  0.00000000000E+00  0.65807600344E+03  0.65807600344E+03  0.00000000000E+00 0. -1.
         22   -1    0    0    0    0 -0.00000000000E+00 -0.00000000000E+00 -0.16461143676E+03  0.16461143676E+03  0.00000000000E+00 0. -1.
         24    2    1    2    0    0 -0.27026476252E+02  0.80302743718E+02 -0.80593304580E+02  0.14186698656E+03  0.80324342915E+02 0.  0.
         25    2    1    2    0    0 -0.91532589973E+02 -0.76059525659E+02  0.13672591896E+03  0.22023880618E+03  0.12509151993E+03 0.  0.
        -24    2    1    2    0    0  0.11855906623E+03 -0.42432180589E+01  0.43733195230E+03  0.46058164746E+03  0.82473998274E+02 0.  0.
        -11    1    3    3    0    0 -0.45093935376E+02  0.23788584881E+02 -0.14407982954E+02  0.52980654499E+02  0.00000000000E+00 0.  1.
         12    1    3    3    0    0  0.18067459124E+02  0.56514158837E+02 -0.66185321626E+02  0.88886332060E+02  0.00000000000E+00 0. -1.
         11    1    5    5    0    0  0.62427988397E+02  0.23955003841E+02  0.32567018291E+03  0.33246377845E+03  0.00000000000E+00 0. -1.
        -12    1    5    5    0    0  0.56131077828E+02 -0.28198221900E+02  0.11166176938E+03  0.12811786901E+03  0.00000000000E+00 0.  1.
          5    1    4    4  501    0  0.16096916596E+02 -0.97506866413E+01  0.78794038290E+02  0.81118182203E+02  0.41800000000E+01 0.  1.
         -5    1    4    4    0  501 -0.10762950657E+03 -0.66308839018E+02  0.57931880674E+02  0.13912062397E+03  0.41800000000E+01 0.  1.
</event>
<event>
11    1  0.8551154E-009  0.3075114E+03  0.7561462E-02  0.9970614E-01
         22   -1    0    0    0    0  0.00000000000E+00  0.00000000000E+00  0.36376468317E+03  0.36376468317E+03  0.00000000000E+00 0.  1.
         22   -1    0    0    0    0 -0.00000000000E+00 -0.00000000000E+00 -0.83766362900E+03  0.83766362900E+03  0.00000000000E+00 0. -1.
         24    2    1    2    0    0 -0.21756691138E+02  0.91214902942E+02 -0.45528002137E+03  0.46984211304E+03  0.68397377118E+02 0.  0.
         25    2    1    2    0    0  0.13538364542E+03  0.18280327024E+03 -0.23935881349E+03  0.35311030691E+03  0.12509388551E+03 0.  0.
        -24    2    1    2    0    0 -0.11362695428E+03 -0.27401817318E+03  0.22073988904E+03  0.37847589222E+03  0.80751832207E+02 0.  0.
        -13    1    3    3    0    0 -0.42520400113E+02  0.72575430599E+02 -0.28021150723E+03  0.29256395256E+03  0.00000000000E+00 0.  1.
         14    1    3    3    0    0  0.20763708975E+02  0.18639472343E+02 -0.17506851414E+03  0.17727816048E+03  0.00000000000E+00 0. -1.
         13    1    5    5    0    0 -0.14757580812E+02 -0.14994084191E+02  0.46449709506E+02  0.50992001974E+02  0.00000000000E+00 0. -1.
        -14    1    5    5    0    0 -0.98869373466E+02 -0.25902408899E+03  0.17429017953E+03  0.32748389024E+03  0.00000000000E+00 0.  1.
          5    1    4    4  501    0  0.33024974770E+02  0.13878405235E+03 -0.16928005287E+03  0.22141560660E+03  0.41800000000E+01 0.  1.
         -5    1    4    4    0  501  0.10235867065E+03  0.44019217892E+02 -0.70078760622E+02  0.13169470031E+03  0.41800000000E+01 0.  1.
</event>
<event>
11    1  0.8551154E-009  0.2767944E+03  0.7561462E-02  0.1010520E+00
         22   -1    0    0    0    0  0.00000000000E+00  0.00000000000E+00  0.27992260721E+03  0.27992260721E+03  0.00000000000E+00 0.  1.
         22   -1    0    0    0    0 -0.00000000000E+00 -0.00000000000E+00 -0.26919333720E+04  0.26919333720E+04  0.00000000000E+00 0.  1.
         24    2    1    2    0    0  0.29748839268E+01  0.96762974099E+01 -0.21892778924E+04  0.21906851802E+04  0.77854916530E+02 0.  0.
         25    2    1    2    0    0  0.12525272934E+03  0.20297472514E+03 -0.38811931063E+03  0.47240933507E+03  0.12508795039E+03 0.  0.
        -24    2    1    2    0    0 -0.12822761326E+03 -0.21265102255E+03  0.16538643824E+03  0.30876146392E+03  0.79487039530E+02 0.  0.
        -13    1    3    3    0    0  0.20652308088E+02  0.10323564700E+02 -0.20675307859E+04  0.20676597023E+04  0.00000000000E+00 0.  1.
         14    1    3    3    0    0 -0.17677424161E+02 -0.64726728983E+00 -0.12174710645E+03  0.12302547788E+03  0.00000000000E+00 0. -1.
         13    1    5    5    0    0 -0.77056313314E+01 -0.24727898971E+02 -0.68524396172E+01  0.26791820962E+02  0.00000000000E+00 0. -1.
        -14    1    5    5    0    0 -0.12052198193E+03 -0.18792312358E+03  0.17223887785E+03  0.28196964296E+03  0.00000000000E+00 0.  1.
          5    1    4    4  501    0  0.14714054634E+03  0.14263755490E+03 -0.29837289719E+03  0.36199402015E+03  0.41800000000E+01 0.  1.
         -5    1    4    4    0  501 -0.21887817003E+02  0.60337170240E+02 -0.89746413437E+02  0.11041531493E+03  0.41800000000E+01 0.  1.
</event>
<event>
11    1  0.8551154E-009  0.1385901E+03  0.7561462E-02  0.1109143E+00
         22   -1    0    0    0    0  0.00000000000E+00  0.00000000000E+00  0.87667693570E+03  0.87667693570E+03  0.00000000000E+00 0.  1.
         22   -1    0    0    0    0 -0.00000000000E+00 -0.00000000000E+00 -0.22369424795E+03  0.22369424795E+03  0.00000000000E+00 0. -1.
        -24    2    1    2    0    0  0.38543060783E+02  0.59922700440E+01 -0.89576547425E+02  0.13150591638E+03  0.88024845125E+02 0.  0.
         25    2    1    2    0    0 -0.17163748137E+02  0.50244030596E+02 -0.68338781769E+02  0.15210521968E+03  0.12508697734E+03 0.  0.
         24    2    1    2    0    0 -0.21379312646E+02 -0.56236300640E+02  0.81089801695E+03  0.81676004758E+03  0.76953134573E+02 0.  0.
        -11    1    5    5    0    0 -0.28948896200E+02 -0.61583882563E+02  0.79789852176E+03  0.80079502009E+03  0.00000000000E+00 0.  1.
         12    1    5    5    0    0  0.75695835535E+01  0.53475819232E+01  0.12999495192E+02  0.15965027493E+02  0.00000000000E+00 0. -1.
         11    1    3    3    0    0  0.63778036084E+02 -0.12339583290E+02 -0.63657610360E+02  0.90951605589E+02  0.00000000000E+00 0. -1.
        -12    1    3    3    0    0 -0.25234975301E+02  0.18331853334E+02 -0.25918937065E+02  0.40554310790E+02  0.00000000000E+00 0.  1.
          5    1    4    4  501    0 -0.28219314215E+02  0.22954460221E+02 -0.10129786727E+03  0.10771242849E+03  0.41800000000E+01 0.  1.
         -5    1    4    4    0  501  0.11055566078E+02  0.27289570374E+02  0.32959085501E+02  0.44392791189E+02  0.41800000000E+01 0.  1.
</event>
<event>
11    1  0.8551154E-009  0.1289213E+03  0.7561462E-02  0.1120602E+00
         22   -1    0    0    0    0  0.00000000000E+00  0.00000000000E+00  0.30817224093E+03  0.30817224093E+03  0.00000000000E+00 0.  1.
         22   -1    0    0    0    0 -0.00000000000E+00 -0.00000000000E+00 -0.43586233470E+03  0.43586233470E+03  0.00000000000E+00 0. -1.
         24    2    1    2    0    0  0.31343450134E+02  0.82082280201E+01 -0.37183730574E+03  0.38185405266E+03  0.80621019094E+02 0.  0.
         25    2    1    2    0    0 -0.12279557165E+02 -0.19593879180E+01  0.25931427703E+02  0.12835727376E+03  0.12509406085E+03 0.  0.
        -24    2    1    2    0    0 -0.19063892969E+02 -0.62488401022E+01  0.21821578428E+03  0.23382324921E+03  0.81564105736E+02 0.  0.
        -13    1    3    3    0    0  0.31274584848E+02 -0.33084594417E+02 -0.18740693808E+03  0.19285759120E+03  0.00000000000E+00 0.  1.
         14    1    3    3    0    0  0.68865286234E-01  0.41292822437E+02 -0.18443036767E+03  0.18899646146E+03  0.00000000000E+00 0. -1.
         11    1    5    5    0    0 -0.99487576932E+01 -0.26879192025E+02  0.21526220087E+02  0.35844761051E+02  0.00000000000E+00 0. -1.
        -12    1    5    5    0    0 -0.91151352754E+01  0.20630351923E+02  0.19668956419E+03  0.19797848816E+03  0.00000000000E+00 0.  1.
          5    1    4    4  501    0 -0.16616641357E+02 -0.62530029357E+02  0.14005337944E+02  0.66330530168E+02  0.41800000000E+01 0.  1.
         -5    1    4    4    0  501  0.43370841922E+01  0.60570641439E+02  0.11926089759E+02  0.62026743592E+02  0.41800000000E+01 0.  1.
</event>
<event>
11    1  0.8551154E-009  0.1452549E+03  0.7561462E-02  0.1101828E+00
         22   -1    0    0    0    0  0.00000000000E+00  0.00000000000E+00  0.18716344391E+04  0.18716344391E+04  0.00000000000E+00 0. -1.
         22   -1    0    0    0    0 -0.00000000000E+00 -0.00000000000E+00 -0.13822638363E+03  0.13822638363E+03  0.00000000000E+00 0. -1.
         24    2    1    2    0    0  0.16416434231E+02 -0.65540840104E+02 -0.61554522416E+02  0.12173588477E+03  0.80408739421E+02 0.  0.
         25    2    1    2    0    0 -0.44355941413E+02  0.96427342518E+02  0.10305545791E+03  0.19373562344E+03  0.12508949780E+03 0.  0.
        -24    2    1    2    0    0  0.27939507182E+02 -0.30886502414E+02  0.16919071199E+04  0.16943893145E+04  0.81675298923E+02 0.  0.
        -11    1    3    3    0    0 -0.96401548870E+01  0.16296722627E+02 -0.14138647166E+02  0.23630850562E+02  0.00000000000E+00 0.  1.
         12    1    3    3    0    0  0.26056589118E+02 -0.81837562731E+02 -0.47415875251E+02  0.98105034203E+02  0.00000000000E+00 0. -1.
         11    1    5    5    0    0  0.45049043334E+02 -0.48220050301E+02  0.13529234853E+04  0.13545318552E+04  0.00000000000E+00 0. -1.
        -12    1    5    5    0    0 -0.17109536152E+02  0.17333547887E+02  0.33898363461E+03  0.33985745930E+03  0.00000000000E+00 0.  1.
          5    1    4    4  501    0  0.25258468763E+02  0.84891042402E+02  0.34138963427E+02  0.95012738873E+02  0.41800000000E+01 0. -1.
         -5    1    4    4    0  501 -0.69614410176E+02  0.11536300117E+02  0.68916494487E+02  0.98722884565E+02  0.41800000000E+01 0. -1.
</event>
<event>
11    1  0.8551154E-009  0.1526193E+03  0.7561462E-02  0.1094232E+00
         22   -1    0    0    0    0  0.00000000000E+00  0.00000000000E+00  0.59822592850E+03  0.59822592850E+03  0.00000000000E+00 0. -1.
         22   -1    0    0    0    0 -0.00000000000E+00 -0.00000000000E+00 -0.44454093297E+03  0.44454093297E+03  0.00000000000E+00 0. -1.
        -24    2    1    2    0    0 -0.21584418516E+01 -0.85417442647E+02 -0.35471569628E+03  0.37373314280E+03  0.80947133733E+02 0.  0.
         25    2    1    2    0    0 -0.24591050220E+00  0.10526995907E+03  0.78482667418E+01  0.16368829626E+03  0.12510171177E+03 0.  0.
         24    2    1    2    0    0  0.24043523538E+01 -0.19852516421E+02  0.50055242507E+03  0.50534542241E+03  0.66493325906E+02 0.  0.
        -13    1    5    5    0    0  0.29114915363E+02 -0.39961395598E+01  0.12074437478E+03  0.12426927001E+03  0.00000000000E+00 0.  1.
         14    1    5    5    0    0 -0.26710563009E+02 -0.15856376861E+02  0.37980805029E+03  0.38107615240E+03  0.00000000000E+00 0. -1.
         11    1    3    3    0    0  0.26962534489E+02 -0.50671067029E+02 -0.28393233547E+03  0.28967586442E+03  0.00000000000E+00 0. -1.
        -12    1    3    3    0    0 -0.29120976340E+02 -0.34746375618E+02 -0.70783360811E+02  0.84057278384E+02  0.00000000000E+00 0.  1.
          5    1    4    4  501    0  0.53514912290E+02  0.61186170592E+02  0.35436258950E+02  0.88773837123E+02  0.41800000000E+01 0. -1.
         -5    1    4    4    0  501 -0.53760822792E+02  0.44083788476E+02 -0.27587992208E+02  0.74914459137E+02  0.41800000000E+01 0. -1.
</event>
<event>
11    1  0.8551154E-009  0.1362430E+03  0.7561462E-02  0.1111828E+00
         22   -1    0    0    0    0  0.00000000000E+00  0.00000000000E+00  0.20564177826E+04  0.20564177826E+04  0.00000000000E+00 0.  1.
         22   -1    0    0    0    0 -0.00000000000E+00 -0.00000000000E+00 -0.93502324155E+03  0.93502324155E+03  0.00000000000E+00 0.  1.
        -24    2    1    2    0    0  0.37254718031E+02 -0.12429294782E+02 -0.92321222832E+03  0.92743542015E+03  0.79203779241E+02 0.  0.
         25    2    1    2    0    0  0.22137166744E+02  0.19470747863E+02  0.50215927299E+03  0.51834369614E+03  0.12508831959E+03 0.  0.
         24    2    1    2    0    0 -0.59391884775E+02 -0.70414530807E+01  0.15424474964E+04  0.15456619079E+04  0.79683601333E+02 0.  0.
        -13    1    5    5    0    0 -0.62260822264E+02 -0.20351184937E+02  0.14911581219E+04  0.14925961025E+04  0.00000000000E+00 0.  1.
         14    1    5    5    0    0  0.28689374886E+01  0.13309731857E+02  0.51289374502E+02  0.53065805386E+02  0.00000000000E+00 0. -1.
         13    1    3    3    0    0  0.25607358759E+02 -0.29856298322E+02 -0.19530465532E+03  0.19922611215E+03  0.00000000000E+00 0. -1.
        -14    1    3    3    0    0  0.11647359273E+02  0.17427003540E+02 -0.72790757300E+03  0.72820930800E+03  0.00000000000E+00 0.  1.
          5    1    4    4  501    0 -0.27930353923E+02 -0.23441979076E+02  0.53708992003E+02  0.65051973646E+02  0.41800000000E+01 0.  1.
         -5    1    4    4    0  501  0.50067520666E+02  0.42912726939E+02  0.44845028099E+03  0.45329172249E+03  0.41800000000E+01 0.  1.
</event>
<event>
11    1  0.8551154E-009  0.1408189E+03  0.7561462E-02  0.1106647E+00
         22   -1    0    0    0    0  0.00000000000E+00  0.00000000000E+00  0.18817193360E+03  0.18817193360E+03  0.00000000000E+00 0.  1.
         22   -1    0    0    0    0 -0.00000000000E+00 -0.00000000000E+00 -0.11016973144E+04  0.11016973144E+04  0.00000000000E+00 0. -1.
        -24    2    1    2    0    0 -0.39937590924E+01 -0.62430318816E+02 -0.54331909475E+03  0.55293758912E+03  0.81429993986E+02 0.  0.
         25    2    1    2    0    0 -0.93034392048E+01  0.69045523533E+02 -0.53465149760E+03  0.55349262077E+03  0.12509204234E+03 0.  0.
         24    2    1    2    0    0  0.13297198297E+02 -0.66152047175E+01  0.16444521157E+03  0.18343903809E+03  0.79919188376E+02 0.  0.
        -13    1    5    5    0    0  0.40871778107E+02 -0.16027346914E+02  0.13523070269E+03  0.14217848306E+03  0.00000000000E+00 0.  1.
         14    1    5    5    0    0 -0.27574579810E+02  0.94121421965E+01  0.29214508885E+02  0.41260555035E+02  0.00000000000E+00 0. -1.
         13    1    3    3    0    0  0.24795607090E+02 -0.51871748093E+02 -0.46943726361E+03  0.47294486449E+03  0.00000000000E+00 0. -1.
        -14    1    3    3    0    0 -0.28789366183E+02 -0.10558570722E+02 -0.73881831140E+02  0.79992724629E+02  0.00000000000E+00 0.  1.
          5    1    4    4  501    0  0.47102429614E+02 -0.26593449616E+01 -0.25329546486E+03  0.25768542044E+03  0.41800000000E+01 0.  1.
         -5    1    4    4    0  501 -0.56405868819E+02  0.71704868495E+02 -0.28135603274E+03  0.29580720032E+03  0.41800000000E+01 0.  1.
</event>
<event>
11    1  0.1065576E-008  0.1548741E+03  0.7561462E-02  0.1092000E+00
         22   -1    0    0    0    0  0.00000000000E+00  0.00000000000E+00  0.13043942588E+04  0.13043942588E+04  0.00000000000E+00 0.  1.
         22   -1    0    0    0    0 -0.00000000000E+00 -0.00000000000E+00 -0.15368433821E+04  0.15368433821E+04  0.00000000000E+00 0. -1.
        -24    2    1    2    0    0 -0.38789141625E+02  0.62671848481E+02 -0.12222309872E+04  0.12271186021E+04  0.80864823208E+02 0.  0.
         25    2    1    2    0    0  0.12922563206E+03 -0.71813599227E+02 -0.27898582471E+03  0.33961412395E+03  0.12509278870E+03 0.  0.
         24    2    1    2    0    0 -0.90436490435E+02  0.91417507458E+01  0.12687676885E+04  0.12745049148E+04  0.79555012751E+02 0.  0.
        -11    1    5    5    0    0 -0.57187835007E+02  0.24115687612E+02  0.11043265034E+04  0.11060691845E+04  0.00000000000E+00 0.  1.
         12    1    5    5    0    0 -0.33248655428E+02 -0.14973936867E+02  0.16444118514E+03  0.16843573030E+03  0.00000000000E+00 0. -1.
         11    1    3    3    0    0 -0.17887501600E+02  0.24400403532E+02 -0.10100452604E+04  0.10104982783E+04  0.00000000000E+00 0. -1.
        -12    1    3    3    0    0 -0.20901640025E+02  0.38271444950E+02 -0.21218572672E+03  0.21662032379E+03  0.00000000000E+00 0.  1.
          5    1    4    4  501    0  0.12178266653E+03 -0.76427848519E+02 -0.29073791662E+03  0.32437361554E+03  0.41800000000E+01 0.  1.
         -5    1    4    4    0  501  0.74429655259E+01  0.46142492917E+01  0.11752091914E+02  0.15240508413E+02  0.41800000000E+01 0.  1.
</event>
<event>
11    1  0.8551154E-009  0.4703499E+03  0.7561462E-02  0.9462330E-01
         22   -1    0    0    0    0  0.00000000000E+00  0.00000000000E+00  0.13588584428E+04  0.13588584428E+04  0.00000000000E+00 0. -1.
         22   -1    0    0    0    0 -0.00000000000E+00 -0.00000000000E+00 -0.10707705662E+04  0.10707705662E+04  0.00000000000E+00 0.  1.
        -24    2    1    2    0    0 -0.50535327126E+02  0.80171319241E+01 -0.73807255542E+03  0.74392727895E+03  0.77837045242E+02 0.  0.
         25    2    1    2    0    0  0.48610378151E+03 -0.10542273579E+03 -0.52483872240E+02  0.51557069854E+03  0.12509096181E+03 0.  0.
         24    2    1    2    0    0 -0.43556845438E+03  0.97405603863E+02  0.10786443043E+04  0.11701310315E+04  0.80779734383E+02 0.  0.
        -13    1    5    5    0    0 -0.46448794567E+01 -0.34374009472E+01  0.20677979598E+01  0.61372973564E+01  0.00000000000E+00 0.  1.
         14    1    5    5    0    0 -0.43092357492E+03  0.10084300481E+03  0.10765765063E+04  0.11639937341E+04  0.00000000000E+00 0. -1.
         13    1    3    3    0    0 -0.15204471769E+02 -0.11142419130E+02 -0.35397876424E+02  0.40104103545E+02  0.00000000000E+00 0. -1.
        -14    1    3    3    0    0 -0.35330855358E+02  0.19159551054E+02 -0.70267467899E+03  0.70382317540E+03  0.00000000000E+00 0.  1.
          5    1    4    4  501    0  0.14421089998E+03 -0.90200954352E+02 -0.68655184160E+01  0.17028682739E+03  0.41800000000E+01 0. -1.
         -5    1    4    4    0  501  0.34189288152E+03 -0.15221781435E+02 -0.45618353824E+02  0.34528387114E+03  0.41800000000E+01 0. -1.
</event>
<event>
11    1  0.8551154E-009  0.1473529E+03  0.7561462E-02  0.1099615E+00
         22   -1    0    0    0    0  0.00000000000E+00  0.00000000000E+00  0.13923953183E+04  0.13923953183E+04  0.00000000000E+00 0.  1.
         22   -1    0    0    0    0 -0.00000000000E+00 -0.00000000000E+00 -0.13503239696E+03  0.13503239696E+03  0.00000000000E+00 0. -1.
         24    2    1    2    0    0 -0.19751925255E+02 -0.70347323875E+02 -0.92755224619E+02  0.14281434490E+03  0.80333809119E+02 0.  0.
         25    2    1    2    0    0 -0.36901513902E+02 -0.87550164498E+01  0.33526644826E+03  0.35984620923E+03  0.12508929181E+03 0.  0.
        -24    2    1    2    0    0  0.56653439157E+02  0.79102340325E+02  0.10148516977E+04  0.10247671612E+04  0.10371583192E+03 0.  0.
        -13    1    3    3    0    0 -0.15022950082E+02 -0.36535566551E+02  0.44825740689E+01  0.39757139266E+02  0.00000000000E+00 0.  1.
         14    1    3    3    0    0 -0.47289751734E+01 -0.33811757325E+02 -0.97237798688E+02  0.10305720563E+03  0.00000000000E+00 0. -1.
         11    1    5    5    0    0 -0.18080587256E+02  0.30012474412E+02  0.10853496171E+03  0.11405040188E+03  0.00000000000E+00 0. -1.
        -12    1    5    5    0    0  0.74734026413E+02  0.49089865913E+02  0.90631673602E+03  0.91071675928E+03  0.00000000000E+00 0.  1.
          5    1    4    4  501    0  0.19666558306E+01  0.15391603927E+01 -0.10579212781E+02  0.11645981837E+02  0.41800000000E+01 0. -1.
         -5    1    4    4    0  501 -0.38868169732E+02 -0.10294176842E+02  0.34584566104E+03  0.34820022739E+03  0.41800000000E+01 0. -1.
</event>
<event>
11    1  0.8551154E-009  0.1887477E+03  0.7561462E-02  0.1062779E+00
         22   -1    0    0    0    0  0.00000000000E+00  0.00000000000E+00  0.70556185870E+03  0.70556185870E+03  0.00000000000E+00 0.  1.
         22   -1    0    0    0    0 -0.00000000000E+00 -0.00000000000E+00 -0.53944047952E+03  0.53944047952E+03  0.00000000000E+00 0. -1.
        -24    2    1    2    0    0  0.47010065758E+01 -0.68221189172E+01 -0.31549342005E+03  0.32563649865E+03  0.80214651953E+02 0.  0.
         25    2    1    2    0    0  0.92522366048E+02  0.10931573944E+03 -0.16555668939E+03  0.25212171655E+03  0.12508406552E+03 0.  0.
         24    2    1    2    0    0 -0.97223372624E+02 -0.10249362053E+03  0.64717148861E+03  0.66724412302E+03  0.80165189497E+02 0.  0.
        -11    1    5    5    0    0 -0.64662237305E+02 -0.10869473561E+03  0.55686405018E+03  0.57104581328E+03  0.00000000000E+00 0.  1.
         12    1    5    5    0    0 -0.32561135319E+02  0.62011150845E+01  0.90307438425E+02  0.96198309738E+02  0.00000000000E+00 0. -1.
         11    1    3    3    0    0  0.16412130484E+02  0.28933456895E+02 -0.22775170534E+03  0.23016807389E+03  0.00000000000E+00 0. -1.
        -12    1    3    3    0    0 -0.11711123908E+02 -0.35755575812E+02 -0.87741714711E+02  0.95468424755E+02  0.00000000000E+00 0.  1.
          5    1    4    4  501    0  0.40316117478E+02  0.34500004076E+02 -0.15040789541E+03  0.15954825919E+03  0.41800000000E+01 0.  1.
         -5    1    4    4    0  501  0.52206248570E+02  0.74815735368E+02 -0.15148793976E+02  0.92573457359E+02  0.41800000000E+01 0.  1.
</event>
<event>
11    1  0.8551154E-009  0.1413210E+03  0.7561462E-02  0.1106092E+00
         22   -1    0    0    0    0  0.00000000000E+00  0.00000000000E+00  0.75332874531E+03  0.75332874531E+03  0.00000000000E+00 0. -1.
         22   -1    0    0    0    0 -0.00000000000E+00 -0.00000000000E+00 -0.17597108520E+04  0.17597108520E+04  0.00000000000E+00 0.  1.
        -24    2    1    2    0    0 -0.61131539167E+02 -0.20107979589E+02 -0.15478895827E+04  0.15513092310E+04  0.80354053948E+02 0.  0.
         25    2    1    2    0    0  0.76702197060E+02  0.53587509025E+02 -0.17803872123E+03  0.23685473318E+03  0.12509008840E+03 0.  0.
         24    2    1    2    0    0 -0.15570657892E+02 -0.33479529436E+02  0.71954619728E+03  0.72487563311E+03  0.79590383726E+02 0.  0.
        -13    1    5    5    0    0 -0.28302602097E+01 -0.42409409842E+02  0.17430046648E+03  0.17940797371E+03  0.00000000000E+00 0.  1.
         14    1    5    5    0    0 -0.12740397683E+02  0.89298804057E+01  0.54524573080E+03  0.54546765940E+03  0.00000000000E+00 0. -1.
         13    1    3    3    0    0  0.39967009319E+01  0.23454255849E+02 -0.28505569023E+03  0.28604688823E+03  0.00000000000E+00 0. -1.
        -14    1    3    3    0    0 -0.65128240099E+02 -0.43562235438E+02 -0.12628338925E+04  0.12652623427E+04  0.00000000000E+00 0.  1.
          5    1    4    4  501    0  0.82582040810E+02  0.31537654857E+01 -0.44558832340E+02  0.93982453898E+02  0.41800000000E+01 0. -1.
         -5    1    4    4    0  501 -0.58798437505E+01  0.50433743539E+02 -0.13347988889E+03  0.14287227929E+03  0.41800000000E+01 0. -1.
</event>
<event>
11    1  0.8551154E-009  0.1671405E+03  0.7561462E-02  0.1080547E+00
         22   -1    0    0    0    0  0.00000000000E+00  0.00000000000E+00  0.22261443242E+04  0.22261443242E+04  0.00000000000E+00 0.  1.
         22   -1    0    0    0    0 -0.00000000000E+00 -0.00000000000E+00 -0.78944536671E+03  0.78944536671E+03  0.00000000000E+00 0.  1.
        -24    2    1    2    0    0 -0.10946127333E+03  0.21217233827E+02 -0.75469112093E+03  0.76723957051E+03  0.81645141701E+02 0.  0.
         25    2    1    2    0    0  0.86659488093E+02 -0.21076184059E+02  0.18572045867E+03  0.24102383579E+03  0.12508528387E+03 0.  0.
         24    2    1    2    0    0  0.22801785234E+02 -0.14104976761E+00  0.20056696197E+04  0.20073262846E+04  0.78283127270E+02 0.  0.
        -13    1    5    5    0    0  0.51452652714E+02  0.66425780068E+01  0.13478917611E+04  0.13488898023E+04  0.00000000000E+00 0.  1.
         14    1    5    5    0    0 -0.28650867480E+02 -0.67836277744E+01  0.65777785869E+03  0.65843648228E+03  0.00000000000E+00 0. -1.
         11    1    3    3    0    0  0.11773626364E+02  0.52198032721E+01 -0.36346709436E+02  0.38560963561E+02  0.00000000000E+00 0. -1.
        -12    1    3    3    0    0 -0.12123489969E+03  0.15997430555E+02 -0.71834441150E+03  0.72867860694E+03  0.00000000000E+00 0.  1.
          5    1    4    4  501    0  0.12887421539E+02  0.48628603661E+02  0.46114661451E+02  0.68372956121E+02  0.41800000000E+01 0.  1.
         -5    1    4    4    0  501  0.73772066553E+02 -0.69704787720E+02  0.13960579721E+03  0.17265087967E+03  0.41800000000E+01 0.  1.
</event>
<event>
11    1  0.8551154E-009  0.1549248E+03  0.7561462E-02  0.1091950E+00
         22   -1    0    0    0    0  0.00000000000E+00  0.00000000000E+00  0.36784485172E+03  0.36784485172E+03  0.00000000000E+00 0.  1.
         22   -1    0    0    0    0 -0.00000000000E+00 -0.00000000000E+00 -0.10953547991E+04  0.10953547991E+04  0.00000000000E+00 0.  1.
         24    2    1    2    0    0  0.90450015545E+02 -0.10501528421E+02 -0.10277939634E+04  0.10349003184E+04  0.79791920564E+02 0.  0.
         25    2    1    2    0    0 -0.97929536299E+02  0.56707474238E+02  0.75110027323E+02  0.18464625177E+03  0.12508713113E+03 0.  0.
        -24    2    1    2    0    0  0.74795207535E+01 -0.46205945817E+02  0.22517398870E+03  0.24365308056E+03  0.80452258020E+02 0.  0.
        -13    1    3    3    0    0  0.17611404845E+02 -0.67543763348E+00 -0.63765537830E+03  0.63789889424E+03  0.00000000000E+00 0.  1.
         14    1    3    3    0    0  0.72838610700E+02 -0.98260907872E+01 -0.39013858505E+03  0.39700142420E+03  0.00000000000E+00 0. -1.
         13    1    5    5    0    0 -0.23596648241E+02 -0.53614070851E+02  0.11675728066E+03  0.13062745878E+03  0.00000000000E+00 0. -1.
        -14    1    5    5    0    0  0.31076168994E+02  0.74081250333E+01  0.10841670804E+03  0.11302562178E+03  0.00000000000E+00 0.  1.
          5    1    4    4  501    0 -0.19063923533E+02 -0.24976444465E+02 -0.19135836910E+02  0.37025783082E+02  0.41800000000E+01 0. -1.
         -5    1    4    4    0  501 -0.78865612766E+02  0.81683918703E+02  0.94245864233E+02  0.14762046869E+03  0.41800000000E+01 0. -1.
</event>
<event>
11    1  0.8551154E-009  0.1368742E+03  0.7561462E-02  0.1111100E+00
         22   -1    0    0    0    0  0.00000000000E+00  0.00000000000E+00  0.54374222567E+03  0.54374222567E+03  0.00000000000E+00 0. -1.
         22   -1    0    0    0    0 -0.00000000000E+00 -0.00000000000E+00 -0.46170708539E+03  0.46170708539E+03  0.00000000000E+00 0.  1.
         24    2    1    2    0    0 -0.54122373179E+02 -0.98307192572E+01 -0.39921230030E+03  0.41095197964E+03  0.80530705568E+02 0.  0.
         25    2    1    2    0    0  0.56188601769E+02  0.52193211000E+02  0.52804891053E+02  0.15593892633E+03  0.12508917612E+03 0.  0.
        -24    2    1    2    0    0 -0.20662285900E+01 -0.42362491742E+02  0.42844254952E+03  0.43855840510E+03  0.83496146213E+02 0.  0.
        -13    1    3    3    0    0 -0.54805957853E+02  0.57207826806E+01 -0.38768630127E+03  0.39158279911E+03  0.00000000000E+00 0.  1.
         14    1    3    3    0    0  0.68358467369E+00 -0.15551501938E+02 -0.11525999029E+02  0.19369180523E+02  0.00000000000E+00 0. -1.
         13    1    5    5    0    0 -0.30632183080E+02 -0.37677656571E+02  0.37170087217E+03  0.37485927335E+03  0.00000000000E+00 0. -1.
        -14    1    5    5    0    0  0.28565954490E+02 -0.46848351717E+01  0.56741677357E+02  0.63699131750E+02  0.00000000000E+00 0.  1.
          5    1    4    4  501    0  0.13280127106E+02  0.35757606733E+02 -0.38050581986E+02  0.54039683610E+02  0.41800000000E+01 0. -1.
         -5    1    4    4    0  501  0.42908474664E+02  0.16435604266E+02  0.90855473038E+02  0.10189924272E+03  0.41800000000E+01 0. -1.
</event>
<event>
11    1  0.8551154E-009  0.2193629E+03  0.7561462E-02  0.1041617E+00
         22   -1    0    0    0    0  0.00000000000E+00  0.00000000000E+00  0.67145271726E+03  0.67145271726E+03  0.00000000000E+00 0. -1.
         22   -1    0    0    0    0 -0.00000000000E+00 -0.00000000000E+00 -0.17212536411E+04  0.17212536411E+04  0.00000000000E+00 0.  1.
        -24    2    1    2    0    0 -0.99405639690E+01  0.76749475822E+02 -0.14330177078E+04  0.14373007224E+04  0.79399742229E+02 0.  0.
         25    2    1    2    0    0  0.16504802299E+03 -0.16337028449E+03 -0.20613998820E+03  0.33476801137E+03  0.12508088165E+03 0.  0.
         24    2    1    2    0    0 -0.15510745902E+03  0.86620808665E+02  0.58935677214E+03  0.62063762455E+03  0.79297968456E+02 0.  0.
        -13    1    5    5    0    0 -0.62651900561E+02  0.31278678922E+02  0.11881011300E+03  0.13791105594E+03  0.00000000000E+00 0.  1.
         14    1    5    5    0    0 -0.92455558457E+02  0.55342129743E+02  0.47054665914E+03  0.48272656861E+03  0.00000000000E+00 0. -1.
         13    1    3    3    0    0 -0.42800695940E+02  0.26007935969E+02 -0.70578898994E+03  0.70756371489E+03  0.00000000000E+00 0. -1.
        -14    1    3    3    0    0  0.32860131971E+02  0.50741539853E+02 -0.72722871781E+03  0.72973700752E+03  0.00000000000E+00 0.  1.
          5    1    4    4  501    0  0.94142708756E+02 -0.18179330143E+02 -0.43165496349E+02  0.10523340787E+03  0.41800000000E+01 0. -1.
         -5    1    4    4    0  501  0.70905314231E+02 -0.14519095434E+03 -0.16297449185E+03  0.22953460350E+03  0.41800000000E+01 0. -1.
</event>
<event>
11    1  0.8551154E-009  0.1497935E+03  0.7561462E-02  0.1097090E+00
         22   -1    0    0    0    0  0.00000000000E+00  0.00000000000E+00  0.21793557341E+04  0.21793557341E+04  0.00000000000E+00 0.  1.
         22   -1    0    0    0    0 -0.00000000000E+00 -0.00000000000E+00 -0.17556850456E+03  0.17556850456E+03  0.00000000000E+00 0. -1.
         24    2    1    2    0    0 -0.50222625216E+02 -0.68828671677E+02 -0.13802363232E+03  0.18336998710E+03  0.85523861936E+02 0.  0.
         25    2    1    2    0    0 -0.33021816018E+01  0.51524385163E+02  0.32462903382E+03  0.35171447297E+03  0.12511352536E+03 0.  0.
        -24    2    1    2    0    0  0.53524806818E+02  0.17304286514E+02  0.18171818281E+04  0.18198397786E+04  0.80639198415E+02 0.  0.
        -13    1    3    3    0    0 -0.32279385037E+02 -0.35595219314E+02 -0.89422966281E+01  0.48876814599E+02  0.00000000000E+00 0.  1.
         14    1    3    3    0    0 -0.17943240179E+02 -0.33233452363E+02 -0.12908133570E+03  0.13449317250E+03  0.00000000000E+00 0. -1.
         11    1    5    5    0    0  0.10303016008E+02  0.28086126281E+02  0.21862003602E+03  0.22065743309E+03  0.00000000000E+00 0. -1.
        -12    1    5    5    0    0  0.43221790809E+02 -0.10781839767E+02  0.15985617920E+04  0.15991823455E+04  0.00000000000E+00 0.  1.
          5    1    4    4  501    0  0.25639935342E+02  0.74619925328E+02  0.11970749499E+03  0.14343254965E+03  0.41800000000E+01 0. -1.
         -5    1    4    4    0  501 -0.28942116944E+02 -0.23095540165E+02  0.20492153883E+03  0.20828192332E+03  0.41800000000E+01 0. -1.
</event>
<event>
11    1  0.8551154E-009  0.1628118E+03  0.7561462E-02  0.1084462E+00
         22   -1    0    0    0    0  0.00000000000E+00  0.00000000000E+00  0.21707055971E+03  0.21707055971E+03  0.00000000000E+00 0.  1.
         22   -1    0    0    0    0 -0.00000000000E+00 -0.00000000000E+00 -0.10730048252E+04  0.10730048252E+04  0.00000000000E+00 0.  1.
         24    2    1    2    0    0  0.73839036110E+02 -0.77025866314E+02 -0.93554336238E+03  0.94502402969E+03  0.80273572593E+02 0.  0.
         25    2    1    2    0    0 -0.65658765105E+02  0.48017733057E+02 -0.75957159982E+02  0.16743307237E+03  0.12509023722E+03 0.  0.
        -24    2    1    2    0    0 -0.81802710046E+01  0.29008133257E+02  0.15556625690E+03  0.17761828283E+03  0.80243413934E+02 0.  0.
        -13    1    3    3    0    0  0.63440539951E+02 -0.76014921424E+02 -0.92463035853E+03  0.92991627059E+03  0.00000000000E+00 0.  1.
         14    1    3    3    0    0  0.10398496159E+02 -0.10109448895E+01 -0.10913003847E+02  0.15107759096E+02  0.00000000000E+00 0. -1.
         13    1    5    5    0    0  0.30009567919E+02 -0.81621862961E+01  0.42933468983E+02  0.53013943550E+02  0.00000000000E+00 0. -1.
        -14    1    5    5    0    0 -0.38189838923E+02  0.37170319553E+02  0.11263278792E+03  0.12460433928E+03  0.00000000000E+00 0.  1.
          5    1    4    4  501    0  0.36460181427E+02  0.24951202930E+02 -0.24776161130E+02  0.50825563623E+02  0.41800000000E+01 0. -1.
         -5    1    4    4    0  501 -0.10211894653E+03  0.23066530127E+02 -0.51180998852E+02  0.11660750875E+03  0.41800000000E+01 0. -1.
</event>
<event>
11    1  0.8551154E-009  0.1427926E+03  0.7561462E-02  0.1104479E+00
         22   -1    0    0    0    0  0.00000000000E+00  0.00000000000E+00  0.10725700733E+04  0.10725700733E+04  0.00000000000E+00 0. -1.
         22   -1    0    0    0    0 -0.00000000000E+00 -0.00000000000E+00 -0.11297785708E+04  0.11297785708E+04  0.00000000000E+00 0. -1.
         24    2    1    2    0    0 -0.69649584152E+02 -0.30651661665E+01 -0.10191309968E+04  0.10246804839E+04  0.80508667873E+02 0.  0.
         25    2    1    2    0    0  0.50554463581E+02  0.51752514175E+02 -0.56259327101E+02  0.15506871470E+03  0.12508844023E+03 0.  0.
        -24    2    1    2    0    0  0.19095120571E+02 -0.48687348009E+02  0.10181818264E+04  0.10225994455E+04  0.79248423865E+02 0.  0.
        -11    1    3    3    0    0 -0.62016620213E+02 -0.87362317429E+01 -0.35504893682E+03  0.36053034611E+03  0.00000000000E+00 0.  1.
         12    1    3    3    0    0 -0.76329639382E+01  0.56710655765E+01 -0.66408206002E+03  0.66415013782E+03  0.00000000000E+00 0. -1.
         11    1    5    5    0    0  0.19160385363E+02 -0.25376939360E+02  0.95020463803E+03  0.95073653740E+03  0.00000000000E+00 0. -1.
        -12    1    5    5    0    0 -0.65264792754E-01 -0.23310408649E+02  0.67977188400E+02  0.71862908051E+02  0.00000000000E+00 0.  1.
          5    1    4    4  501    0  0.84618428893E+02  0.43681151853E+02 -0.68901614125E+02  0.11761473702E+03  0.41800000000E+01 0. -1.
         -5    1    4    4    0  501 -0.34063965312E+02  0.80713623227E+01  0.12642287024E+02  0.37453977675E+02  0.41800000000E+01 0. -1.
</event>
<event>
11    1  0.8551154E-009  0.1487025E+03  0.7561462E-02  0.1098212E+00
         22   -1    0    0    0    0  0.00000000000E+00  0.00000000000E+00  0.14983212592E+04  0.14983212592E+04  0.00000000000E+00 0. -1.
         22   -1    0    0    0    0 -0.00000000000E+00 -0.00000000000E+00 -0.37454450337E+03  0.37454450337E+03  0.00000000000E+00 0. -1.
        -24    2    1    2    0    0 -0.17213874451E+02  0.99725998973E+01 -0.28829718656E+03  0.29982786260E+03  0.79910632510E+02 0.  0.
         25    2    1    2    0    0  0.95738749722E+02  0.52876824399E+01  0.12318839247E+01  0.15760738837E+03  0.12507878935E+03 0.  0.
         24    2    1    2    0    0 -0.78524875271E+02 -0.15260282337E+02  0.14108420585E+04  0.14154305116E+04  0.81050521142E+02 0.  0.
        -13    1    5    5    0    0  0.13320300704E+02 -0.17515336280E+02  0.27135584479E+03  0.27224660129E+03  0.00000000000E+00 0.  1.
         14    1    5    5    0    0 -0.91845175975E+02  0.22550539432E+01  0.11394862137E+04  0.11431839103E+04  0.00000000000E+00 0. -1.
         11    1    3    3    0    0 -0.41581297713E+02 -0.74873492248E+00 -0.24844492006E+03  0.25190165388E+03  0.00000000000E+00 0. -1.
        -12    1    3    3    0    0  0.24367423263E+02  0.10721334820E+02 -0.39852266502E+02  0.47926208719E+02  0.00000000000E+00 0.  1.
          5    1    4    4  501    0 -0.16624993339E+02  0.15232846542E+01  0.35959001052E+02  0.39865184765E+02  0.41800000000E+01 0. -1.
         -5    1    4    4    0  501  0.11236374306E+03  0.37643977857E+01 -0.34727117128E+02  0.11774220360E+03  0.41800000000E+01 0. -1.
</event>
<event>
11    1  0.8551154E-009  0.1363742E+03  0.7561462E-02  0.1111676E+00
         22   -1    0    0    0    0  0.00000000000E+00  0.00000000000E+00  0.90564955259E+03  0.90564955259E+03  0.00000000000E+00 0. -1.
         22   -1    0    0    0    0 -0.00000000000E+00 -0.00000000000E+00 -0.68100181941E+03  0.68100181941E+03  0.00000000000E+00 0.  1.
        -24    2    1    2    0    0  0.87086990344E+00  0.22158628097E+02 -0.61059044300E+03  0.61613170627E+03  0.79409238613E+02 0.  0.
         25    2    1    2    0    0 -0.44215661142E+02  0.11469165426E+02  0.37489139342E+01  0.13322445451E+03  0.12509250369E+03 0.  0.
         24    2    1    2    0    0  0.43344791239E+02 -0.33627793523E+02  0.83148926224E+03  0.83729521121E+03  0.81726850401E+02 0.  0.
        -13    1    5    5    0    0 -0.24200854599E+02 -0.93648723078E+01  0.17914504600E+03  0.18101472234E+03  0.00000000000E+00 0.  1.
         14    1    5    5    0    0  0.67545645838E+02 -0.24262921215E+02  0.65234421623E+03  0.65628048887E+03  0.00000000000E+00 0. -1.
         13    1    3    3    0    0 -0.16808020574E+02  0.41909091630E+02 -0.21691518947E+03  0.22156507157E+03  0.00000000000E+00 0. -1.
        -14    1    3    3    0    0  0.17678890477E+02 -0.19750463533E+02 -0.39367525354E+03  0.39456663471E+03  0.00000000000E+00 0.  1.
          5    1    4    4  501    0  0.21597879973E+02  0.47903963200E+02  0.19588571183E+02  0.56235599317E+02  0.41800000000E+01 0.  1.
         -5    1    4    4    0  501 -0.65813541115E+02 -0.36434797773E+02 -0.15839657249E+02  0.76988855198E+02  0.41800000000E+01 0.  1.
</event>
<event>
11    1  0.8551154E-009  0.2757972E+03  0.7561462E-02  0.1010989E+00
         22   -1    0    0    0    0  0.00000000000E+00  0.00000000000E+00  0.19391340030E+04  0.19391340030E+04  0.00000000000E+00 0.  1.
         22   -1    0    0    0    0 -0.00000000000E+00 -0.00000000000E+00 -0.49045392262E+03  0.49045392262E+03  0.00000000000E+00 0. -1.
        -24    2    1    2    0    0  0.19311597448E+03  0.10930528731E+03 -0.14707694105E+03  0.27826335147E+03  0.80978026330E+02 0.  0.
         25    2    1    2    0    0 -0.15746889161E+03 -0.25671493497E+03 -0.17653318291E+03  0.37082300013E+03  0.12508686219E+03 0.  0.
         24    2    1    2    0    0 -0.35647082868E+02  0.14740964766E+03  0.17722902043E+04  0.17805015740E+04  0.78568237341E+02 0.  0.
        -11    1    5    5    0    0 -0.35672673372E+01  0.13320506593E+03  0.15114342239E+04  0.15172968490E+04  0.00000000000E+00 0.  1.
         12    1    5    5    0    0 -0.32079815530E+02  0.14204581729E+02  0.26085598044E+03  0.26320472496E+03  0.00000000000E+00 0. -1.
         13    1    3    3    0    0  0.18168081614E+03  0.10454989479E+03 -0.15740668721E+03  0.26213634741E+03  0.00000000000E+00 0. -1.
        -14    1    3    3    0    0  0.11435158341E+02  0.47553925238E+01  0.10329746159E+02  0.16127004063E+02  0.00000000000E+00 0.  1.
          5    1    4    4  501    0 -0.16725851482E+03 -0.25010392748E+03 -0.13939153264E+03  0.33162457251E+03  0.41800000000E+01 0.  1.
         -5    1    4    4    0  501  0.97896232148E+01 -0.66110074928E+01 -0.37141650269E+02  0.39198427614E+02  0.41800000000E+01 0.  1.
</event>
<event>
11    1  0.8551154E-009  0.1377225E+03  0.7561462E-02  0.1110129E+00
         22   -1    0    0    0    0  0.00000000000E+00  0.00000000000E+00  0.21611526022E+04  0.21611526022E+04  0.00000000000E+00 0.  1.
         22   -1    0    0    0    0 -0.00000000000E+00 -0.00000000000E+00 -0.44373887045E+02  0.44373887045E+02  0.00000000000E+00 0. -1.
         24    2    1    2    0    0  0.15775563435E+02 -0.17522460001E+02  0.15855201990E+02  0.89208571807E+02  0.84562857376E+02 0.  0.
         25    2    1    2    0    0  0.42347213026E+02  0.32675833665E+02  0.79227210118E+03  0.80386771971E+03  0.12508889611E+03 0.  0.
        -24    2    1    2    0    0 -0.58122776462E+02 -0.15153373665E+02  0.13086514120E+04  0.13124501977E+04  0.79681375143E+02 0.  0.
        -11    1    3    3    0    0 -0.87225659677E+01 -0.58815368045E+01  0.46853005849E+02  0.48019577146E+02  0.00000000000E+00 0.  1.
         12    1    3    3    0    0  0.24498129403E+02 -0.11640923196E+02 -0.30997803858E+02  0.41188994661E+02  0.00000000000E+00 0. -1.
         13    1    5    5    0    0  0.16633339445E+02 -0.17744267002E+02  0.39062762017E+03  0.39138403728E+03  0.00000000000E+00 0. -1.
        -14    1    5    5    0    0 -0.74756115906E+02  0.25908933375E+01  0.91802379178E+03  0.92106616042E+03  0.00000000000E+00 0.  1.
          5    1    4    4  501    0 -0.14404712125E+02  0.66295432271E+02  0.33321672388E+03  0.34007857555E+03  0.41800000000E+01 0. -1.
         -5    1    4    4    0  501  0.56751925151E+02 -0.33619598606E+02  0.45905537730E+03  0.46378914416E+03  0.41800000000E+01 0. -1.
</event>
<event>
11    1  0.8551154E-009  0.2172592E+03  0.7561462E-02  0.1042948E+00
         22   -1    0    0    0    0  0.00000000000E+00  0.00000000000E+00  0.85409761521E+03  0.85409761521E+03  0.00000000000E+00 0. -1.
         22   -1    0    0    0    0 -0.00000000000E+00 -0.00000000000E+00 -0.15225425804E+03  0.15225425804E+03  0.00000000000E+00 0. -1.
         24    2    1    2    0    0  0.36438912398E+01  0.24860039096E+01 -0.42485650846E+02  0.90931379500E+02  0.80274697702E+02 0.  0.
         25    2    1    2    0    0  0.16947095955E+03  0.40380147933E+02  0.91774834398E+02  0.23328795330E+03  0.12509870682E+03 0.  0.
        -24    2    1    2    0    0 -0.17311485079E+03 -0.42866151843E+02  0.65255417362E+03  0.68213254046E+03  0.87587640178E+02 0.  0.
        -13    1    3    3    0    0  0.16019847050E+02  0.36822689133E+02 -0.35856629541E+02  0.53835339848E+02  0.00000000000E+00 0.  1.
         14    1    3    3    0    0 -0.12375955811E+02 -0.34336685224E+02 -0.66290213053E+01  0.37096039652E+02  0.00000000000E+00 0. -1.
         13    1    5    5    0    0 -0.13116286199E+03 -0.65277155022E+02  0.54838469356E+03  0.56761833609E+03  0.00000000000E+00 0. -1.
        -14    1    5    5    0    0 -0.41951988792E+02  0.22411003179E+02  0.10416948006E+03  0.11451420437E+03  0.00000000000E+00 0.  1.
          5    1    4    4  501    0  0.94049989048E+02  0.43262067506E+02  0.11443861341E+03  0.15437187426E+03  0.41800000000E+01 0.  1.
         -5    1    4    4    0  501  0.75420970497E+02 -0.28819195724E+01 -0.22663779008E+02  0.78916079034E+02  0.41800000000E+01 0.  1.
</event>
