<event>
11    1  0.1078607E-008  0.1414818E+03  0.7561462E-02  0.1105915E+00
         22   -1    0    0    0    0  0.00000000000E+00  0.00000000000E+00  0.55342547211E+03  0.55342547211E+03  0.00000000000E+00 0.  1.
         22   -1    0    0    0    0 -0.00000000000E+00 -0.00000000000E+00 -0.62393934071E+03  0.62393934071E+03  0.00000000000E+00 0. -1.
        -24    2    1    2    0    0 -0.48771211654E+02  0.42178596853E+02 -0.46543962396E+03  0.47665009014E+03  0.80022495333E+02 0.  0.
         25    2    1    2    0    0  0.46132690678E+02 -0.63369560565E+02 -0.11288837170E+03  0.18583651620E+03  0.12508996735E+03 0.  0.
         24    2    1    2    0    0  0.26385209762E+01  0.21190963712E+02  0.50781412706E+03  0.51487820649E+03  0.82270050066E+02 0.  0.
        -11    1    5    5    0    0  0.31312340390E+02  0.27030600716E+01  0.41152684004E+03  0.41272522248E+03  0.00000000000E+00 0.  1.
         12    1    5    5    0    0 -0.28673819414E+02  0.18487903640E+02  0.96287287023E+02  0.10215298401E+03  0.00000000000E+00 0. -1.
         11    1    3    3    0    0 -0.69210440092E+01  0.47538894486E+02 -0.35823165486E+03  0.36143846763E+03  0.00000000000E+00 0. -1.
        -12    1    3    3    0    0 -0.41850167645E+02 -0.53602976328E+01 -0.10720796909E+03  0.11521162250E+03  0.00000000000E+00 0.  1.
          5    1    4    4  501    0 -0.33019910007E+02  0.28227823659E+01 -0.77582764799E+00  0.33411926997E+02  0.41800000000E+01 0.  1.
         -5    1    4    4    0  501  0.79152600685E+02 -0.66192342931E+02 -0.11211254406E+03  0.15242458920E+03  0.41800000000E+01 0.  1.
</event>
<event>
11    1  0.1078607E-008  0.3578442E+03  0.7561462E-02  0.9783045E-01
         22   -1    0    0    0    0  0.00000000000E+00  0.00000000000E+00  0.18842830067E+04  0.18842830067E+04  0.00000000000E+00 0.  1.
         22   -1    0    0    0    0 -0.00000000000E+00 -0.00000000000E+00 -0.67730060420E+03  0.67730060420E+03  0.00000000000E+00 0. -1.
        -24    2    1    2    0    0 -0.19342395100E+03  0.10772485383E+03 -0.50700446723E+03  0.55924873091E+03  0.81781075336E+02 0.  0.
         25    2    1    2    0    0  0.39994707333E+03 -0.33429674415E+03  0.45219184095E+03  0.70131165315E+03  0.12509436123E+03 0.  0.
         24    2    1    2    0    0 -0.20652312233E+03  0.22657189033E+03  0.12617950287E+04  0.13010232268E+04  0.80920458060E+02 0.  0.
        -11    1    5    5    0    0 -0.51677151886E+02  0.71011243521E+02  0.52264422418E+03  0.52997180095E+03  0.00000000000E+00 0.  1.
         12    1    5    5    0    0 -0.15484597044E+03  0.15556064681E+03  0.73915080456E+03  0.77105142584E+03  0.00000000000E+00 0. -1.
         11    1    3    3    0    0 -0.12017985033E+03  0.31618018951E+02 -0.20991740101E+03  0.24394304826E+03  0.00000000000E+00 0. -1.
        -12    1    3    3    0    0 -0.73244100674E+02  0.76106834876E+02 -0.29708706622E+03  0.31530568265E+03  0.00000000000E+00 0.  1.
          5    1    4    4  501    0  0.40502939469E+03 -0.32476430071E+03  0.42223678942E+03  0.66919506896E+03  0.41800000000E+01 0. -1.
         -5    1    4    4    0  501 -0.50823213591E+01 -0.95324434443E+01  0.29955051525E+02  0.32116584194E+02  0.41800000000E+01 0. -1.
</event>
<event>
11    1  0.1078607E-008  0.1360192E+03  0.7561462E-02  0.1112087E+00
         22   -1    0    0    0    0  0.00000000000E+00  0.00000000000E+00  0.45349226609E+03  0.45349226609E+03  0.00000000000E+00 0. -1.
         22   -1    0    0    0    0 -0.00000000000E+00 -0.00000000000E+00 -0.31183255886E+03  0.31183255886E+03  0.00000000000E+00 0.  1.
         24    2    1    2    0    0  0.20391805587E+02  0.48411774478E+02 -0.18962680295E+03  0.21154304935E+03  0.77669889189E+02 0.  0.
         25    2    1    2    0    0 -0.37595523993E+02 -0.45480809973E+02 -0.62315374856E+02  0.15169954285E+03  0.12509043872E+03 0.  0.
        -24    2    1    2    0    0  0.17203718406E+02 -0.29309645047E+01  0.39360188504E+03  0.40208223274E+03  0.80269044480E+02 0.  0.
        -13    1    3    3    0    0  0.48888809551E+02  0.22940978281E+02 -0.12933905893E+03  0.14016060912E+03  0.00000000000E+00 0.  1.
         14    1    3    3    0    0 -0.28497003964E+02  0.25470796197E+02 -0.60287744021E+02  0.71382440228E+02  0.00000000000E+00 0. -1.
         11    1    5    5    0    0  0.12883910869E+02  0.31826064652E+02  0.30311498897E+03  0.30505342170E+03  0.00000000000E+00 0. -1.
        -12    1    5    5    0    0  0.43198075373E+01 -0.34757029157E+02  0.90486896070E+02  0.97028811047E+02  0.00000000000E+00 0.  1.
          5    1    4    4  501    0  0.31757408963E+02 -0.16637970460E+02  0.19110847976E+02  0.40841792265E+02  0.41800000000E+01 0.  1.
         -5    1    4    4    0  501 -0.69352932956E+02 -0.28842839513E+02 -0.81426222833E+02  0.11085775059E+03  0.41800000000E+01 0.  1.
</event>
<event>
11    1  0.1078607E-008  0.1411423E+03  0.7561462E-02  0.1106289E+00
         22   -1    0    0    0    0  0.00000000000E+00  0.00000000000E+00  0.29075013075E+04  0.29075013075E+04  0.00000000000E+00 0.  1.
         22   -1    0    0    0    0 -0.00000000000E+00 -0.00000000000E+00 -0.18871052321E+03  0.18871052321E+03  0.00000000000E+00 0. -1.
         24    2    1    2    0    0 -0.64601544341E+02  0.14947513832E+02 -0.16855433421E+03  0.19789748899E+03  0.79724932546E+02 0.  0.
         25    2    1    2    0    0  0.41710952766E+01 -0.80228324641E+01  0.93547134837E+03  0.94384062317E+03  0.12508682763E+03 0.  0.
        -24    2    1    2    0    0  0.60430449064E+02 -0.69246813677E+01  0.19518737701E+04  0.19544737185E+04  0.80352421059E+02 0.  0.
        -11    1    3    3    0    0  0.12137557724E+02 -0.11629461728E+02 -0.94961196182E+01  0.19306500858E+02  0.00000000000E+00 0.  1.
         12    1    3    3    0    0 -0.76739102064E+02  0.26576975560E+02 -0.15905821459E+03  0.17859098814E+03  0.00000000000E+00 0. -1.
         13    1    5    5    0    0 -0.51730399099E+01  0.11340731545E+02  0.55708022320E+02  0.57085517294E+02  0.00000000000E+00 0. -1.
        -14    1    5    5    0    0  0.65603488974E+02 -0.18265412913E+02  0.18961657478E+04  0.18973882012E+04  0.00000000000E+00 0.  1.
          5    1    4    4  501    0 -0.20813007757E+02  0.51919640208E+02  0.31391995108E+03  0.31889189143E+03  0.41800000000E+01 0.  1.
         -5    1    4    4    0  501  0.24984103034E+02 -0.59942472672E+02  0.62155139729E+03  0.62494873174E+03  0.41800000000E+01 0.  1.
</event>
<event>
11    1  0.1078607E-008  0.2318201E+03  0.7561462E-02  0.1034056E+00
         22   -1    0    0    0    0  0.00000000000E+00  0.00000000000E+00  0.12997779858E+03  0.12997779858E+03  0.00000000000E+00 0. -1.
         22   -1    0    0    0    0 -0.00000000000E+00 -0.00000000000E+00 -0.85060445842E+03  0.85060445842E+03  0.00000000000E+00 0. -1.
        -24    2    1    2    0    0  0.70336600692E+02 -0.37774230230E+02 -0.32397949507E+03  0.34341239897E+03  0.81211037885E+02 0.  0.
         25    2    1    2    0    0  0.13684193652E+03 -0.21911608009E+02 -0.35840482483E+03  0.40411341948E+03  0.12509117947E+03 0.  0.
         24    2    1    2    0    0 -0.20717853721E+03  0.59685838239E+02 -0.38242339944E+02  0.23305643855E+03  0.79796500028E+02 0.  0.
        -13    1    5    5    0    0  0.33992885885E+01  0.13767524458E+02 -0.10046038198E+00  0.14181325217E+02  0.00000000000E+00 0.  1.
         14    1    5    5    0    0 -0.21057782580E+03  0.45918313781E+02 -0.38141879562E+02  0.21887511333E+03  0.00000000000E+00 0. -1.
         11    1    3    3    0    0  0.56081904574E+02 -0.60328070311E+02 -0.19466926965E+03  0.21137828799E+03  0.00000000000E+00 0. -1.
        -12    1    3    3    0    0  0.14254696118E+02  0.22553840081E+02 -0.12931022542E+03  0.13203411098E+03  0.00000000000E+00 0.  1.
          5    1    4    4  501    0  0.10692416998E+03 -0.52618034254E+02 -0.15163391486E+03  0.19290347895E+03  0.41800000000E+01 0.  1.
         -5    1    4    4    0  501  0.29917766545E+02  0.30706426246E+02 -0.20677090997E+03  0.21120994053E+03  0.41800000000E+01 0.  1.
</event>
<event>
11    1  0.1078607E-008  0.1277677E+03  0.7561462E-02  0.1122043E+00
         22   -1    0    0    0    0  0.00000000000E+00  0.00000000000E+00  0.13652532024E+04  0.13652532024E+04  0.00000000000E+00 0.  1.
         22   -1    0    0    0    0 -0.00000000000E+00 -0.00000000000E+00 -0.10538007200E+03  0.10538007200E+03  0.00000000000E+00 0.  1.
        -24    2    1    2    0    0  0.11212899895E+02 -0.16917131006E+02 -0.67453342135E+02  0.10625684152E+03  0.79552778455E+02 0.  0.
         25    2    1    2    0    0 -0.16651442575E+01  0.40004856407E+02  0.23828299477E+03  0.27208350121E+03  0.12508990683E+03 0.  0.
         24    2    1    2    0    0 -0.95477556374E+01 -0.23087725400E+02  0.10890434778E+04  0.10922929317E+04  0.80398690492E+02 0.  0.
        -11    1    5    5    0    0 -0.21827476068E+02  0.21927795314E+02  0.65891526122E+03  0.65964125734E+03  0.00000000000E+00 0.  1.
         12    1    5    5    0    0  0.12279720431E+02 -0.45015520715E+02  0.43012821653E+03  0.43265167432E+03  0.00000000000E+00 0. -1.
         13    1    3    3    0    0 -0.56537870332E+01 -0.43226597023E+01  0.17417007440E+02  0.18814963271E+02  0.00000000000E+00 0. -1.
        -14    1    3    3    0    0  0.16866686928E+02 -0.12594471304E+02 -0.84870349575E+02  0.87441878252E+02  0.00000000000E+00 0.  1.
          5    1    4    4  501    0  0.43909880188E+02  0.23089439924E+02  0.29922586450E+02  0.58086430378E+02  0.41800000000E+01 0.  1.
         -5    1    4    4    0  501 -0.45575024446E+02  0.16915416483E+02  0.20836040832E+03  0.21399707083E+03  0.41800000000E+01 0.  1.
</event>
<event>
11    1  0.1078607E-008  0.1566938E+03  0.7561462E-02  0.1090229E+00
         22   -1    0    0    0    0  0.00000000000E+00  0.00000000000E+00  0.17519403868E+04  0.17519403868E+04  0.00000000000E+00 0.  1.
         22   -1    0    0    0    0 -0.00000000000E+00 -0.00000000000E+00 -0.93987801560E+02  0.93987801560E+02  0.00000000000E+00 0. -1.
         24    2    1    2    0    0  0.37441253326E+01  0.71493849176E+01 -0.25388640336E+02  0.86124088850E+02  0.81900204169E+02 0.  0.
         25    2    1    2    0    0 -0.95662759555E+02 -0.26823567395E+02  0.14412931532E+03  0.21515504308E+03  0.12509023022E+03 0.  0.
        -24    2    1    2    0    0  0.91918634222E+02  0.19674182477E+02  0.15392119102E+04  0.15446490564E+04  0.89057813108E+02 0.  0.
        -11    1    3    3    0    0 -0.19726424103E+02  0.86648972765E+01  0.23494041738E+02  0.31877613617E+02  0.00000000000E+00 0.  1.
         12    1    3    3    0    0  0.23470549436E+02 -0.15155123589E+01 -0.48882682074E+02  0.54246475233E+02  0.00000000000E+00 0. -1.
         13    1    5    5    0    0  0.22930938783E+02  0.33751172957E+02  0.23337293511E+03  0.23691326782E+03  0.00000000000E+00 0. -1.
        -14    1    5    5    0    0  0.68987695439E+02 -0.14076990480E+02  0.13058389751E+04  0.13077357886E+04  0.00000000000E+00 0.  1.
          5    1    4    4  501    0 -0.90908094101E+02 -0.68666269957E+02  0.12350398918E+03  0.16807749982E+03  0.41800000000E+01 0. -1.
         -5    1    4    4    0  501 -0.47546654534E+01  0.41842702562E+02  0.20625326142E+02  0.47077543263E+02  0.41800000000E+01 0. -1.
</event>
<event>
11    1  0.1078607E-008  0.1411550E+03  0.7561462E-02  0.1106275E+00
         22   -1    0    0    0    0  0.00000000000E+00  0.00000000000E+00  0.12022116367E+03  0.12022116367E+03  0.00000000000E+00 0. -1.
         22   -1    0    0    0    0 -0.00000000000E+00 -0.00000000000E+00 -0.22166642182E+04  0.22166642182E+04  0.00000000000E+00 0. -1.
        -24    2    1    2    0    0 -0.18258336273E+02 -0.16405372554E+02 -0.20231597076E+04  0.20246334818E+04  0.73232712817E+02 0.  0.
         25    2    1    2    0    0  0.64501702206E+02 -0.29357264257E+02 -0.13069546817E+03  0.19429734067E+03  0.12509129722E+03 0.  0.
         24    2    1    2    0    0 -0.46243365933E+02  0.45762636811E+02  0.57412121236E+02  0.11795455936E+03  0.79902807133E+02 0.  0.
        -11    1    5    5    0    0 -0.12317982296E+02 -0.19559872475E+02 -0.22225715482E+01  0.23221996542E+02  0.00000000000E+00 0.  1.
         12    1    5    5    0    0 -0.33925383637E+02  0.65322509286E+02  0.59634692784E+02  0.94732562816E+02  0.00000000000E+00 0. -1.
         11    1    3    3    0    0 -0.36736020553E+02  0.10276226592E+02 -0.14891073976E+04  0.14895959108E+04  0.00000000000E+00 0. -1.
        -12    1    3    3    0    0  0.18477684281E+02 -0.26681599145E+02 -0.53405231000E+03  0.53503757098E+03  0.00000000000E+00 0.  1.
          5    1    4    4  501    0  0.57231439753E+02 -0.11979529762E+02  0.34965573902E+01  0.58725166182E+02  0.41800000000E+01 0.  1.
         -5    1    4    4    0  501  0.72702624530E+01 -0.17377734495E+02 -0.13419202556E+03  0.13557217449E+03  0.41800000000E+01 0.  1.
</event>
<event>
11    1  0.1078607E-008  0.1434274E+03  0.7561462E-02  0.1103790E+00
         22   -1    0    0    0    0  0.00000000000E+00  0.00000000000E+00  0.94942619134E+02  0.94942619134E+02  0.00000000000E+00 0. -1.
         22   -1    0    0    0    0 -0.00000000000E+00 -0.00000000000E+00 -0.21783810375E+04  0.21783810375E+04  0.00000000000E+00 0. -1.
        -24    2    1    2    0    0  0.60004613163E+02  0.37371270005E+02 -0.17887728672E+04  0.17920330905E+04  0.81713289762E+02 0.  0.
         25    2    1    2    0    0 -0.89787378412E+02  0.27608705543E+02 -0.33219024921E+03  0.36717956812E+03  0.12508580909E+03 0.  0.
         24    2    1    2    0    0  0.29782765249E+02 -0.64979975548E+02  0.37524698062E+02  0.11411099795E+03  0.80646181314E+02 0.  0.
        -13    1    5    5    0    0 -0.48939933604E+01 -0.27119712222E+01 -0.21097580430E+02  0.21826906765E+02  0.00000000000E+00 0.  1.
         14    1    5    5    0    0  0.34676758609E+02 -0.62268004326E+02  0.58622278492E+02  0.92284091186E+02  0.00000000000E+00 0. -1.
         13    1    3    3    0    0  0.19345056602E+02  0.58878304871E+02 -0.10595980017E+04  0.10614088803E+04  0.00000000000E+00 0. -1.
        -14    1    3    3    0    0  0.40659556561E+02 -0.21507034866E+02 -0.72917486554E+03  0.73062421026E+03  0.00000000000E+00 0.  1.
          5    1    4    4  501    0 -0.80533651431E+02  0.38157508781E+02 -0.33934991957E+03  0.35088104081E+03  0.41800000000E+01 0. -1.
         -5    1    4    4    0  501 -0.92537269817E+01 -0.10548803238E+02  0.71596703648E+01  0.16298527312E+02  0.41800000000E+01 0. -1.
</event>
<event>
11    1  0.1078607E-008  0.1470230E+03  0.7561462E-02  0.1099960E+00
         22   -1    0    0    0    0  0.00000000000E+00  0.00000000000E+00  0.18957787867E+04  0.18957787867E+04  0.00000000000E+00 0.  1.
         22   -1    0    0    0    0 -0.00000000000E+00 -0.00000000000E+00 -0.17318984966E+03  0.17318984966E+03  0.00000000000E+00 0.  1.
         24    2    1    2    0    0  0.29763640107E+00  0.93335682581E+01 -0.15134969383E+03  0.17096057590E+03  0.78953053188E+02 0.  0.
         25    2    1    2    0    0  0.76906064263E+02 -0.32170886360E+01  0.56264034955E+03  0.58149599459E+03  0.12509411020E+03 0.  0.
        -24    2    1    2    0    0 -0.77203700664E+02 -0.61164796221E+01  0.13112982813E+04  0.13165120659E+04  0.87766817429E+02 0.  0.
        -13    1    3    3    0    0  0.15722259628E+02  0.12492648360E+02 -0.15373073525E+03  0.15503675265E+03  0.00000000000E+00 0.  1.
         14    1    3    3    0    0 -0.15424623227E+02 -0.31590801022E+01  0.23810414240E+01  0.15923823255E+02  0.00000000000E+00 0. -1.
         11    1    5    5    0    0 -0.18972094534E+02 -0.21589340225E+02  0.10964923238E+03  0.11335340376E+03  0.00000000000E+00 0. -1.
        -12    1    5    5    0    0 -0.58231606130E+02  0.15472860603E+02  0.12016490489E+04  0.12031586621E+04  0.00000000000E+00 0.  1.
          5    1    4    4  501    0  0.15411668952E+02 -0.60165871427E+02  0.26830442986E+03  0.27543091893E+03  0.41800000000E+01 0. -1.
         -5    1    4    4    0  501  0.61494395311E+02  0.56948782791E+02  0.29433591969E+03  0.30606507566E+03  0.41800000000E+01 0. -1.
</event>
<event>
11    1  0.1078607E-008  0.1464939E+03  0.7561462E-02  0.1100516E+00
         22   -1    0    0    0    0  0.00000000000E+00  0.00000000000E+00  0.12237950226E+03  0.12237950226E+03  0.00000000000E+00 0.  1.
         22   -1    0    0    0    0 -0.00000000000E+00 -0.00000000000E+00 -0.12647081669E+04  0.12647081669E+04  0.00000000000E+00 0. -1.
        -24    2    1    2    0    0 -0.51688047673E+02  0.56484611615E+02 -0.96848251487E+03  0.97464293906E+03  0.78155687118E+02 0.  0.
         25    2    1    2    0    0  0.61159932047E+02 -0.44015855689E+02 -0.25694184617E+03  0.29554996344E+03  0.12511089374E+03 0.  0.
         24    2    1    2    0    0 -0.94718843740E+01 -0.12468755926E+02  0.83095696453E+02  0.11689476662E+03  0.80711245976E+02 0.  0.
        -11    1    5    5    0    0 -0.24054941215E+02  0.23144223613E+01  0.91392176354E+02  0.94533203936E+02  0.00000000000E+00 0.  1.
         12    1    5    5    0    0  0.14583056841E+02 -0.14783178287E+02 -0.82964799002E+01  0.22361562688E+02  0.00000000000E+00 0. -1.
         11    1    3    3    0    0 -0.67435027179E+02  0.24389354273E+02 -0.72705865530E+03  0.73058648478E+03  0.00000000000E+00 0. -1.
        -12    1    3    3    0    0  0.15746979506E+02  0.32095257342E+02 -0.24142385957E+03  0.24405645428E+03  0.00000000000E+00 0.  1.
          5    1    4    4  501    0 -0.34491350512E+02 -0.28020068444E+02 -0.50324111679E+02  0.67266381738E+02  0.41800000000E+01 0.  1.
         -5    1    4    4    0  501  0.95651282559E+02 -0.15995787244E+02 -0.20661773450E+03  0.22828358170E+03  0.41800000000E+01 0.  1.
</event>
<event>
11    1  0.1078607E-008  0.1278699E+03  0.7561462E-02  0.1121914E+00
         22   -1    0    0    0    0  0.00000000000E+00  0.00000000000E+00  0.20307573930E+03  0.20307573930E+03  0.00000000000E+00 0. -1.
         22   -1    0    0    0    0 -0.00000000000E+00 -0.00000000000E+00 -0.11621934045E+04  0.11621934045E+04  0.00000000000E+00 0.  1.
         24    2    1    2    0    0  0.13338666835E+02 -0.24490799925E+02 -0.10226014101E+04  0.10262014955E+04  0.81228973660E+02 0.  0.
         25    2    1    2    0    0 -0.12477857109E+02 -0.31294271753E+01 -0.96324259534E+02  0.15839813541E+03  0.12508443586E+03 0.  0.
        -24    2    1    2    0    0 -0.86080972551E+00  0.27620227100E+02  0.15980800441E+03  0.18066951289E+03  0.79619449123E+02 0.  0.
        -11    1    3    3    0    0  0.37342722252E+02 -0.46153199043E+01 -0.84842768413E+03  0.84926162946E+03  0.00000000000E+00 0.  1.
         12    1    3    3    0    0 -0.24004055417E+02 -0.19875480020E+02 -0.17417372596E+03  0.17693986605E+03  0.00000000000E+00 0. -1.
         11    1    5    5    0    0  0.16410648611E+02  0.51230958298E+02  0.11754194662E+03  0.12926728005E+03  0.00000000000E+00 0. -1.
        -12    1    5    5    0    0 -0.17271458336E+02 -0.23610731198E+02  0.42266057786E+02  0.51402232846E+02  0.00000000000E+00 0.  1.
          5    1    4    4  501    0  0.70980374918E+01 -0.57819708368E+02 -0.77804987362E+02  0.97286120646E+02  0.41800000000E+01 0.  1.
         -5    1    4    4    0  501 -0.19575894601E+02  0.54690281193E+02 -0.18519272173E+02  0.61112014761E+02  0.41800000000E+01 0.  1.
</event>
<event>
11    1  0.1078607E-008  0.2116544E+03  0.7561462E-02  0.1046575E+00
         22   -1    0    0    0    0  0.00000000000E+00  0.00000000000E+00  0.94697303177E+02  0.94697303177E+02  0.00000000000E+00 0. -1.
         22   -1    0    0    0    0 -0.00000000000E+00 -0.00000000000E+00 -0.20412116853E+04  0.20412116853E+04  0.00000000000E+00 0. -1.
        -24    2    1    2    0    0  0.42561677764E+02 -0.30318978948E+02 -0.15431464546E+04  0.15461600389E+04  0.81111951791E+02 0.  0.
         25    2    1    2    0    0  0.11187833049E+03  0.11661746373E+03 -0.31560226792E+03  0.37599271263E+03  0.12509730114E+03 0.  0.
         24    2    1    2    0    0 -0.15444000826E+03 -0.86298484782E+02 -0.87765659670E+02  0.21375623699E+03  0.81791033793E+02 0.  0.
        -13    1    5    5    0    0 -0.10310123160E+03 -0.98002642044E+02 -0.63459114568E+02  0.15576084561E+03  0.00000000000E+00 0.  1.
         14    1    5    5    0    0 -0.51338776661E+02  0.11704157262E+02 -0.24306545103E+02  0.57995391378E+02  0.00000000000E+00 0. -1.
         11    1    3    3    0    0  0.16600315354E+02 -0.41185075672E+02 -0.13717350423E+04  0.13724535720E+04  0.00000000000E+00 0. -1.
        -12    1    3    3    0    0  0.25961362410E+02  0.10866096724E+02 -0.17141141223E+03  0.17370646689E+03  0.00000000000E+00 0.  1.
          5    1    4    4  501    0 -0.25396716645E+02  0.38218105190E+02 -0.77343384689E+02  0.90028264094E+02  0.41800000000E+01 0.  1.
         -5    1    4    4    0  501  0.13727504714E+03  0.78399358539E+02 -0.23825888323E+03  0.28596444853E+03  0.41800000000E+01 0.  1.
</event>
<event>
11    1  0.1078607E-008  0.1675114E+03  0.7561462E-02  0.1080218E+00
         22   -1    0    0    0    0  0.00000000000E+00  0.00000000000E+00  0.15650497677E+04  0.15650497677E+04  0.00000000000E+00 0. -1.
         22   -1    0    0    0    0 -0.00000000000E+00 -0.00000000000E+00 -0.11012202269E+03  0.11012202269E+03  0.00000000000E+00 0. -1.
         24    2    1    2    0    0  0.82261503760E+02 -0.83469155508E+02 -0.37403230893E+02  0.14895287649E+03  0.83987515814E+02 0.  0.
         25    2    1    2    0    0 -0.29800028284E+02  0.72901967682E+02  0.35220993110E+03  0.38197100847E+03  0.12508907695E+03 0.  0.
        -24    2    1    2    0    0 -0.52461475476E+02  0.10567187826E+02  0.11401210448E+04  0.11442479055E+04  0.81014815884E+02 0.  0.
        -11    1    3    3    0    0  0.17881004275E+02 -0.19322558448E+02  0.26886852136E+02  0.37629700991E+02  0.00000000000E+00 0.  1.
         12    1    3    3    0    0  0.64380499484E+02 -0.64146597060E+02 -0.64290083029E+02  0.11132317550E+03  0.00000000000E+00 0. -1.
         13    1    5    5    0    0 -0.70694830366E+02  0.24944405050E+01  0.10228872801E+04  0.10253303707E+04  0.00000000000E+00 0. -1.
        -14    1    5    5    0    0  0.18233354890E+02  0.80727473207E+01  0.11723376473E+03  0.11891753476E+03  0.00000000000E+00 0.  1.
          5    1    4    4  501    0  0.23047844372E+02 -0.13297338859E+02  0.18175446415E+03  0.18373943504E+03  0.41800000000E+01 0. -1.
         -5    1    4    4    0  501 -0.52847872655E+02  0.86199306541E+02  0.17045546695E+03  0.19823157343E+03  0.41800000000E+01 0. -1.
</event>
<event>
11    1  0.1078607E-008  0.1479027E+03  0.7561462E-02  0.1099041E+00
         22   -1    0    0    0    0  0.00000000000E+00  0.00000000000E+00  0.41688305136E+02  0.41688305136E+02  0.00000000000E+00 0. -1.
         22   -1    0    0    0    0 -0.00000000000E+00 -0.00000000000E+00 -0.21588378856E+04  0.21588378856E+04  0.00000000000E+00 0.  1.
         24    2    1    2    0    0  0.32954460300E+00 -0.12838426963E+01 -0.16873357318E+04  0.16891628640E+04  0.78533766352E+02 0.  0.
         25    2    1    2    0    0  0.76667634202E+02 -0.16820405481E+02 -0.31753180272E+03  0.35019177161E+03  0.12508788506E+03 0.  0.
        -24    2    1    2    0    0 -0.76997178805E+02  0.18104248177E+02 -0.11228204600E+03  0.16117155519E+03  0.84336723915E+02 0.  0.
        -13    1    3    3    0    0  0.35404220727E+02 -0.14499324841E+01 -0.12192708599E+04  0.12197856332E+04  0.00000000000E+00 0.  1.
         14    1    3    3    0    0 -0.35074676124E+02  0.16608978777E+00 -0.46806487185E+03  0.46937723076E+03  0.00000000000E+00 0. -1.
         13    1    5    5    0    0 -0.67542772104E+02 -0.13279596056E+02 -0.34993203758E+02  0.77219803445E+02  0.00000000000E+00 0. -1.
        -14    1    5    5    0    0 -0.94544067010E+01  0.31383844233E+02 -0.77288842246E+02  0.83951751743E+02  0.00000000000E+00 0.  1.
          5    1    4    4  501    0  0.53709794391E+00 -0.43780975240E+02 -0.34695123512E+02  0.56020409341E+02  0.41800000000E+01 0. -1.
         -5    1    4    4    0  501  0.76130536258E+02  0.26960569759E+02 -0.28283667921E+03  0.29417136226E+03  0.41800000000E+01 0. -1.
</event>
<event>
11    1  0.1078607E-008  0.1316932E+03  0.7561462E-02  0.1117206E+00
         22   -1    0    0    0    0  0.00000000000E+00  0.00000000000E+00  0.63449550099E+03  0.63449550099E+03  0.00000000000E+00 0.  1.
         22   -1    0    0    0    0 -0.00000000000E+00 -0.00000000000E+00 -0.12830247587E+03  0.12830247587E+03  0.00000000000E+00 0.  1.
         24    2    1    2    0    0 -0.33486838506E+02  0.22912392087E+02 -0.88889951323E+02  0.12572803897E+03  0.79118710001E+02 0.  0.
         25    2    1    2    0    0  0.48243055577E+02 -0.19146177249E+02  0.27773794576E+03  0.30899851164E+03  0.12509094757E+03 0.  0.
        -24    2    1    2    0    0 -0.14756217071E+02 -0.37662148379E+01  0.31734503069E+03  0.32807142626E+03  0.81798911402E+02 0.  0.
        -11    1    3    3    0    0 -0.38933145693E+02  0.13106392839E+01 -0.94958681241E+02  0.10263848573E+03  0.00000000000E+00 0.  1.
         12    1    3    3    0    0  0.54463071873E+01  0.21601752803E+02  0.60687299182E+01  0.23089553243E+02  0.00000000000E+00 0. -1.
         13    1    5    5    0    0 -0.22160874662E+02 -0.39448849040E+02  0.20613655396E+03  0.21104405923E+03  0.00000000000E+00 0. -1.
        -14    1    5    5    0    0  0.74046575908E+01  0.35682634202E+02  0.11120847673E+03  0.11702736703E+03  0.00000000000E+00 0.  1.
          5    1    4    4  501    0  0.29867704788E+01 -0.46731807826E+02  0.30341951847E+02  0.55954348378E+02  0.41800000000E+01 0.  1.
         -5    1    4    4    0  501  0.45256285098E+02  0.27585630577E+02  0.24739599391E+03  0.25304416326E+03  0.41800000000E+01 0.  1.
</event>
<event>
11    1  0.1078607E-008  0.1353260E+03  0.7561462E-02  0.1112893E+00
         22   -1    0    0    0    0  0.00000000000E+00  0.00000000000E+00  0.56944855698E+03  0.56944855698E+03  0.00000000000E+00 0.  1.
         22   -1    0    0    0    0 -0.00000000000E+00 -0.00000000000E+00 -0.23925591536E+03  0.23925591536E+03  0.00000000000E+00 0. -1.
         24    2    1    2    0    0 -0.18718457366E+02  0.97238831923E+01 -0.15756431150E+03  0.17772720761E+03  0.79470205210E+02 0.  0.
         25    2    1    2    0    0 -0.14990837867E+02 -0.49152609479E+02  0.10048826341E+00  0.13523836052E+03  0.12509476336E+03 0.  0.
        -24    2    1    2    0    0  0.33709295232E+02  0.39428726287E+02  0.48765646486E+03  0.49573890420E+03  0.72507188460E+02 0.  0.
        -11    1    3    3    0    0 -0.47683618386E+02 -0.74972695978E+01 -0.85823339526E+02  0.98466147082E+02  0.00000000000E+00 0.  1.
         12    1    3    3    0    0  0.28965161020E+02  0.17221152790E+02 -0.71740971976E+02  0.79261060531E+02  0.00000000000E+00 0. -1.
         13    1    5    5    0    0  0.40502426010E+02 -0.42760037509E+01  0.15961276861E+03  0.16472694565E+03  0.00000000000E+00 0. -1.
        -14    1    5    5    0    0 -0.67931307778E+01  0.43704730038E+02  0.32804369625E+03  0.33101195855E+03  0.00000000000E+00 0.  1.
          5    1    4    4  501    0  0.27752267910E+02 -0.65878959934E+02  0.32764796916E+02  0.78747889198E+02  0.41800000000E+01 0. -1.
         -5    1    4    4    0  501 -0.42743105777E+02  0.16726350454E+02 -0.32664308653E+02  0.56490471327E+02  0.41800000000E+01 0. -1.
</event>
<event>
11    1  0.1078607E-008  0.1479313E+03  0.7561462E-02  0.1099012E+00
         22   -1    0    0    0    0  0.00000000000E+00  0.00000000000E+00  0.13348282790E+04  0.13348282790E+04  0.00000000000E+00 0.  1.
         22   -1    0    0    0    0 -0.00000000000E+00 -0.00000000000E+00 -0.57536362167E+03  0.57536362167E+03  0.00000000000E+00 0.  1.
        -24    2    1    2    0    0 -0.23081985456E+02  0.84107158569E+01 -0.50010993851E+03  0.50669284977E+03  0.77615560450E+02 0.  0.
         25    2    1    2    0    0 -0.16211508616E+02 -0.77085279281E+02  0.93803532051E+01  0.14811950178E+03  0.12508574054E+03 0.  0.
         24    2    1    2    0    0  0.39293494072E+02  0.68674563424E+02  0.12501942427E+04  0.12553795492E+04  0.82048727588E+02 0.  0.
        -13    1    5    5    0    0 -0.23561557196E+02  0.30573801312E+02  0.54500915646E+03  0.54637430845E+03  0.00000000000E+00 0.  1.
         14    1    5    5    0    0  0.62855051268E+02  0.38100762112E+02  0.70518508621E+03  0.70900524071E+03  0.00000000000E+00 0. -1.
         13    1    3    3    0    0 -0.80295335334E+01 -0.28272813110E+02 -0.90156303475E+02  0.94826074611E+02  0.00000000000E+00 0. -1.
        -14    1    3    3    0    0 -0.15052451923E+02  0.36683528967E+02 -0.40995363503E+03  0.41186677516E+03  0.00000000000E+00 0.  1.
          5    1    4    4  501    0 -0.47115136551E+01  0.13729487413E+01 -0.49087918278E+02  0.49509387696E+02  0.41800000000E+01 0.  1.
         -5    1    4    4    0  501 -0.11499994961E+02 -0.78458228022E+02  0.58468271483E+02  0.98610114079E+02  0.41800000000E+01 0.  1.
</event>
<event>
11    1  0.1078607E-008  0.1580502E+03  0.7561462E-02  0.1088926E+00
         22   -1    0    0    0    0  0.00000000000E+00  0.00000000000E+00  0.47057065763E+03  0.47057065763E+03  0.00000000000E+00 0. -1.
         22   -1    0    0    0    0 -0.00000000000E+00 -0.00000000000E+00 -0.81760067676E+03  0.81760067676E+03  0.00000000000E+00 0. -1.
         24    2    1    2    0    0  0.42250571503E+02  0.22551276828E+02 -0.70732732779E+03  0.71366112127E+03  0.81893690243E+02 0.  0.
         25    2    1    2    0    0 -0.81415075071E+01 -0.11223307724E+03 -0.24409243798E+02  0.17001473017E+03  0.12508656810E+03 0.  0.
        -24    2    1    2    0    0 -0.34109063995E+02  0.89681800414E+02  0.38470655245E+03  0.40449548296E+03  0.80070035986E+02 0.  0.
        -11    1    3    3    0    0 -0.33403342830E+01  0.26958051278E+02 -0.76619790904E+02  0.81292599417E+02  0.00000000000E+00 0.  1.
         12    1    3    3    0    0  0.45590905786E+02 -0.44067744498E+01 -0.63070753688E+03  0.63236852185E+03  0.00000000000E+00 0. -1.
         11    1    5    5    0    0 -0.43781912058E+02  0.97925438404E+02  0.29507452149E+03  0.31396690994E+03  0.00000000000E+00 0. -1.
        -12    1    5    5    0    0  0.96728480624E+01 -0.82436379902E+01  0.89632030964E+02  0.90528573012E+02  0.00000000000E+00 0.  1.
          5    1    4    4  501    0 -0.62689499399E+02 -0.30349240091E+02 -0.10339817091E+02  0.70536755854E+02  0.41800000000E+01 0.  1.
         -5    1    4    4    0  501  0.54547991891E+02 -0.81883837151E+02 -0.14069426707E+02  0.99477974315E+02  0.41800000000E+01 0.  1.
</event>
<event>
11    1  0.1078607E-008  0.1582047E+03  0.7561462E-02  0.1088778E+00
         22   -1    0    0    0    0  0.00000000000E+00  0.00000000000E+00  0.16733373614E+03  0.16733373614E+03  0.00000000000E+00 0. -1.
         22   -1    0    0    0    0 -0.00000000000E+00 -0.00000000000E+00 -0.33125865305E+04  0.33125865305E+04  0.00000000000E+00 0.  1.
        -24    2    1    2    0    0  0.17497132510E+02  0.94365901272E+02 -0.31134725213E+04  0.31160128731E+04  0.81326572662E+02 0.  0.
         25    2    1    2    0    0  0.10398542083E+02 -0.13341417388E+03 -0.13448225261E+03  0.22724111280E+03  0.12508227536E+03 0.  0.
         24    2    1    2    0    0 -0.27895674594E+02  0.39048272612E+02  0.10270197955E+03  0.13666628076E+03  0.76335047242E+02 0.  0.
        -13    1    5    5    0    0 -0.13005187086E+02 -0.20425794946E+02  0.51038683213E+02  0.56491549585E+02  0.00000000000E+00 0.  1.
         14    1    5    5    0    0 -0.14890487507E+02  0.59474067558E+02  0.51663296336E+02  0.80174731171E+02  0.00000000000E+00 0. -1.
         11    1    3    3    0    0  0.28707673311E+02  0.73328770122E+01 -0.13825046476E+04  0.13828221151E+04  0.00000000000E+00 0. -1.
        -12    1    3    3    0    0 -0.11210540801E+02  0.87033024260E+02 -0.17309678737E+04  0.17331907579E+04  0.00000000000E+00 0.  1.
          5    1    4    4  501    0 -0.32140205676E+02 -0.13451757490E+03 -0.11640398579E+03  0.18081850316E+03  0.41800000000E+01 0.  1.
         -5    1    4    4    0  501  0.42538747759E+02  0.11034010143E+01 -0.18078266823E+02  0.46422609643E+02  0.41800000000E+01 0.  1.
</event>
<event>
11    1  0.1078607E-008  0.2132145E+03  0.7561462E-02  0.1045553E+00
         22   -1    0    0    0    0  0.00000000000E+00  0.00000000000E+00  0.70540442166E+03  0.70540442166E+03  0.00000000000E+00 0.  1.
         22   -1    0    0    0    0 -0.00000000000E+00 -0.00000000000E+00 -0.70805146304E+03  0.70805146304E+03  0.00000000000E+00 0.  1.
         24    2    1    2    0    0  0.17159354799E+02  0.18046135383E+02 -0.54986854670E+03  0.55629299240E+03  0.80537992805E+02 0.  0.
         25    2    1    2    0    0  0.15712823160E+03 -0.16114662976E+02 -0.67996902408E+02  0.21264869830E+03  0.12508767575E+03 0.  0.
        -24    2    1    2    0    0 -0.17428758640E+03 -0.19314724076E+01  0.61521840773E+03  0.64451419400E+03  0.80777247400E+02 0.  0.
        -11    1    3    3    0    0  0.11267749586E+02  0.18837168270E+02 -0.54991047479E+03  0.55034837274E+03  0.00000000000E+00 0.  1.
         12    1    3    3    0    0  0.58916052129E+01 -0.79103288656E+00  0.41928088807E-01  0.59446196663E+01  0.00000000000E+00 0. -1.
         13    1    5    5    0    0 -0.18962724802E+02  0.21751346693E+02  0.16890119557E+03  0.17134853335E+03  0.00000000000E+00 0. -1.
        -14    1    5    5    0    0 -0.15532486159E+03 -0.23682819101E+02  0.44631721215E+03  0.47316566064E+03  0.00000000000E+00 0.  1.
          5    1    4    4  501    0  0.87328439898E+02  0.44793235656E+02 -0.98911083158E+00  0.98240221477E+02  0.41800000000E+01 0.  1.
         -5    1    4    4    0  501  0.69799791699E+02 -0.60907898632E+02 -0.67007791577E+02  0.11440847682E+03  0.41800000000E+01 0.  1.
</event>
<event>
11    1  0.1078607E-008  0.1633821E+03  0.7561462E-02  0.1083939E+00
         22   -1    0    0    0    0  0.00000000000E+00  0.00000000000E+00  0.22603932234E+04  0.22603932234E+04  0.00000000000E+00 0. -1.
         22   -1    0    0    0    0 -0.00000000000E+00 -0.00000000000E+00 -0.24805199453E+04  0.24805199453E+04  0.00000000000E+00 0.  1.
         24    2    1    2    0    0  0.67179608903E+02  0.17986792186E+02 -0.24440188823E+04  0.24464679014E+04  0.84500124644E+02 0.  0.
         25    2    1    2    0    0 -0.17011008306E+02 -0.11131805861E+03  0.18015043342E+03  0.24654412414E+03  0.12509493160E+03 0.  0.
        -24    2    1    2    0    0 -0.50168600596E+02  0.93331266421E+02  0.20437417270E+04  0.20479011431E+04  0.76100140708E+02 0.  0.
        -13    1    3    3    0    0  0.77615976611E+02 -0.85556619215E+01 -0.15146298918E+04  0.15166414040E+04  0.00000000000E+00 0.  1.
         14    1    3    3    0    0 -0.10436367708E+02  0.26542454107E+02 -0.92938899048E+03  0.92982649740E+03  0.00000000000E+00 0. -1.
         13    1    5    5    0    0 -0.17755757164E+02  0.90832792916E+02  0.17314668898E+04  0.17339387110E+04  0.00000000000E+00 0. -1.
        -14    1    5    5    0    0 -0.32412843432E+02  0.24984735053E+01  0.31227483728E+03  0.31396243212E+03  0.00000000000E+00 0.  1.
          5    1    4    4  501    0 -0.58564366293E+01 -0.19479665185E+02 -0.18217268843E+02  0.27624201162E+02  0.41800000000E+01 0. -1.
         -5    1    4    4    0  501 -0.11154571677E+02 -0.91838393422E+02  0.19836770226E+03  0.21891992298E+03  0.41800000000E+01 0. -1.
</event>
<event>
11    1  0.1078607E-008  0.1621799E+03  0.7561462E-02  0.1085045E+00
         22   -1    0    0    0    0  0.00000000000E+00  0.00000000000E+00  0.20888605257E+03  0.20888605257E+03  0.00000000000E+00 0. -1.
         22   -1    0    0    0    0 -0.00000000000E+00 -0.00000000000E+00 -0.10356180666E+04  0.10356180666E+04  0.00000000000E+00 0.  1.
         24    2    1    2    0    0 -0.78977582586E+02  0.56915582455E+02 -0.75439016159E+03  0.76482766169E+03  0.79874865335E+02 0.  0.
         25    2    1    2    0    0  0.11018669881E+03 -0.88663896122E+02 -0.22978239594E+03  0.29740546411E+03  0.12509062925E+03 0.  0.
        -24    2    1    2    0    0 -0.31209116225E+02  0.31748313667E+02  0.15744054354E+03  0.18227099333E+03  0.80331973110E+02 0.  0.
        -13    1    3    3    0    0 -0.86012307369E+02  0.52011765220E+02 -0.74629973385E+03  0.75303826827E+03  0.00000000000E+00 0.  1.
         14    1    3    3    0    0  0.70347247828E+01  0.49038172355E+01 -0.80904277442E+01  0.11789393425E+02  0.00000000000E+00 0. -1.
         11    1    5    5    0    0 -0.41914179768E+02  0.39372931689E+01  0.14316795137E+03  0.14922922985E+03  0.00000000000E+00 0. -1.
        -12    1    5    5    0    0  0.10705063543E+02  0.27811020498E+02  0.14272592172E+02  0.33041763481E+02  0.00000000000E+00 0.  1.
          5    1    4    4  501    0  0.69293894147E+02 -0.54649031596E+02 -0.22744275392E+03  0.24399967035E+03  0.41800000000E+01 0. -1.
         -5    1    4    4    0  501  0.40892804664E+02 -0.34014864525E+02 -0.23396420194E+01  0.53405793756E+02  0.41800000000E+01 0. -1.
</event>
<event>
11    1  0.1078607E-008  0.1858219E+03  0.7561462E-02  0.1065029E+00
         22   -1    0    0    0    0  0.00000000000E+00  0.00000000000E+00  0.72167056526E+03  0.72167056526E+03  0.00000000000E+00 0. -1.
         22   -1    0    0    0    0 -0.00000000000E+00 -0.00000000000E+00 -0.15706598491E+04  0.15706598491E+04  0.00000000000E+00 0. -1.
        -24    2    1    2    0    0  0.87979629145E+01 -0.13947410571E+03 -0.14722822876E+04  0.14810749184E+04  0.80233093920E+02 0.  0.
         25    2    1    2    0    0  0.19703218089E+01  0.10016103845E+03 -0.20284251852E+02  0.16153919966E+03  0.12508935351E+03 0.  0.
         24    2    1    2    0    0 -0.10768284723E+02  0.39313067262E+02  0.64357725558E+03  0.64971629628E+03  0.79234516089E+02 0.  0.
        -11    1    5    5    0    0 -0.15804408916E+02  0.56844500968E+02  0.30537155309E+03  0.31101907027E+03  0.00000000000E+00 0.  1.
         12    1    5    5    0    0  0.50361241926E+01 -0.17531433706E+02  0.33820570248E+03  0.33869722601E+03  0.00000000000E+00 0. -1.
         11    1    3    3    0    0  0.14261503972E+02 -0.63593502022E+02 -0.10481058773E+04  0.10501302081E+04  0.00000000000E+00 0. -1.
        -12    1    3    3    0    0 -0.54635410572E+01 -0.75880603686E+02 -0.42417641031E+03  0.43094471033E+03  0.00000000000E+00 0.  1.
          5    1    4    4  501    0 -0.22207784064E+02  0.42798485651E+02  0.48608718847E+02  0.68594285440E+02  0.41800000000E+01 0.  1.
         -5    1    4    4    0  501  0.24178105873E+02  0.57362552795E+02 -0.68892970699E+02  0.92944914215E+02  0.41800000000E+01 0.  1.
</event>
<event>
11    1  0.1078607E-008  0.1437852E+03  0.7561462E-02  0.1103404E+00
         22   -1    0    0    0    0  0.00000000000E+00  0.00000000000E+00  0.43522450397E+03  0.43522450397E+03  0.00000000000E+00 0. -1.
         22   -1    0    0    0    0 -0.00000000000E+00 -0.00000000000E+00 -0.56376143454E+03  0.56376143454E+03  0.00000000000E+00 0. -1.
        -24    2    1    2    0    0  0.58149178248E+02  0.48748564363E+02 -0.39257708333E+03  0.40816812799E+03  0.82016491585E+02 0.  0.
         25    2    1    2    0    0 -0.56998686378E+02 -0.10642195669E+02 -0.12842658423E+03  0.18842507752E+03  0.12509402753E+03 0.  0.
         24    2    1    2    0    0 -0.11504918707E+01 -0.38106368693E+02  0.39246673698E+03  0.40239273301E+03  0.80226884357E+02 0.  0.
        -13    1    5    5    0    0 -0.97493478893E+01 -0.29594038946E+02  0.45107558212E+02  0.54822885123E+02  0.00000000000E+00 0.  1.
         14    1    5    5    0    0  0.85988560186E+01 -0.85123297472E+01  0.34735917877E+03  0.34756984788E+03  0.00000000000E+00 0. -1.
         11    1    3    3    0    0 -0.30804302824E+01  0.43222665963E+02 -0.23616757914E+03  0.24011000258E+03  0.00000000000E+00 0. -1.
        -12    1    3    3    0    0  0.61229608531E+02  0.55258983998E+01 -0.15640950419E+03  0.16805812540E+03  0.00000000000E+00 0.  1.
          5    1    4    4  501    0 -0.46525986009E+02 -0.65697561516E+02 -0.87017461259E+02  0.11861849741E+03  0.41800000000E+01 0. -1.
         -5    1    4    4    0  501 -0.10472700369E+02  0.55055365847E+02 -0.41409122968E+02  0.69806580109E+02  0.41800000000E+01 0. -1.
</event>
<event>
11    1  0.1078607E-008  0.2450039E+03  0.7561462E-02  0.1026595E+00
         22   -1    0    0    0    0  0.00000000000E+00  0.00000000000E+00  0.35230075012E+04  0.35230075012E+04  0.00000000000E+00 0. -1.
         22   -1    0    0    0    0 -0.00000000000E+00 -0.00000000000E+00 -0.30944094081E+03  0.30944094081E+03  0.00000000000E+00 0.  1.
        -24    2    1    2    0    0 -0.10817863138E+03 -0.17297225665E+03 -0.19532367289E+03  0.29287401516E+03  0.77471502560E+02 0.  0.
         25    2    1    2    0    0  0.16053918325E+03  0.19787407312E+03  0.24759761960E+03  0.37666938781E+03  0.12509303861E+03 0.  0.
         24    2    1    2    0    0 -0.52360551861E+02 -0.24901816469E+02  0.31612926137E+04  0.31629050391E+04  0.82677499082E+02 0.  0.
        -13    1    5    5    0    0 -0.23569820416E+00  0.99677312072E+01  0.50208428447E+02  0.51188841618E+02  0.00000000000E+00 0.  1.
         14    1    5    5    0    0 -0.52124853657E+02 -0.34869547676E+02  0.31110841853E+04  0.31117161975E+04  0.00000000000E+00 0. -1.
         13    1    3    3    0    0 -0.77519269717E+02 -0.16883694860E+03 -0.15436392813E+03  0.24154373248E+03  0.00000000000E+00 0. -1.
        -14    1    3    3    0    0 -0.30659361667E+02 -0.41353080521E+01 -0.40959744752E+02  0.51330282687E+02  0.00000000000E+00 0.  1.
          5    1    4    4  501    0  0.17822375193E+03  0.15879856430E+03  0.19226692524E+03  0.30653667434E+03  0.41800000000E+01 0. -1.
         -5    1    4    4    0  501 -0.17684568688E+02  0.39075508823E+02  0.55330694367E+02  0.70132713469E+02  0.41800000000E+01 0. -1.
</event>
<event>
11    1  0.1078607E-008  0.1635490E+03  0.7561462E-02  0.1083786E+00
         22   -1    0    0    0    0  0.00000000000E+00  0.00000000000E+00  0.14503987146E+04  0.14503987146E+04  0.00000000000E+00 0.  1.
         22   -1    0    0    0    0 -0.00000000000E+00 -0.00000000000E+00 -0.54855477919E+03  0.54855477919E+03  0.00000000000E+00 0.  1.
        -24    2    1    2    0    0 -0.61212764156E+02  0.84778957452E+02 -0.51771339900E+03  0.53439112829E+03  0.81315683402E+02 0.  0.
         25    2    1    2    0    0  0.51969921795E+02 -0.15837951564E+03  0.54666337645E+03  0.58504155706E+03  0.12509129701E+03 0.  0.
         24    2    1    2    0    0  0.92428423605E+01  0.73600558187E+02  0.87289395799E+03  0.87952080848E+03  0.78169804546E+02 0.  0.
        -13    1    5    5    0    0 -0.60926884291E+01  0.46098634960E+02  0.78097183436E+03  0.78235491375E+03  0.00000000000E+00 0.  1.
         14    1    5    5    0    0  0.15335530790E+02  0.27501923227E+02  0.91922123631E+02  0.97165894729E+02  0.00000000000E+00 0. -1.
         11    1    3    3    0    0 -0.42862601512E+00  0.10965199253E+02 -0.24776616077E+03  0.24800905172E+03  0.00000000000E+00 0. -1.
        -12    1    3    3    0    0 -0.60784138141E+02  0.73813758199E+02 -0.26994723824E+03  0.28638207657E+03  0.00000000000E+00 0.  1.
          5    1    4    4  501    0  0.23927474576E+02 -0.18810651587E+01  0.11872132181E+02  0.27101335175E+02  0.41800000000E+01 0. -1.
         -5    1    4    4    0  501  0.28042447219E+02 -0.15649845048E+03  0.53479124427E+03  0.55794022188E+03  0.41800000000E+01 0. -1.
</event>
<event>
11    1  0.1078607E-008  0.1457664E+03  0.7561462E-02  0.1101285E+00
         22   -1    0    0    0    0  0.00000000000E+00  0.00000000000E+00  0.31613427670E+03  0.31613427670E+03  0.00000000000E+00 0. -1.
         22   -1    0    0    0    0 -0.00000000000E+00 -0.00000000000E+00 -0.16022599083E+04  0.16022599083E+04  0.00000000000E+00 0. -1.
        -24    2    1    2    0    0 -0.31127559033E+02 -0.74568823221E+02 -0.15209792376E+04  0.15252064158E+04  0.79670165385E+02 0.  0.
         25    2    1    2    0    0 -0.49323472574E+02  0.60260921564E+02  0.18800639192E+02  0.14854364670E+03  0.12509023673E+03 0.  0.
         24    2    1    2    0    0  0.80451031607E+02  0.14307901657E+02  0.21605296681E+03  0.24464412250E+03  0.80590183435E+02 0.  0.
        -13    1    5    5    0    0 -0.76074470821E+01 -0.51011097645E+01  0.85431945966E+02  0.85921545398E+02  0.00000000000E+00 0.  1.
         14    1    5    5    0    0  0.88058478689E+02  0.19409011421E+02  0.13062102085E+03  0.15872257710E+03  0.00000000000E+00 0. -1.
         13    1    3    3    0    0 -0.71281725367E+01 -0.74467785925E+02 -0.13922994102E+04  0.13943076811E+04  0.00000000000E+00 0. -1.
        -14    1    3    3    0    0 -0.23999386496E+02 -0.10103729586E+00 -0.12867982738E+03  0.13089873466E+03  0.00000000000E+00 0.  1.
          5    1    4    4  501    0 -0.24121036682E+02  0.68452761205E+02  0.63424129011E+02  0.96476408867E+02  0.41800000000E+01 0. -1.
         -5    1    4    4    0  501 -0.25202435892E+02 -0.81918396408E+01 -0.44623489818E+02  0.52067237829E+02  0.41800000000E+01 0. -1.
</event>
<event>
11    1  0.1078607E-008  0.1557688E+03  0.7561462E-02  0.1091126E+00
         22   -1    0    0    0    0  0.00000000000E+00  0.00000000000E+00  0.35710594831E+03  0.35710594831E+03  0.00000000000E+00 0. -1.
         22   -1    0    0    0    0 -0.00000000000E+00 -0.00000000000E+00 -0.22209110049E+04  0.22209110049E+04  0.00000000000E+00 0.  1.
        -24    2    1    2    0    0 -0.26382458758E+02  0.83713292986E+02 -0.12498846250E+04  0.12555591188E+04  0.80704246656E+02 0.  0.
         25    2    1    2    0    0 -0.40461518503E+02 -0.11707094440E+03 -0.95134911267E+03  0.96749961448E+03  0.12509048465E+03 0.  0.
         24    2    1    2    0    0  0.66843977261E+02  0.33357651414E+02  0.33742868099E+03  0.35495822002E+03  0.80971433260E+02 0.  0.
        -13    1    5    5    0    0  0.46066382948E+02 -0.21992937907E+02  0.15606180399E+03  0.16419831795E+03  0.00000000000E+00 0.  1.
         14    1    5    5    0    0  0.20777594313E+02  0.55350589320E+02  0.18136687700E+03  0.19075990207E+03  0.00000000000E+00 0. -1.
         11    1    3    3    0    0 -0.33544599716E+02  0.21630774791E+02 -0.20757356232E+03  0.21137623887E+03  0.00000000000E+00 0. -1.
        -12    1    3    3    0    0  0.71621409578E+01  0.62082518195E+02 -0.10423110626E+04  0.10441828799E+04  0.00000000000E+00 0.  1.
          5    1    4    4  501    0 -0.42842327745E+02 -0.83286874009E+02 -0.90552340038E+03  0.91036381160E+03  0.41800000000E+01 0. -1.
         -5    1    4    4    0  501  0.23808092421E+01 -0.33784070391E+02 -0.45825712288E+02  0.57135802886E+02  0.41800000000E+01 0. -1.
</event>
<event>
11    1  0.1078607E-008  0.2189327E+03  0.7561462E-02  0.1041888E+00
         22   -1    0    0    0    0  0.00000000000E+00  0.00000000000E+00  0.39661583619E+02  0.39661583619E+02  0.00000000000E+00 0.  1.
         22   -1    0    0    0    0 -0.00000000000E+00 -0.00000000000E+00 -0.24140633476E+04  0.24140633476E+04  0.00000000000E+00 0. -1.
         24    2    1    2    0    0 -0.16801418691E+03  0.81546119616E+02 -0.14955122801E+04  0.15092599730E+04  0.80188214070E+02 0.  0.
         25    2    1    2    0    0  0.14964720857E+03 -0.72227741550E+02 -0.81132685292E+03  0.83756189079E+03  0.12509006735E+03 0.  0.
        -24    2    1    2    0    0  0.18366978346E+02 -0.93183780665E+01 -0.67562630943E+02  0.10690306737E+03  0.80245739137E+02 0.  0.
        -13    1    3    3    0    0 -0.84771420181E+01  0.12017444059E+02 -0.29584076386E+02  0.33037833980E+02  0.00000000000E+00 0.  1.
         14    1    3    3    0    0 -0.15953704490E+03  0.69528675557E+02 -0.14659282037E+04  0.14762221390E+04  0.00000000000E+00 0. -1.
         11    1    5    5    0    0  0.20646204634E+02 -0.35785612109E+02 -0.68863523328E+02  0.80306043639E+02  0.00000000000E+00 0. -1.
        -12    1    5    5    0    0 -0.22792262881E+01  0.26467234042E+02  0.13008923850E+01  0.26597023730E+02  0.00000000000E+00 0.  1.
          5    1    4    4  501    0  0.36271229184E+02 -0.62669592045E+02 -0.15129150061E+03  0.16777863508E+03  0.41800000000E+01 0.  1.
         -5    1    4    4    0  501  0.11337597938E+03 -0.95581495045E+01 -0.66003535231E+03  0.66978325570E+03  0.41800000000E+01 0.  1.
</event>
<event>
11    1  0.1078607E-008  0.2150488E+03  0.7561462E-02  0.1044364E+00
         22   -1    0    0    0    0  0.00000000000E+00  0.00000000000E+00  0.55618751135E+03  0.55618751135E+03  0.00000000000E+00 0.  1.
         22   -1    0    0    0    0 -0.00000000000E+00 -0.00000000000E+00 -0.15231589253E+03  0.15231589253E+03  0.00000000000E+00 0. -1.
        -24    2    1    2    0    0 -0.37644900804E+02  0.14152357105E+03  0.22527084058E+03  0.28113861528E+03  0.82740012487E+02 0.  0.
         25    2    1    2    0    0 -0.63075051163E+02 -0.19226723715E+03  0.61278456500E+02  0.24565854690E+03  0.12509164590E+03 0.  0.
         24    2    1    2    0    0  0.10071995197E+03  0.50743666092E+02  0.11732232173E+03  0.18170624170E+03  0.80828229735E+02 0.  0.
        -11    1    5    5    0    0  0.36987091380E+02  0.10499909537E+02  0.95938843912E+02  0.10335644537E+03  0.00000000000E+00 0.  1.
         12    1    5    5    0    0  0.63732860587E+02  0.40243756555E+02  0.21383477822E+02  0.78349796324E+02  0.00000000000E+00 0. -1.
         13    1    3    3    0    0  0.14616685063E+02  0.63919040888E+02  0.49995836349E+02  0.82455290446E+02  0.00000000000E+00 0. -1.
        -14    1    3    3    0    0 -0.52261585867E+02  0.77604530167E+02  0.17527500423E+03  0.19868332484E+03  0.00000000000E+00 0.  1.
          5    1    4    4  501    0  0.92994017577E+01 -0.15498736305E+03  0.51070797489E+02  0.16350308968E+03  0.41800000000E+01 0. -1.
         -5    1    4    4    0  501 -0.72374452920E+02 -0.37279874093E+02  0.10207659010E+02  0.82155457216E+02  0.41800000000E+01 0. -1.
</event>
<event>
11    1  0.1078607E-008  0.2671139E+03  0.7561462E-02  0.1015158E+00
         22   -1    0    0    0    0  0.00000000000E+00  0.00000000000E+00  0.16815019717E+04  0.16815019717E+04  0.00000000000E+00 0. -1.
         22   -1    0    0    0    0 -0.00000000000E+00 -0.00000000000E+00 -0.69868963817E+03  0.69868963817E+03  0.00000000000E+00 0.  1.
         24    2    1    2    0    0 -0.23336776623E+03  0.30120493357E+02 -0.61868962248E+03  0.66680899652E+03  0.80558242539E+02 0.  0.
         25    2    1    2    0    0  0.25179245918E+03  0.25449420255E+02  0.31483403811E+03  0.42286548388E+03  0.12509048888E+03 0.  0.
        -24    2    1    2    0    0 -0.18424692953E+02 -0.55569913612E+02  0.12866679179E+04  0.12905171295E+04  0.80576956620E+02 0.  0.
        -11    1    3    3    0    0 -0.22638314964E+03  0.23017243723E+02 -0.51987816134E+03  0.56749663134E+03  0.00000000000E+00 0.  1.
         12    1    3    3    0    0 -0.69846165907E+01  0.71032496339E+01 -0.98811461136E+02  0.99312365172E+02  0.00000000000E+00 0. -1.
         11    1    5    5    0    0 -0.48387165453E+02 -0.48129492133E+02  0.94220745599E+03  0.94467595287E+03  0.00000000000E+00 0. -1.
        -12    1    5    5    0    0  0.29962472500E+02 -0.74404214787E+01  0.34446046193E+03  0.34584117664E+03  0.00000000000E+00 0.  1.
          5    1    4    4  501    0  0.10767456939E+03  0.73351468050E+02  0.14804946965E+03  0.19725711298E+03  0.41800000000E+01 0. -1.
         -5    1    4    4    0  501  0.14411788979E+03 -0.47902047795E+02  0.16678456846E+03  0.22560837090E+03  0.41800000000E+01 0. -1.
</event>
<event>
11    1  0.1078607E-008  0.1781603E+03  0.7561462E-02  0.1071141E+00
         22   -1    0    0    0    0  0.00000000000E+00  0.00000000000E+00  0.25593802197E+03  0.25593802197E+03  0.00000000000E+00 0. -1.
         22   -1    0    0    0    0 -0.00000000000E+00 -0.00000000000E+00 -0.20606818557E+04  0.20606818557E+04  0.00000000000E+00 0.  1.
         24    2    1    2    0    0  0.39996906691E+02  0.97616021817E+02 -0.14635510402E+04  0.14695504978E+04  0.80426227159E+02 0.  0.
         25    2    1    2    0    0 -0.73723433813E+02 -0.21535194969E+03 -0.53963894136E+03  0.59888998245E+03  0.12508963632E+03 0.  0.
        -24    2    1    2    0    0  0.33726527122E+02  0.11773592788E+03  0.19844614786E+03  0.24817939739E+03  0.84928866383E+02 0.  0.
        -13    1    3    3    0    0  0.60338750198E+02  0.92844380508E+02 -0.12907665903E+04  0.12955073270E+04  0.00000000000E+00 0.  1.
         14    1    3    3    0    0 -0.20341843507E+02  0.47716413085E+01 -0.17278444992E+03  0.17404317077E+03  0.00000000000E+00 0. -1.
         11    1    5    5    0    0  0.51119761186E+02  0.99440514800E+02  0.19190536892E+03  0.22210204093E+03  0.00000000000E+00 0. -1.
        -12    1    5    5    0    0 -0.17393234064E+02  0.18295413078E+02  0.65407789458E+01  0.26077356463E+02  0.00000000000E+00 0.  1.
          5    1    4    4  501    0 -0.19380523224E+02 -0.93146758524E+02 -0.37411131323E+03  0.38604231684E+03  0.41800000000E+01 0.  1.
         -5    1    4    4    0  501 -0.54342910589E+02 -0.12220519117E+03 -0.16552762813E+03  0.21284766560E+03  0.41800000000E+01 0.  1.
</event>
<event>
11    1  0.1078607E-008  0.1333106E+03  0.7561462E-02  0.1115267E+00
         22   -1    0    0    0    0  0.00000000000E+00  0.00000000000E+00  0.47813834512E+02  0.47813834512E+02  0.00000000000E+00 0.  1.
         22   -1    0    0    0    0 -0.00000000000E+00 -0.00000000000E+00 -0.23077249129E+04  0.23077249129E+04  0.00000000000E+00 0. -1.
        -24    2    1    2    0    0  0.34329174332E+02 -0.15642044586E+02 -0.19213371387E+04  0.19228090638E+04  0.65077873093E+02 0.  0.
         25    2    1    2    0    0 -0.67851973930E+02 -0.10952340751E+02 -0.30390874028E+03  0.33575698600E+03  0.12509351340E+03 0.  0.
         24    2    1    2    0    0  0.33522799598E+02  0.26594385337E+02 -0.34665199431E+02  0.96972697623E+02  0.79818472851E+02 0.  0.
        -13    1    5    5    0    0  0.48593713296E+02 -0.42256249448E+00  0.24474017386E+01  0.48657140342E+02  0.00000000000E+00 0.  1.
         14    1    5    5    0    0 -0.15070913698E+02  0.27016947832E+02 -0.37112601169E+02  0.48315557281E+02  0.00000000000E+00 0. -1.
         13    1    3    3    0    0 -0.94134230982E+01 -0.20381294122E+02 -0.11492645438E+04  0.11494837977E+04  0.00000000000E+00 0. -1.
        -14    1    3    3    0    0  0.43742597430E+02  0.47392495362E+01 -0.77207259495E+03  0.77332526611E+03  0.00000000000E+00 0.  1.
          5    1    4    4  501    0 -0.87163772059E+02  0.29422699501E+02 -0.24443474608E+03  0.26120688333E+03  0.41800000000E+01 0. -1.
         -5    1    4    4    0  501  0.19311798130E+02 -0.40375040253E+02 -0.59473994196E+02  0.74550102669E+02  0.41800000000E+01 0. -1.
</event>
<event>
11    1  0.1078607E-008  0.1816179E+03  0.7561462E-02  0.1068342E+00
         22   -1    0    0    0    0  0.00000000000E+00  0.00000000000E+00  0.18232179780E+03  0.18232179780E+03  0.00000000000E+00 0. -1.
         22   -1    0    0    0    0 -0.00000000000E+00 -0.00000000000E+00 -0.94525295029E+03  0.94525295029E+03  0.00000000000E+00 0.  1.
        -24    2    1    2    0    0  0.12486497274E+03  0.59036329963E+02 -0.75469915516E+03  0.77143366727E+03  0.80389915581E+02 0.  0.
         25    2    1    2    0    0 -0.68264678326E+02 -0.84409995147E+02 -0.12048639265E+03  0.20481585039E+03  0.12508976045E+03 0.  0.
         24    2    1    2    0    0 -0.56600294414E+02  0.25373665184E+02  0.11225439531E+03  0.15132523043E+03  0.80317245261E+02 0.  0.
        -13    1    5    5    0    0 -0.13874405023E+02 -0.28129965821E+01 -0.10959008471E+02  0.17902847013E+02  0.00000000000E+00 0.  1.
         14    1    5    5    0    0 -0.42725889391E+02  0.28186661766E+02  0.12321340378E+03  0.13342238342E+03  0.00000000000E+00 0. -1.
         11    1    3    3    0    0  0.12940514187E+01  0.74032307097E+01 -0.33260705471E+01  0.82185849938E+01  0.00000000000E+00 0. -1.
        -12    1    3    3    0    0  0.12357092132E+03  0.51633099253E+02 -0.75137308461E+03  0.76321508228E+03  0.00000000000E+00 0.  1.
          5    1    4    4  501    0 -0.64638643419E+02 -0.93689503631E+01 -0.11115910812E+03  0.12899515949E+03  0.41800000000E+01 0. -1.
         -5    1    4    4    0  501 -0.36260349069E+01 -0.75041044784E+02 -0.93272845258E+01  0.75820690896E+02  0.41800000000E+01 0. -1.
</event>
<event>
11    1  0.1078607E-008  0.1427730E+03  0.7561462E-02  0.1104501E+00
         22   -1    0    0    0    0  0.00000000000E+00  0.00000000000E+00  0.31962914121E+03  0.31962914121E+03  0.00000000000E+00 0. -1.
         22   -1    0    0    0    0 -0.00000000000E+00 -0.00000000000E+00 -0.64370495808E+03  0.64370495808E+03  0.00000000000E+00 0. -1.
         24    2    1    2    0    0 -0.23693180239E+02 -0.21350653368E+01 -0.57457898498E+03  0.58055734667E+03  0.79623473340E+02 0.  0.
         25    2    1    2    0    0  0.39246899534E+02  0.67532300331E+02  0.48596835830E+02  0.15527437808E+03  0.12509016478E+03 0.  0.
        -24    2    1    2    0    0 -0.15553719295E+02 -0.65397234995E+02  0.20190633227E+03  0.22750237454E+03  0.80451518809E+02 0.  0.
        -11    1    3    3    0    0 -0.15764173428E+02 -0.26842663044E+02 -0.89026947506E+02  0.94312433461E+02  0.00000000000E+00 0.  1.
         12    1    3    3    0    0 -0.79290068105E+01  0.24707597707E+02 -0.48555203747E+03  0.48624491321E+03  0.00000000000E+00 0. -1.
         11    1    5    5    0    0 -0.15684947593E+02 -0.80479992697E+02  0.19368097968E+03  0.21032205946E+03  0.00000000000E+00 0. -1.
        -12    1    5    5    0    0  0.13122829780E+00  0.15082757703E+02  0.82253525899E+01  0.17180315073E+02  0.00000000000E+00 0.  1.
          5    1    4    4  501    0 -0.10989156478E+02  0.33492804865E+02 -0.36342805515E+02  0.50801589055E+02  0.41800000000E+01 0. -1.
         -5    1    4    4    0  501  0.50236056012E+02  0.34039495466E+02  0.84939641345E+02  0.10447278903E+03  0.41800000000E+01 0. -1.
</event>
<event>
11    1  0.1078607E-008  0.1547897E+03  0.7561462E-02  0.1092083E+00
         22   -1    0    0    0    0  0.00000000000E+00  0.00000000000E+00  0.46182336390E+03  0.46182336390E+03  0.00000000000E+00 0. -1.
         22   -1    0    0    0    0 -0.00000000000E+00 -0.00000000000E+00 -0.10076360978E+03  0.10076360978E+03  0.00000000000E+00 0.  1.
         24    2    1    2    0    0 -0.85153070765E+02  0.10530124139E+02  0.63359609943E+01  0.12095513303E+03  0.85018061783E+02 0.  0.
         25    2    1    2    0    0  0.10472703816E+03 -0.36604371405E+02  0.17970753711E+03  0.24545735100E+03  0.12508748833E+03 0.  0.
        -24    2    1    2    0    0 -0.19573967393E+02  0.26074247266E+02  0.17501625602E+03  0.19617448966E+03  0.82405909687E+02 0.  0.
        -13    1    3    3    0    0 -0.25940608384E+02 -0.34560566703E+02 -0.10884463367E+02  0.44562534454E+02  0.00000000000E+00 0.  1.
         14    1    3    3    0    0 -0.59212462381E+02  0.45090690842E+02  0.17220424361E+02  0.76392598575E+02  0.00000000000E+00 0. -1.
         13    1    5    5    0    0 -0.51823374097E+02  0.12313590169E+02  0.97629088680E+02  0.11121477223E+03  0.00000000000E+00 0. -1.
        -14    1    5    5    0    0  0.32249406705E+02  0.13760657097E+02  0.77387167342E+02  0.84959717430E+02  0.00000000000E+00 0.  1.
          5    1    4    4  501    0  0.67547861422E+02  0.27984892202E+02  0.31918532925E+02  0.79888252693E+02  0.41800000000E+01 0.  1.
         -5    1    4    4    0  501  0.37179176736E+02 -0.64589263607E+02  0.14778900418E+03  0.16556909830E+03  0.41800000000E+01 0.  1.
</event>
<event>
11    1  0.1078607E-008  0.1499178E+03  0.7561462E-02  0.1096963E+00
         22   -1    0    0    0    0  0.00000000000E+00  0.00000000000E+00  0.14731230358E+03  0.14731230358E+03  0.00000000000E+00 0. -1.
         22   -1    0    0    0    0 -0.00000000000E+00 -0.00000000000E+00 -0.14419105131E+04  0.14419105131E+04  0.00000000000E+00 0.  1.
        -24    2    1    2    0    0  0.46052223850E+02 -0.55698612780E+02 -0.68997595643E+03  0.69854517738E+03  0.81703130921E+02 0.  0.
         25    2    1    2    0    0 -0.80388426598E+02  0.68558518264E+02 -0.72476806115E+03  0.74303369383E+03  0.12509099947E+03 0.  0.
         24    2    1    2    0    0  0.34336202748E+02 -0.12859905484E+02  0.12014580804E+03  0.14764394549E+03  0.77584582624E+02 0.  0.
        -13    1    5    5    0    0  0.34160680787E+02 -0.36954149529E+02  0.41000730594E+02  0.64912411668E+02  0.00000000000E+00 0.  1.
         14    1    5    5    0    0  0.17552196036E+00  0.24094244045E+02  0.79145077447E+02  0.82731533820E+02  0.00000000000E+00 0. -1.
         11    1    3    3    0    0  0.14185594704E+02  0.18789165432E+02 -0.25530900391E+03  0.25639218263E+03  0.00000000000E+00 0. -1.
        -12    1    3    3    0    0  0.31866629146E+02 -0.74487778211E+02 -0.43466695252E+03  0.44215299475E+03  0.00000000000E+00 0.  1.
          5    1    4    4  501    0 -0.50947720665E+02 -0.26253053390E+02 -0.37677742338E+03  0.38113461169E+03  0.41800000000E+01 0. -1.
         -5    1    4    4    0  501 -0.29440705933E+02  0.94811571653E+02 -0.34799063776E+03  0.36189908214E+03  0.41800000000E+01 0. -1.
</event>
<event>
11    1  0.1078607E-008  0.1581279E+03  0.7561462E-02  0.1088851E+00
         22   -1    0    0    0    0  0.00000000000E+00  0.00000000000E+00  0.16122434910E+03  0.16122434910E+03  0.00000000000E+00 0. -1.
         22   -1    0    0    0    0 -0.00000000000E+00 -0.00000000000E+00 -0.15628059924E+04  0.15628059924E+04  0.00000000000E+00 0.  1.
        -24    2    1    2    0    0  0.27942551123E+02  0.70299966307E+01 -0.10446571081E+04  0.10486692856E+04  0.86997643790E+02 0.  0.
         25    2    1    2    0    0  0.52536615414E+02  0.49090852160E+02 -0.47900479791E+03  0.50026285180E+03  0.12508923514E+03 0.  0.
         24    2    1    2    0    0 -0.80479166536E+02 -0.56120848791E+02  0.12208026268E+03  0.17509820414E+03  0.78290131178E+02 0.  0.
        -13    1    5    5    0    0 -0.37259458035E+02  0.16073497260E+02  0.49251115349E+02  0.63814550773E+02  0.00000000000E+00 0.  1.
         14    1    5    5    0    0 -0.43219708502E+02 -0.72194346051E+02  0.72829147336E+02  0.11128365337E+03  0.00000000000E+00 0. -1.
         13    1    3    3    0    0  0.48676116209E+02 -0.18858657555E+02 -0.80991511336E+03  0.81159565308E+03  0.00000000000E+00 0. -1.
        -14    1    3    3    0    0 -0.20733565086E+02  0.25888654185E+02 -0.23474199473E+03  0.23707363250E+03  0.00000000000E+00 0.  1.
          5    1    4    4  501    0  0.35513644045E+02  0.90972578083E+02 -0.35485451801E+03  0.36807122983E+03  0.41800000000E+01 0. -1.
         -5    1    4    4    0  501  0.17022971369E+02 -0.41881725922E+02 -0.12415027990E+03  0.13219162197E+03  0.41800000000E+01 0. -1.
</event>
<event>
11    1  0.1078607E-008  0.1313895E+03  0.7561462E-02  0.1117573E+00
         22   -1    0    0    0    0  0.00000000000E+00  0.00000000000E+00  0.17841954663E+04  0.17841954663E+04  0.00000000000E+00 0.  1.
         22   -1    0    0    0    0 -0.00000000000E+00 -0.00000000000E+00 -0.31262535912E+03  0.31262535912E+03  0.00000000000E+00 0.  1.
        -24    2    1    2    0    0 -0.23235214747E+02 -0.15145474564E+02 -0.26301559711E+03  0.27643002958E+03  0.80418258676E+02 0.  0.
         25    2    1    2    0    0  0.62684138919E+02  0.11735022856E+02  0.76503016411E+02  0.15989300236E+03  0.12508416627E+03 0.  0.
         24    2    1    2    0    0 -0.39448924172E+02  0.34104517082E+01  0.16580826878E+04  0.16604977934E+04  0.80292424944E+02 0.  0.
        -11    1    5    5    0    0 -0.32367257487E+02  0.30306193372E+02  0.14354388853E+04  0.14361235664E+04  0.00000000000E+00 0.  1.
         12    1    5    5    0    0 -0.70816666852E+01 -0.26895741664E+02  0.22264380257E+03  0.22437422701E+03  0.00000000000E+00 0. -1.
         13    1    3    3    0    0 -0.22083246624E+02 -0.12252679412E+02 -0.17110451871E+02  0.30505171651E+02  0.00000000000E+00 0. -1.
        -14    1    3    3    0    0 -0.11519681232E+01 -0.28927951521E+01 -0.24590514524E+03  0.24592485793E+03  0.00000000000E+00 0.  1.
          5    1    4    4  501    0 -0.18257914269E+02 -0.33336509962E+01 -0.23535616147E+02  0.30263216780E+02  0.41800000000E+01 0. -1.
         -5    1    4    4    0  501  0.80942053188E+02  0.15068673852E+02  0.10003863256E+03  0.12962978558E+03  0.41800000000E+01 0. -1.
</event>
<event>
11    1  0.1078607E-008  0.1278533E+03  0.7561462E-02  0.1121935E+00
         22   -1    0    0    0    0  0.00000000000E+00  0.00000000000E+00  0.63946419319E+02  0.63946419319E+02  0.00000000000E+00 0. -1.
         22   -1    0    0    0    0 -0.00000000000E+00 -0.00000000000E+00 -0.89497630532E+03  0.89497630532E+03  0.00000000000E+00 0. -1.
        -24    2    1    2    0    0  0.22910946131E+02  0.87592310368E+01 -0.62306940740E+03  0.62884447517E+03  0.81414076981E+02 0.  0.
         25    2    1    2    0    0 -0.67996218970E+01  0.15905475868E+02 -0.20919583732E+03  0.24435547700E+03  0.12508989475E+03 0.  0.
         24    2    1    2    0    0 -0.16111324234E+02 -0.24664706905E+02  0.12353587136E+01  0.85722772476E+02  0.80491894465E+02 0.  0.
        -13    1    5    5    0    0  0.82902947552E+01 -0.45919202400E+02 -0.15657528231E+02  0.49218495776E+02  0.00000000000E+00 0.  1.
         14    1    5    5    0    0 -0.24401618989E+02  0.21254495495E+02  0.16892886945E+02  0.36504276700E+02  0.00000000000E+00 0. -1.
         11    1    3    3    0    0 -0.90233587871E+01 -0.16441110211E+02 -0.47263182115E+03  0.47300377321E+03  0.00000000000E+00 0. -1.
        -12    1    3    3    0    0  0.31934304918E+02  0.25200341248E+02 -0.15043758626E+03  0.15584070196E+03  0.00000000000E+00 0.  1.
          5    1    4    4  501    0  0.20883362960E+02  0.50640055360E+02 -0.36418651484E+02  0.65911460546E+02  0.41800000000E+01 0. -1.
         -5    1    4    4    0  501 -0.27682984857E+02 -0.34734579492E+02 -0.17277718583E+03  0.17844401645E+03  0.41800000000E+01 0. -1.
</event>
<event>
11    1  0.1078607E-008  0.1313560E+03  0.7561462E-02  0.1117614E+00
         22   -1    0    0    0    0  0.00000000000E+00  0.00000000000E+00  0.17534756276E+04  0.17534756276E+04  0.00000000000E+00 0.  1.
         22   -1    0    0    0    0 -0.00000000000E+00 -0.00000000000E+00 -0.56169424843E+02  0.56169424843E+02  0.00000000000E+00 0. -1.
         24    2    1    2    0    0  0.41998523739E+00 -0.91889210720E+01 -0.46892868724E+00  0.81776595878E+02  0.81256255644E+02 0.  0.
         25    2    1    2    0    0  0.31362508754E+02 -0.16166465935E+02  0.29739270305E+03  0.32455500524E+03  0.12509424457E+03 0.  0.
        -24    2    1    2    0    0 -0.31782493991E+02  0.25355387007E+02  0.14003824284E+04  0.14033134514E+04  0.81022677909E+02 0.  0.
        -11    1    3    3    0    0  0.38706922784E+02 -0.10091474032E+01  0.12249655773E+02  0.40611553978E+02  0.00000000000E+00 0.  1.
         12    1    3    3    0    0 -0.38286937547E+02 -0.81797736688E+01 -0.12718584460E+02  0.41165041901E+02  0.00000000000E+00 0. -1.
         13    1    5    5    0    0 -0.24092249520E+02  0.26503912265E+02  0.21932265170E+03  0.22222807968E+03  0.00000000000E+00 0. -1.
        -14    1    5    5    0    0 -0.76902444713E+01 -0.11485252579E+01  0.11810597767E+04  0.11810853717E+04  0.00000000000E+00 0.  1.
          5    1    4    4  501    0 -0.30435354101E+02 -0.50370490908E+02  0.12587682291E+03  0.13901778332E+03  0.41800000000E+01 0.  1.
         -5    1    4    4    0  501  0.61797862855E+02  0.34204024973E+02  0.17151588014E+03  0.18553722192E+03  0.41800000000E+01 0.  1.
</event>
<event>
11    1  0.1078607E-008  0.1816149E+03  0.7561462E-02  0.1068344E+00
         22   -1    0    0    0    0  0.00000000000E+00  0.00000000000E+00  0.13713784399E+04  0.13713784399E+04  0.00000000000E+00 0. -1.
         22   -1    0    0    0    0 -0.00000000000E+00 -0.00000000000E+00 -0.14678586445E+03  0.14678586445E+03  0.00000000000E+00 0.  1.
         24    2    1    2    0    0 -0.10755047160E+02 -0.12674902700E+03 -0.54018676162E+02  0.16233377370E+03  0.85166013332E+02 0.  0.
         25    2    1    2    0    0  0.22826103661E+02  0.15235841489E+03  0.23179311984E+03  0.30513802036E+03  0.12508814280E+03 0.  0.
        -24    2    1    2    0    0 -0.12071056501E+02 -0.25609387894E+02  0.10468181317E+04  0.10506925103E+04  0.85586208094E+02 0.  0.
        -13    1    3    3    0    0 -0.13666653110E+01 -0.12352852314E+03 -0.71131255576E+02  0.14255111127E+03  0.00000000000E+00 0.  1.
         14    1    3    3    0    0 -0.93883818495E+01 -0.32205038519E+01  0.17112579414E+02  0.19782662435E+02  0.00000000000E+00 0. -1.
         13    1    5    5    0    0 -0.27392195224E+02 -0.22485123647E+02  0.10108685859E+04  0.10114896001E+04  0.00000000000E+00 0. -1.
        -14    1    5    5    0    0  0.15321138723E+02 -0.31242642468E+01  0.35949545838E+02  0.39202910157E+02  0.00000000000E+00 0.  1.
          5    1    4    4  501    0  0.71336845172E+02  0.10541048544E+03  0.17721228828E+03  0.21822461694E+03  0.41800000000E+01 0.  1.
         -5    1    4    4    0  501 -0.48510741511E+02  0.46947929446E+02  0.54580831567E+02  0.86913403429E+02  0.41800000000E+01 0.  1.
</event>
<event>
11    1  0.1078607E-008  0.1299246E+03  0.7561462E-02  0.1119362E+00
         22   -1    0    0    0    0  0.00000000000E+00  0.00000000000E+00  0.15734451612E+03  0.15734451612E+03  0.00000000000E+00 0. -1.
         22   -1    0    0    0    0 -0.00000000000E+00 -0.00000000000E+00 -0.98948503643E+03  0.98948503643E+03  0.00000000000E+00 0.  1.
        -24    2    1    2    0    0 -0.38594250621E+02 -0.56792079006E+01 -0.76717819837E+03  0.77308423415E+03  0.87034909423E+02 0.  0.
         25    2    1    2    0    0  0.85453005398E+01  0.83072061731E+01 -0.18672936378E+03  0.22507310882E+03  0.12509203484E+03 0.  0.
         24    2    1    2    0    0  0.30048950081E+02 -0.26279982725E+01  0.12176704184E+03  0.14867220958E+03  0.79789520909E+02 0.  0.
        -11    1    5    5    0    0  0.31212742733E+02  0.27766238999E+02  0.28501356467E+02  0.50571994795E+02  0.00000000000E+00 0.  1.
         12    1    5    5    0    0 -0.11637926520E+01 -0.30394237272E+02  0.93265685374E+02  0.98100214785E+02  0.00000000000E+00 0. -1.
         11    1    3    3    0    0 -0.10242071961E+02  0.39272429641E+02 -0.26307976581E+03  0.26619201142E+03  0.00000000000E+00 0. -1.
        -12    1    3    3    0    0 -0.28352178660E+02 -0.44951637541E+02 -0.50409843256E+03  0.50689222273E+03  0.00000000000E+00 0.  1.
          5    1    4    4  501    0  0.22425250507E+02 -0.54503311380E+02 -0.68907227318E+02  0.90769935487E+02  0.41800000000E+01 0. -1.
         -5    1    4    4    0  501 -0.13879949967E+02  0.62810517553E+02 -0.11782213646E+03  0.13430317333E+03  0.41800000000E+01 0. -1.
</event>
<event>
11    1  0.1078607E-008  0.1301980E+03  0.7561462E-02  0.1119026E+00
         22   -1    0    0    0    0  0.00000000000E+00  0.00000000000E+00  0.14599502475E+04  0.14599502475E+04  0.00000000000E+00 0.  1.
         22   -1    0    0    0    0 -0.00000000000E+00 -0.00000000000E+00 -0.28729914737E+03  0.28729914737E+03  0.00000000000E+00 0. -1.
         24    2    1    2    0    0  0.25784334821E+02 -0.29497655585E+02 -0.20035918422E+03  0.21921563208E+03  0.79854536740E+02 0.  0.
         25    2    1    2    0    0  0.34674646786E+01  0.26634475760E+02 -0.22404769535E+02  0.12988870701E+03  0.12509070269E+03 0.  0.
        -24    2    1    2    0    0 -0.29251799500E+02  0.28631798255E+01  0.13954150539E+04  0.13981450558E+04  0.82234778735E+02 0.  0.
        -13    1    3    3    0    0 -0.20059234911E+02  0.18572320909E+01 -0.13433763905E+02  0.24213389456E+02  0.00000000000E+00 0.  1.
         14    1    3    3    0    0  0.45843569733E+02 -0.31354887676E+02 -0.18692542032E+03  0.19500224262E+03  0.00000000000E+00 0. -1.
         13    1    5    5    0    0 -0.33635370662E+02  0.38139360005E+02  0.91884015976E+03  0.92024626494E+03  0.00000000000E+00 0. -1.
        -14    1    5    5    0    0  0.43835711625E+01 -0.35276180180E+02  0.47657489415E+03  0.47789879088E+03  0.00000000000E+00 0.  1.
          5    1    4    4  501    0  0.28195663142E+02  0.58566253662E+02 -0.48863691850E+02  0.81425636437E+02  0.41800000000E+01 0. -1.
         -5    1    4    4    0  501 -0.24728198463E+02 -0.31931777903E+02  0.26458922315E+02  0.48463070572E+02  0.41800000000E+01 0. -1.
</event>
<event>
11    1  0.1078607E-008  0.1346408E+03  0.7561462E-02  0.1113695E+00
         22   -1    0    0    0    0  0.00000000000E+00  0.00000000000E+00  0.47625115649E+02  0.47625115649E+02  0.00000000000E+00 0. -1.
         22   -1    0    0    0    0 -0.00000000000E+00 -0.00000000000E+00 -0.17967449857E+04  0.17967449857E+04  0.00000000000E+00 0.  1.
         24    2    1    2    0    0  0.51910909698E+02 -0.67087319453E-01 -0.14514010461E+04  0.14547071818E+04  0.83145901254E+02 0.  0.
         25    2    1    2    0    0 -0.31382290476E+02 -0.47014471675E+01 -0.27373490146E+03  0.30263073314E+03  0.12509041773E+03 0.  0.
        -24    2    1    2    0    0 -0.20528619222E+02  0.47685344870E+01 -0.23983922419E+02  0.87032186405E+02  0.80964250182E+02 0.  0.
        -13    1    3    3    0    0  0.24538646219E+01 -0.40626096591E+01 -0.10795376978E+04  0.10795481310E+04  0.00000000000E+00 0.  1.
         14    1    3    3    0    0  0.49457045076E+02  0.39955223396E+01 -0.37186334838E+03  0.37515905077E+03  0.00000000000E+00 0. -1.
         13    1    5    5    0    0  0.14433256822E+02 -0.46880492883E+01  0.23094372710E+02  0.27634159287E+02  0.00000000000E+00 0. -1.
        -14    1    5    5    0    0 -0.34961876045E+02  0.94565837753E+01 -0.47078295129E+02  0.59398027118E+02  0.00000000000E+00 0.  1.
          5    1    4    4  501    0  0.35350335398E+02 -0.39597966312E+02 -0.12491982455E+03  0.13579425656E+03  0.41800000000E+01 0.  1.
         -5    1    4    4    0  501 -0.66732625874E+02  0.34896519145E+02 -0.14881507690E+03  0.16683647658E+03  0.41800000000E+01 0.  1.
</event>
<event>
11    1  0.1078607E-008  0.3343545E+03  0.7561462E-02  0.9866161E-01
         22   -1    0    0    0    0  0.00000000000E+00  0.00000000000E+00  0.81901221699E+03  0.81901221699E+03  0.00000000000E+00 0. -1.
         22   -1    0    0    0    0 -0.00000000000E+00 -0.00000000000E+00 -0.51930113324E+03  0.51930113324E+03  0.00000000000E+00 0. -1.
        -24    2    1    2    0    0 -0.75163613524E+02 -0.36039918655E+03 -0.33463433386E+03  0.50292981805E+03  0.73628269174E+02 0.  0.
         25    2    1    2    0    0 -0.17412224070E+02  0.19891747150E+03  0.87929606078E+02  0.25149031022E+03  0.12507763386E+03 0.  0.
         24    2    1    2    0    0  0.92575837594E+02  0.16148171504E+03  0.54641581153E+03  0.58389322196E+03  0.87831802658E+02 0.  0.
        -13    1    5    5    0    0  0.55431618165E+01  0.26180654406E+01  0.12556413779E+03  0.12571369698E+03  0.00000000000E+00 0.  1.
         14    1    5    5    0    0  0.87032675777E+02  0.15886364960E+03  0.42085167374E+03  0.45817952498E+03  0.00000000000E+00 0. -1.
         11    1    3    3    0    0 -0.54513314249E+02 -0.25075894284E+03 -0.18531574022E+03  0.31653384087E+03  0.00000000000E+00 0. -1.
        -12    1    3    3    0    0 -0.20650299276E+02 -0.10964024371E+03 -0.14931859364E+03  0.18639597717E+03  0.00000000000E+00 0.  1.
          5    1    4    4  501    0 -0.52775001767E+02  0.25962668032E+02  0.19339722385E+02  0.62054477718E+02  0.41800000000E+01 0. -1.
         -5    1    4    4    0  501  0.35362777698E+02  0.17295480347E+03  0.68589883693E+02  0.18943583250E+03  0.41800000000E+01 0. -1.
</event>
<event>
11    1  0.1078607E-008  0.1331090E+03  0.7561462E-02  0.1115507E+00
         22   -1    0    0    0    0  0.00000000000E+00  0.00000000000E+00  0.93277931452E+03  0.93277931452E+03  0.00000000000E+00 0. -1.
         22   -1    0    0    0    0 -0.00000000000E+00 -0.00000000000E+00 -0.23081510084E+04  0.23081510084E+04  0.00000000000E+00 0.  1.
        -24    2    1    2    0    0  0.40669246562E+02  0.11149825440E+02 -0.20841927067E+04  0.20861777153E+04  0.80622051369E+02 0.  0.
         25    2    1    2    0    0 -0.79678527259E+02 -0.33743217457E+02 -0.19436810961E+03  0.24680483021E+03  0.12508552974E+03 0.  0.
         24    2    1    2    0    0  0.39009280697E+02  0.22593392017E+02  0.90318912237E+03  0.90794777741E+03  0.81156579456E+02 0.  0.
        -11    1    5    5    0    0 -0.55532478188E+01 -0.21569342626E+02  0.10716378976E+03  0.10945388498E+03  0.00000000000E+00 0.  1.
         12    1    5    5    0    0  0.44562528516E+02  0.44162734644E+02  0.79602533261E+03  0.79849389243E+03  0.00000000000E+00 0. -1.
         13    1    3    3    0    0 -0.16852406030E+02 -0.10635520205E+02 -0.20208005102E+03  0.20306024943E+03  0.00000000000E+00 0. -1.
        -14    1    3    3    0    0  0.57521652591E+02  0.21785345645E+02 -0.18821126556E+04  0.18831174659E+04  0.00000000000E+00 0.  1.
          5    1    4    4  501    0 -0.49635858464E+02  0.43942623699E+02 -0.10763731163E+03  0.12648294699E+03  0.41800000000E+01 0. -1.
         -5    1    4    4    0  501 -0.30042668795E+02 -0.77685841156E+02 -0.86730797982E+02  0.12032188323E+03  0.41800000000E+01 0. -1.
</event>
<event>
11    1  0.1078607E-008  0.4040315E+03  0.7561462E-02  0.9637937E-01
         22   -1    0    0    0    0  0.00000000000E+00  0.00000000000E+00  0.12567644490E+03  0.12567644490E+03  0.00000000000E+00 0.  1.
         22   -1    0    0    0    0 -0.00000000000E+00 -0.00000000000E+00 -0.18148585787E+04  0.18148585787E+04  0.00000000000E+00 0. -1.
        -24    2    1    2    0    0  0.97289631035E+00  0.39825648626E+02 -0.24694232135E+03  0.26276173396E+03  0.80474778308E+02 0.  0.
         25    2    1    2    0    0 -0.38015226021E+03  0.32422372592E+02 -0.10389618687E+04  0.11138474263E+04  0.12508946066E+03 0.  0.
         24    2    1    2    0    0  0.37917936390E+03 -0.72248021218E+02 -0.40327794375E+03  0.56392586339E+03  0.79890630915E+02 0.  0.
        -11    1    5    5    0    0  0.20624727299E+03 -0.91970133445E+01 -0.17470117413E+03  0.27044966798E+03  0.00000000000E+00 0.  1.
         12    1    5    5    0    0  0.17293209091E+03 -0.63051007873E+02 -0.22857676962E+03  0.29347619541E+03  0.00000000000E+00 0. -1.
         11    1    3    3    0    0  0.13488394838E+02  0.44865212793E+02 -0.24462677276E+03  0.24907244341E+03  0.00000000000E+00 0. -1.
        -12    1    3    3    0    0 -0.12515498528E+02 -0.50395641677E+01 -0.23155485853E+01  0.13689290546E+02  0.00000000000E+00 0.  1.
          5    1    4    4  501    0 -0.18705847466E+03 -0.44974778303E+02 -0.53876472536E+03  0.57210008331E+03  0.41800000000E+01 0. -1.
         -5    1    4    4    0  501 -0.19309378554E+03  0.77397150895E+02 -0.50019714335E+03  0.54174734295E+03  0.41800000000E+01 0. -1.
</event>
<event>
11    1  0.1078607E-008  0.1275437E+03  0.7561462E-02  0.1122324E+00
         22   -1    0    0    0    0  0.00000000000E+00  0.00000000000E+00  0.58233489575E+03  0.58233489575E+03  0.00000000000E+00 0.  1.
         22   -1    0    0    0    0 -0.00000000000E+00 -0.00000000000E+00 -0.27757803483E+03  0.27757803483E+03  0.00000000000E+00 0.  1.
         24    2    1    2    0    0 -0.77938800108E+01  0.11260838187E+02 -0.23859554407E+03  0.25179199835E+03  0.79270585622E+02 0.  0.
         25    2    1    2    0    0 -0.10417209007E+02  0.81046689533E+01  0.11204991622E+03  0.16846326467E+03  0.12510189414E+03 0.  0.
        -24    2    1    2    0    0  0.18211089018E+02 -0.19365507140E+02  0.43130248876E+03  0.43965766755E+03  0.81057764577E+02 0.  0.
        -13    1    3    3    0    0 -0.13262165068E+02  0.31622804484E+02 -0.22286281827E+03  0.22548552626E+03  0.00000000000E+00 0.  1.
         14    1    3    3    0    0  0.54682850572E+01 -0.20361966298E+02 -0.15732725792E+02  0.26306472090E+02  0.00000000000E+00 0. -1.
         13    1    5    5    0    0 -0.10638164149E+02 -0.44706736287E+02  0.26715899048E+03  0.27108262394E+03  0.00000000000E+00 0. -1.
        -14    1    5    5    0    0  0.28849253167E+02  0.25341229147E+02  0.16414349827E+03  0.16857504361E+03  0.00000000000E+00 0.  1.
          5    1    4    4  501    0  0.29879346125E+02  0.33446165373E+02 -0.17087289574E+01  0.45075641511E+02  0.41800000000E+01 0.  1.
         -5    1    4    4    0  501 -0.40296555132E+02 -0.25341496420E+02  0.11375864518E+03  0.12338762316E+03  0.41800000000E+01 0.  1.
</event>
<event>
11    1  0.1078607E-008  0.1305509E+03  0.7561462E-02  0.1118594E+00
         22   -1    0    0    0    0  0.00000000000E+00  0.00000000000E+00  0.23328227855E+03  0.23328227855E+03  0.00000000000E+00 0.  1.
         22   -1    0    0    0    0 -0.00000000000E+00 -0.00000000000E+00 -0.10659276412E+04  0.10659276412E+04  0.00000000000E+00 0.  1.
        -24    2    1    2    0    0  0.15286123991E+02  0.34145386774E+02 -0.99299427852E+03  0.99703752785E+03  0.81526816163E+02 0.  0.
         25    2    1    2    0    0  0.10366980342E+02 -0.43517372949E+02  0.13223575638E+02  0.13350432187E+03  0.12508918808E+03 0.  0.
         24    2    1    2    0    0 -0.25653104333E+02  0.93719861751E+01  0.14712534019E+03  0.16866807007E+03  0.77827605955E+02 0.  0.
        -13    1    5    5    0    0 -0.41001194201E+02  0.17592182152E+02  0.39331838211E+02  0.59477527654E+02  0.00000000000E+00 0.  1.
         14    1    5    5    0    0  0.15348089868E+02 -0.82201959773E+01  0.10779350197E+03  0.10919054241E+03  0.00000000000E+00 0. -1.
         13    1    3    3    0    0  0.83116884624E+01  0.28800837558E+02 -0.11033541504E+03  0.11433493002E+03  0.00000000000E+00 0. -1.
        -14    1    3    3    0    0  0.69744355284E+01  0.53445492168E+01 -0.88265886347E+03  0.88270259783E+03  0.00000000000E+00 0.  1.
          5    1    4    4  501    0  0.41323984875E+02 -0.91895825114E+01  0.56040871091E+02  0.70357457212E+02  0.41800000000E+01 0. -1.
         -5    1    4    4    0  501 -0.30957004533E+02 -0.34327790438E+02 -0.42817295453E+02  0.63146864656E+02  0.41800000000E+01 0. -1.
</event>
<event>
11    1  0.1078607E-008  0.1271986E+03  0.7561462E-02  0.1122760E+00
         22   -1    0    0    0    0  0.00000000000E+00  0.00000000000E+00  0.21879131224E+03  0.21879131224E+03  0.00000000000E+00 0.  1.
         22   -1    0    0    0    0 -0.00000000000E+00 -0.00000000000E+00 -0.41954477610E+03  0.41954477610E+03  0.00000000000E+00 0. -1.
        -24    2    1    2    0    0  0.22088624324E+01  0.60656753614E+01 -0.23991572949E+03  0.25325791117E+03  0.80860007560E+02 0.  0.
         25    2    1    2    0    0 -0.97982964124E+01  0.16018463197E+02 -0.13893763480E+03  0.18789158494E+03  0.12508790330E+03 0.  0.
         24    2    1    2    0    0  0.75894339800E+01 -0.22084138558E+02  0.17809990043E+03  0.19718659223E+03  0.81349056155E+02 0.  0.
        -13    1    5    5    0    0  0.38814912823E+02 -0.21345988733E+02  0.14526430172E+03  0.15186825227E+03  0.00000000000E+00 0.  1.
         14    1    5    5    0    0 -0.31225478843E+02 -0.73814982555E+00  0.32835598709E+02  0.45318339960E+02  0.00000000000E+00 0. -1.
         11    1    3    3    0    0  0.76819351160E+00  0.42517229335E+02 -0.15729809426E+03  0.16294476171E+03  0.00000000000E+00 0. -1.
        -12    1    3    3    0    0  0.14406689208E+01 -0.36451553973E+02 -0.82617635231E+02  0.90313149459E+02  0.00000000000E+00 0.  1.
          5    1    4    4  501    0  0.25271131206E+01  0.37355419837E+01  0.23591725512E+02  0.24379960773E+02  0.41800000000E+01 0.  1.
         -5    1    4    4    0  501 -0.12325409533E+02  0.12282921213E+02 -0.16252936031E+03  0.16351162417E+03  0.41800000000E+01 0.  1.
</event>
<event>
11    1  0.1078607E-008  0.1573710E+03  0.7561462E-02  0.1089576E+00
         22   -1    0    0    0    0  0.00000000000E+00  0.00000000000E+00  0.76713033835E+02  0.76713033835E+02  0.00000000000E+00 0.  1.
         22   -1    0    0    0    0 -0.00000000000E+00 -0.00000000000E+00 -0.53314033194E+03  0.53314033194E+03  0.00000000000E+00 0. -1.
        -24    2    1    2    0    0 -0.22613989651E+02 -0.47107931696E+02 -0.21323293383E+03  0.23379695083E+03  0.80387688040E+02 0.  0.
         25    2    1    2    0    0  0.12145905364E+02 -0.68342141343E+02 -0.14972305960E+03  0.20708118423E+03  0.12508977171E+03 0.  0.
         24    2    1    2    0    0  0.10468084287E+02  0.11545007304E+03 -0.93471304669E+02  0.16897523072E+03  0.79858898348E+02 0.  0.
        -11    1    5    5    0    0 -0.12738569051E+02  0.30197383297E+02  0.86899504777E+01  0.33906759485E+02  0.00000000000E+00 0.  1.
         12    1    5    5    0    0  0.23206653338E+02  0.85252689742E+02 -0.10216125515E+03  0.13506847123E+03  0.00000000000E+00 0. -1.
         13    1    3    3    0    0 -0.23825736738E+02 -0.47637043651E+02 -0.22027946500E+03  0.22662743955E+03  0.00000000000E+00 0. -1.
        -14    1    3    3    0    0  0.12117470870E+01  0.52911195524E+00  0.70465311642E+01  0.71695112742E+01  0.00000000000E+00 0.  1.
          5    1    4    4  501    0  0.33550809624E+02 -0.82016835221E+02 -0.45449523303E+02  0.99677227362E+02  0.41800000000E+01 0.  1.
         -5    1    4    4    0  501 -0.21404904261E+02  0.13674693877E+02 -0.10427353630E+03  0.10740395687E+03  0.41800000000E+01 0.  1.
</event>
<event>
11    1  0.1078607E-008  0.2102342E+03  0.7561462E-02  0.1047513E+00
         22   -1    0    0    0    0  0.00000000000E+00  0.00000000000E+00  0.10236077767E+04  0.10236077767E+04  0.00000000000E+00 0.  1.
         22   -1    0    0    0    0 -0.00000000000E+00 -0.00000000000E+00 -0.35071236452E+03  0.35071236452E+03  0.00000000000E+00 0.  1.
         24    2    1    2    0    0  0.11220470477E+03  0.24559796382E+02 -0.24268973563E+03  0.28031577890E+03  0.80532904776E+02 0.  0.
         25    2    1    2    0    0 -0.25693944952E+03  0.38028962157E+02  0.18575761081E+03  0.34295603974E+03  0.12509545371E+03 0.  0.
        -24    2    1    2    0    0  0.14473474475E+03 -0.62588758539E+02  0.72982753699E+03  0.75104832256E+03  0.80992901191E+02 0.  0.
        -13    1    3    3    0    0  0.82700409062E+02  0.14607634409E+02 -0.84660886136E+02  0.11924850642E+03  0.00000000000E+00 0.  1.
         14    1    3    3    0    0  0.29504295708E+02  0.99521619736E+01 -0.15802884949E+03  0.16106727248E+03  0.00000000000E+00 0. -1.
         13    1    5    5    0    0  0.64714225498E+02 -0.52727056138E+02  0.22831719901E+03  0.24309836856E+03  0.00000000000E+00 0. -1.
        -14    1    5    5    0    0  0.80020519251E+02 -0.98617024013E+01  0.50151033798E+03  0.50794995400E+03  0.00000000000E+00 0.  1.
          5    1    4    4  501    0 -0.14429555090E+03  0.55243704674E+02  0.43366143217E+02  0.16053400791E+03  0.41800000000E+01 0. -1.
         -5    1    4    4    0  501 -0.11264389861E+03 -0.17214742517E+02  0.14239146759E+03  0.18242203183E+03  0.41800000000E+01 0. -1.
</event>
<event>
11    1  0.1078607E-008  0.1401338E+03  0.7561462E-02  0.1107409E+00
         22   -1    0    0    0    0  0.00000000000E+00  0.00000000000E+00  0.47576195564E+03  0.47576195564E+03  0.00000000000E+00 0.  1.
         22   -1    0    0    0    0 -0.00000000000E+00 -0.00000000000E+00 -0.10399344317E+03  0.10399344317E+03  0.00000000000E+00 0.  1.
        -24    2    1    2    0    0 -0.33099999365E+00 -0.20681419038E+02 -0.46534085245E+02  0.95468755563E+02  0.80752904249E+02 0.  0.
         25    2    1    2    0    0 -0.62764555447E+02  0.17687413515E+02  0.22532874700E+03  0.26584378201E+03  0.12509051999E+03 0.  0.
         24    2    1    2    0    0  0.63095555441E+02  0.29940055227E+01  0.19297385072E+03  0.21844286124E+03  0.80550377898E+02 0.  0.
        -13    1    5    5    0    0  0.46989365945E+02  0.36443283076E+02  0.81065429750E+02  0.10053714385E+03  0.00000000000E+00 0.  1.
         14    1    5    5    0    0  0.16106189495E+02 -0.33449277553E+02  0.11190842097E+03  0.11790571739E+03  0.00000000000E+00 0. -1.
         11    1    3    3    0    0  0.24196213531E+02 -0.17991882594E+02  0.11606509521E+02  0.32309064546E+02  0.00000000000E+00 0. -1.
        -12    1    3    3    0    0 -0.24527213525E+02 -0.26895364435E+01 -0.58140594767E+02  0.63159691017E+02  0.00000000000E+00 0.  1.
          5    1    4    4  501    0 -0.86598141960E+01  0.56567834927E+02  0.43074343762E+02  0.71748057959E+02  0.41800000000E+01 0. -1.
         -5    1    4    4    0  501 -0.54104741251E+02 -0.38880421412E+02  0.18225440324E+03  0.19409572405E+03  0.41800000000E+01 0. -1.
</event>
<event>
11    1  0.1078607E-008  0.2855762E+03  0.7561462E-02  0.1006487E+00
         22   -1    0    0    0    0  0.00000000000E+00  0.00000000000E+00  0.27589098620E+03  0.27589098620E+03  0.00000000000E+00 0.  1.
         22   -1    0    0    0    0 -0.00000000000E+00 -0.00000000000E+00 -0.15233783463E+04  0.15233783463E+04  0.00000000000E+00 0. -1.
        -24    2    1    2    0    0 -0.15048841065E+03 -0.20683363649E+03 -0.13685317596E+04  0.13944103854E+04  0.77937351567E+02 0.  0.
         25    2    1    2    0    0  0.17077116833E+03  0.20994326386E+03  0.68623758337E+02  0.30593398126E+03  0.12508962669E+03 0.  0.
         24    2    1    2    0    0 -0.20282757679E+02 -0.31096273778E+01  0.52420641193E+02  0.98924965879E+02  0.81345960008E+02 0.  0.
        -13    1    5    5    0    0  0.25721150559E+02 -0.21703402499E+02  0.27153627866E+02  0.43242742424E+02  0.00000000000E+00 0.  1.
         14    1    5    5    0    0 -0.46003908238E+02  0.18593775121E+02  0.25267013327E+02  0.55682223455E+02  0.00000000000E+00 0. -1.
         11    1    3    3    0    0 -0.98837631703E+02 -0.16893036116E+03 -0.11553311220E+04  0.11717919380E+04  0.00000000000E+00 0. -1.
        -12    1    3    3    0    0 -0.51650778947E+02 -0.37903275322E+02 -0.21320063761E+03  0.22261844740E+03  0.00000000000E+00 0.  1.
          5    1    4    4  501    0  0.18011274204E+03  0.17789042235E+03  0.86849843695E+02  0.26766764832E+03  0.41800000000E+01 0. -1.
         -5    1    4    4    0  501 -0.93415737129E+01  0.32052841518E+02 -0.18226085358E+02  0.38266332935E+02  0.41800000000E+01 0. -1.
</event>
<event>
11    1  0.1078607E-008  0.1464181E+03  0.7561462E-02  0.1100596E+00
         22   -1    0    0    0    0  0.00000000000E+00  0.00000000000E+00  0.96461099526E+03  0.96461099526E+03  0.00000000000E+00 0. -1.
         22   -1    0    0    0    0 -0.00000000000E+00 -0.00000000000E+00 -0.32713333947E+03  0.32713333947E+03  0.00000000000E+00 0.  1.
         24    2    1    2    0    0 -0.55474376883E+02 -0.48492241887E+02 -0.22270898147E+03  0.24808291980E+03  0.80727570599E+02 0.  0.
         25    2    1    2    0    0 -0.22638300470E+02  0.40783598429E+02 -0.37454837689E+02  0.13865454696E+03  0.12508566656E+03 0.  0.
        -24    2    1    2    0    0  0.78112677353E+02  0.77086434588E+01  0.89764147495E+03  0.90500686797E+03  0.84357572122E+02 0.  0.
        -13    1    3    3    0    0 -0.73669860973E+02 -0.52517543233E+02 -0.17892599176E+03  0.20049900571E+03  0.00000000000E+00 0.  1.
         14    1    3    3    0    0  0.18195484090E+02  0.40253013459E+01 -0.43782989714E+02  0.47583914093E+02  0.00000000000E+00 0. -1.
         11    1    5    5    0    0  0.10394514671E+02 -0.27163134652E+02  0.44936558270E+03  0.45030579469E+03  0.00000000000E+00 0. -1.
        -12    1    5    5    0    0  0.67718162682E+02  0.34871778111E+02  0.44827589225E+03  0.45470107328E+03  0.00000000000E+00 0.  1.
          5    1    4    4  501    0 -0.19521249014E+02  0.84999158374E+02 -0.34996815219E+02  0.94064794492E+02  0.41800000000E+01 0. -1.
         -5    1    4    4    0  501 -0.31170514560E+01 -0.44215559946E+02 -0.24580224698E+01  0.44589752473E+02  0.41800000000E+01 0. -1.
</event>
<event>
11    1  0.1078607E-008  0.1606798E+03  0.7561462E-02  0.1086440E+00
         22   -1    0    0    0    0  0.00000000000E+00  0.00000000000E+00  0.29965185507E+04  0.29965185507E+04  0.00000000000E+00 0. -1.
         22   -1    0    0    0    0 -0.00000000000E+00 -0.00000000000E+00 -0.47742667269E+02  0.47742667269E+02  0.00000000000E+00 0.  1.
         24    2    1    2    0    0  0.39711068125E+02 -0.98392220736E+02  0.93323147781E+02  0.16246574027E+03  0.80174240364E+02 0.  0.
         25    2    1    2    0    0 -0.66602475540E+02  0.58981207123E+02  0.46437387265E+03  0.48908552133E+03  0.12508749352E+03 0.  0.
        -24    2    1    2    0    0  0.26891407414E+02  0.39411013613E+02  0.23910788630E+04  0.23927099563E+04  0.74339965097E+02 0.  0.
        -13    1    3    3    0    0  0.10362457732E+02 -0.10957250240E+02 -0.14263543528E+02  0.20757903002E+02  0.00000000000E+00 0.  1.
         14    1    3    3    0    0  0.29348610393E+02 -0.87434970496E+02  0.10758669131E+03  0.14170783727E+03  0.00000000000E+00 0. -1.
         13    1    5    5    0    0 -0.16564517316E+02  0.29784708082E+02  0.16123360891E+04  0.16126962443E+04  0.00000000000E+00 0. -1.
        -14    1    5    5    0    0  0.43455924730E+02  0.96263055317E+01  0.77874277382E+03  0.78001371202E+03  0.00000000000E+00 0.  1.
          5    1    4    4  501    0  0.12921221195E+02 -0.27575628045E+02  0.15692515668E+03  0.15990731821E+03  0.41800000000E+01 0.  1.
         -5    1    4    4    0  501 -0.79523696735E+02  0.86556835168E+02  0.30744871597E+03  0.32917820312E+03  0.41800000000E+01 0.  1.
</event>
<event>
11    1  0.1078607E-008  0.1603984E+03  0.7561462E-02  0.1086703E+00
         22   -1    0    0    0    0  0.00000000000E+00  0.00000000000E+00  0.10498635463E+04  0.10498635463E+04  0.00000000000E+00 0.  1.
         22   -1    0    0    0    0 -0.00000000000E+00 -0.00000000000E+00 -0.97117439915E+03  0.97117439915E+03  0.00000000000E+00 0. -1.
        -24    2    1    2    0    0  0.27429011288E+01 -0.84638607934E+01 -0.92195105822E+03  0.92543523654E+03  0.79733699491E+02 0.  0.
         25    2    1    2    0    0  0.20819533121E+02  0.10530778390E+03  0.11600349522E+03  0.20155206855E+03  0.12507295121E+03 0.  0.
         24    2    1    2    0    0 -0.23562434250E+02 -0.96843923104E+02  0.88463671015E+03  0.89405064036E+03  0.82525782848E+02 0.  0.
        -13    1    5    5    0    0  0.20173193666E+02 -0.67041406722E+02  0.63611541570E+03  0.63995650637E+03  0.00000000000E+00 0.  1.
         14    1    5    5    0    0 -0.43735627916E+02 -0.29802516382E+02  0.24852129445E+03  0.25409413399E+03  0.00000000000E+00 0. -1.
         13    1    3    3    0    0  0.21799374979E+02  0.28745960703E+02 -0.31822766363E+03  0.32026612201E+03  0.00000000000E+00 0. -1.
        -14    1    3    3    0    0 -0.19056473850E+02 -0.37209821496E+02 -0.60372339459E+03  0.60516911454E+03  0.00000000000E+00 0.  1.
          5    1    4    4  501    0  0.90462358628E+01  0.12815570961E+03  0.11921382276E+03  0.17531436971E+03  0.41800000000E+01 0.  1.
         -5    1    4    4    0  501  0.11773297259E+02 -0.22847925715E+02 -0.32103275314E+01  0.26237698845E+02  0.41800000000E+01 0.  1.
</event>
<event>
11    1  0.1078607E-008  0.1331861E+03  0.7561462E-02  0.1115415E+00
         22   -1    0    0    0    0  0.00000000000E+00  0.00000000000E+00  0.97292545549E+02  0.97292545549E+02  0.00000000000E+00 0. -1.
         22   -1    0    0    0    0 -0.00000000000E+00 -0.00000000000E+00 -0.97953564854E+03  0.97953564854E+03  0.00000000000E+00 0. -1.
         24    2    1    2    0    0 -0.34724630721E+02 -0.27090701021E+02 -0.82181112652E+03  0.82760215528E+03  0.87247313334E+02 0.  0.
         25    2    1    2    0    0  0.78539456023E+02  0.22946530754E+02 -0.49441140815E+02  0.15744781661E+03  0.12510155524E+03 0.  0.
        -24    2    1    2    0    0 -0.43814825302E+02  0.41441702672E+01 -0.10990835654E+02  0.91778222203E+02  0.79784275010E+02 0.  0.
        -11    1    3    3    0    0  0.88087145958E+01 -0.25025692325E+02 -0.75613649079E+02  0.80133030993E+02  0.00000000000E+00 0.  1.
         12    1    3    3    0    0 -0.43533345317E+02 -0.20650086959E+01 -0.74619747744E+03  0.74746912428E+03  0.00000000000E+00 0. -1.
         13    1    5    5    0    0 -0.27782331851E+02 -0.30786862651E+02  0.16387141187E+02  0.44589542174E+02  0.00000000000E+00 0. -1.
        -14    1    5    5    0    0 -0.16032493451E+02  0.34931032918E+02 -0.27377976842E+02  0.47188680029E+02  0.00000000000E+00 0.  1.
          5    1    4    4  501    0  0.74242187736E+02 -0.38589797971E+02 -0.45881332646E+02  0.95517768152E+02  0.41800000000E+01 0. -1.
         -5    1    4    4    0  501  0.42972682867E+01  0.61536328725E+02 -0.35598081689E+01  0.61930048457E+02  0.41800000000E+01 0. -1.
</event>
<event>
11    1  0.1078607E-008  0.1398024E+03  0.7561462E-02  0.1107779E+00
         22   -1    0    0    0    0  0.00000000000E+00  0.00000000000E+00  0.35368813251E+04  0.35368813251E+04  0.00000000000E+00 0. -1.
         22   -1    0    0    0    0 -0.00000000000E+00 -0.00000000000E+00 -0.24823450023E+02  0.24823450023E+02  0.00000000000E+00 0.  1.
         24    2    1    2    0    0 -0.53640891376E+02  0.57479993726E+02  0.26966031306E+03  0.29209133682E+03  0.80120969160E+02 0.  0.
         25    2    1    2    0    0 -0.54638129183E+01 -0.53586442145E+02  0.35408977131E+03  0.37937922490E+03  0.12509064756E+03 0.  0.
        -24    2    1    2    0    0  0.59104704295E+02 -0.38935515806E+01  0.28883077907E+04  0.28902342134E+04  0.87312018875E+02 0.  0.
        -11    1    3    3    0    0 -0.25849540701E+02  0.67320550184E+02  0.12371480369E+03  0.14319779287E+03  0.00000000000E+00 0.  1.
         12    1    3    3    0    0 -0.27791350675E+02 -0.98405564586E+01  0.14594550937E+03  0.14889354395E+03  0.00000000000E+00 0. -1.
         13    1    5    5    0    0  0.38282408172E+02  0.30628390991E+02  0.23112117011E+04  0.23117316384E+04  0.00000000000E+00 0. -1.
        -14    1    5    5    0    0  0.20822296122E+02 -0.34521942572E+02  0.57709608963E+03  0.57850257493E+03  0.00000000000E+00 0.  1.
          5    1    4    4  501    0 -0.22860945080E+02 -0.58150626714E+02  0.67048773892E+02  0.91744910909E+02  0.41800000000E+01 0. -1.
         -5    1    4    4    0  501  0.17397132162E+02  0.45641845689E+01  0.28704099741E+03  0.28763431399E+03  0.41800000000E+01 0. -1.
</event>
<event>
11    1  0.1078607E-008  0.2029199E+03  0.7561462E-02  0.1052478E+00
         22   -1    0    0    0    0  0.00000000000E+00  0.00000000000E+00  0.26057180838E+03  0.26057180838E+03  0.00000000000E+00 0.  1.
         22   -1    0    0    0    0 -0.00000000000E+00 -0.00000000000E+00 -0.43977209135E+03  0.43977209135E+03  0.00000000000E+00 0.  1.
        -24    2    1    2    0    0 -0.14034832336E+03 -0.24446234807E+02 -0.22081995328E+03  0.27591217557E+03  0.84088088319E+02 0.  0.
         25    2    1    2    0    0  0.21279749781E+03  0.57728311824E+02 -0.72608950103E+02  0.26369499468E+03  0.12509059728E+03 0.  0.
         24    2    1    2    0    0 -0.72449174447E+02 -0.33282077017E+02  0.11422862042E+03  0.16073672947E+03  0.80196876191E+02 0.  0.
        -13    1    5    5    0    0 -0.64451689642E+02 -0.47185908906E+02  0.11959972094E+03  0.14382149890E+03  0.00000000000E+00 0.  1.
         14    1    5    5    0    0 -0.79974848052E+01  0.13903831889E+02 -0.53711005255E+01  0.16915230571E+02  0.00000000000E+00 0. -1.
         13    1    3    3    0    0 -0.53857071386E+02 -0.26237914156E+02 -0.31324390550E+02  0.67603474177E+02  0.00000000000E+00 0. -1.
        -14    1    3    3    0    0 -0.86491251974E+02  0.17916793491E+01 -0.18949556273E+03  0.20830870140E+03  0.00000000000E+00 0.  1.
          5    1    4    4  501    0  0.19347605200E+03  0.21466370848E+02 -0.18442693336E+02  0.19557963369E+03  0.41800000000E+01 0. -1.
         -5    1    4    4    0  501  0.19321445802E+02  0.36261940976E+02 -0.54166256767E+02  0.68115360994E+02  0.41800000000E+01 0. -1.
</event>
<event>
11    1  0.1078607E-008  0.1892750E+03  0.7561462E-02  0.1062378E+00
         22   -1    0    0    0    0  0.00000000000E+00  0.00000000000E+00  0.13959394755E+04  0.13959394755E+04  0.00000000000E+00 0.  1.
         22   -1    0    0    0    0 -0.00000000000E+00 -0.00000000000E+00 -0.44649815420E+02  0.44649815420E+02  0.00000000000E+00 0.  1.
        -24    2    1    2    0    0 -0.10047618750E+03  0.11601850190E+03  0.23270802558E+03  0.29005250690E+03  0.80135351461E+02 0.  0.
         25    2    1    2    0    0  0.97955484766E+02 -0.57811659532E+02  0.74545872131E+03  0.76439178434E+03  0.12509448356E+03 0.  0.
         24    2    1    2    0    0  0.25207027293E+01 -0.58206842367E+02  0.37312291322E+03  0.38614499971E+03  0.80578297267E+02 0.  0.
        -13    1    5    5    0    0  0.52228829659E+00 -0.78201455037E+02  0.31796736697E+03  0.32744310470E+03  0.00000000000E+00 0.  1.
         14    1    5    5    0    0  0.19984144327E+01  0.19994612670E+02  0.55155546248E+02  0.58701895012E+02  0.00000000000E+00 0. -1.
         13    1    3    3    0    0 -0.40552985931E+02  0.18987081209E+02  0.12658207372E+03  0.13426866838E+03  0.00000000000E+00 0. -1.
        -14    1    3    3    0    0 -0.59923201564E+02  0.97031420690E+02  0.10612595186E+03  0.15578383853E+03  0.00000000000E+00 0.  1.
          5    1    4    4  501    0  0.12754809678E+02 -0.61112086433E+02  0.51211077436E+03  0.51591887918E+03  0.41800000000E+01 0.  1.
         -5    1    4    4    0  501  0.85200675088E+02  0.33004269008E+01  0.23334794695E+03  0.24847290516E+03  0.41800000000E+01 0.  1.
</event>
<event>
11    1  0.1078607E-008  0.1798853E+03  0.7561462E-02  0.1069736E+00
         22   -1    0    0    0    0  0.00000000000E+00  0.00000000000E+00  0.48125010667E+03  0.48125010667E+03  0.00000000000E+00 0. -1.
         22   -1    0    0    0    0 -0.00000000000E+00 -0.00000000000E+00 -0.55226618338E+03  0.55226618338E+03  0.00000000000E+00 0. -1.
         24    2    1    2    0    0  0.10122949633E+03 -0.74143201809E+02 -0.45564319848E+03  0.47963911563E+03  0.81843335831E+02 0.  0.
         25    2    1    2    0    0 -0.16856336196E+03  0.75440969406E+02  0.87842382703E+02  0.23973028010E+03  0.12509746655E+03 0.  0.
        -24    2    1    2    0    0  0.67333865630E+02 -0.12977675970E+01  0.29678473907E+03  0.31414689432E+03  0.77920191269E+02 0.  0.
        -13    1    3    3    0    0  0.26256604050E+02  0.99575436432E+01 -0.17476373510E+03  0.17700543787E+03  0.00000000000E+00 0.  1.
         14    1    3    3    0    0  0.74972892280E+02 -0.84100745452E+02 -0.28087946338E+03  0.30263367776E+03  0.00000000000E+00 0. -1.
         13    1    5    5    0    0  0.59269150031E+02 -0.17697789627E+02  0.10783870062E+03  0.12431906232E+03  0.00000000000E+00 0. -1.
        -14    1    5    5    0    0  0.80647155995E+01  0.16400022030E+02  0.18894603845E+03  0.18982783201E+03  0.00000000000E+00 0.  1.
          5    1    4    4  501    0 -0.37043547143E+02  0.75658408742E+02  0.55412624929E+01  0.84525719093E+02  0.41800000000E+01 0. -1.
         -5    1    4    4    0  501 -0.13151981482E+03 -0.21743933520E+00  0.82301120210E+02  0.15520456101E+03  0.41800000000E+01 0. -1.
</event>
<event>
11    1  0.1078607E-008  0.2541275E+03  0.7561462E-02  0.1021723E+00
         22   -1    0    0    0    0  0.00000000000E+00  0.00000000000E+00  0.16884408942E+04  0.16884408942E+04  0.00000000000E+00 0. -1.
         22   -1    0    0    0    0 -0.00000000000E+00 -0.00000000000E+00 -0.10733826481E+04  0.10733826481E+04  0.00000000000E+00 0. -1.
         24    2    1    2    0    0 -0.18220893583E+03 -0.13093333895E+02 -0.96108228652E+03  0.98319745446E+03  0.98114939303E+02 0.  0.
         25    2    1    2    0    0  0.38540524497E+03  0.43713350255E+01  0.35830590315E+03  0.54091278783E+03  0.12508881800E+03 0.  0.
        -24    2    1    2    0    0 -0.20319630914E+03  0.87219988698E+01  0.12178346294E+04  0.12377132999E+04  0.86303040862E+02 0.  0.
        -13    1    3    3    0    0 -0.13083216460E+02  0.28979465838E+02 -0.11271003208E+03  0.11710905740E+03  0.00000000000E+00 0.  1.
         14    1    3    3    0    0 -0.16912571937E+03 -0.42072799733E+02 -0.84837225443E+03  0.86608839706E+03  0.00000000000E+00 0. -1.
         13    1    5    5    0    0 -0.12568996346E+03  0.16807428613E+02  0.96060689409E+03  0.96894069042E+03  0.00000000000E+00 0. -1.
        -14    1    5    5    0    0 -0.77506345678E+02 -0.80854297435E+01  0.25722773536E+03  0.26877260953E+03  0.00000000000E+00 0.  1.
          5    1    4    4  501    0  0.25998559032E+03 -0.53761116851E+02  0.21386656694E+03  0.34093862456E+03  0.41800000000E+01 0.  1.
         -5    1    4    4    0  501  0.12541965465E+03  0.58132451876E+02  0.14443933621E+03  0.19997416327E+03  0.41800000000E+01 0.  1.
</event>
<event>
11    1  0.1078607E-008  0.1690700E+03  0.7561462E-02  0.1078844E+00
         22   -1    0    0    0    0  0.00000000000E+00  0.00000000000E+00  0.73191045497E+03  0.73191045497E+03  0.00000000000E+00 0. -1.
         22   -1    0    0    0    0 -0.00000000000E+00 -0.00000000000E+00 -0.98905967132E+03  0.98905967132E+03  0.00000000000E+00 0. -1.
         24    2    1    2    0    0  0.10824638555E+03 -0.37027620491E+02 -0.92120039787E+03  0.93231186208E+03  0.86642428847E+02 0.  0.
         25    2    1    2    0    0 -0.96783868851E+02  0.28178826185E+02  0.48762990762E+02  0.16789238911E+03  0.12509540974E+03 0.  0.
        -24    2    1    2    0    0 -0.11462516697E+02  0.88487943055E+01  0.61528819076E+03  0.62076587509E+03  0.81000145369E+02 0.  0.
        -13    1    3    3    0    0 -0.11635974564E+02 -0.69708630455E+00 -0.19800122074E+03  0.19834405776E+03  0.00000000000E+00 0.  1.
         14    1    3    3    0    0  0.11988236011E+03 -0.36330534186E+02 -0.72319917713E+03  0.73396780432E+03  0.00000000000E+00 0. -1.
         11    1    5    5    0    0  0.17907530633E+02  0.16212889473E+02  0.52460972888E+03  0.52516559776E+03  0.00000000000E+00 0. -1.
        -12    1    5    5    0    0 -0.29370047330E+02 -0.73640951679E+01  0.90678461876E+02  0.95600277332E+02  0.00000000000E+00 0.  1.
          5    1    4    4  501    0 -0.54229140345E+02  0.73151468691E+02  0.53431268444E+02  0.10566129794E+03  0.41800000000E+01 0.  1.
         -5    1    4    4    0  501 -0.42554728506E+02 -0.44972642506E+02 -0.46682776825E+01  0.62231091174E+02  0.41800000000E+01 0.  1.
</event>
<event>
11    1  0.1078607E-008  0.1816030E+03  0.7561462E-02  0.1068354E+00
         22   -1    0    0    0    0  0.00000000000E+00  0.00000000000E+00  0.67498756592E+03  0.67498756592E+03  0.00000000000E+00 0. -1.
         22   -1    0    0    0    0 -0.00000000000E+00 -0.00000000000E+00 -0.34160979514E+04  0.34160979514E+04  0.00000000000E+00 0. -1.
         24    2    1    2    0    0 -0.68125872749E+02  0.27390237464E+02 -0.30455531764E+04  0.30475109309E+04  0.80853965958E+02 0.  0.
         25    2    1    2    0    0 -0.96385066292E+01  0.80726020858E+02 -0.34497980921E+03  0.37585821454E+03  0.12509491366E+03 0.  0.
        -24    2    1    2    0    0  0.77764379378E+02 -0.10811625832E+03  0.64942260011E+03  0.66771637193E+03  0.79743437348E+02 0.  0.
        -11    1    3    3    0    0  0.14930998125E+02 -0.99723107098E+01 -0.57184982050E+03  0.57213162725E+03  0.00000000000E+00 0.  1.
         12    1    3    3    0    0 -0.83056870874E+02  0.37362548174E+02 -0.24737033559E+04  0.24753793036E+04  0.00000000000E+00 0. -1.
         13    1    5    5    0    0  0.54790977486E+02 -0.99021725676E+02  0.61510713129E+03  0.62543116034E+03  0.00000000000E+00 0. -1.
        -14    1    5    5    0    0  0.22973401892E+02 -0.90945326464E+01  0.34315468824E+02  0.42285211590E+02  0.00000000000E+00 0.  1.
          5    1    4    4  501    0 -0.22879317947E+02 -0.17977070281E+02 -0.18533734259E+03  0.18765404659E+03  0.41800000000E+01 0. -1.
         -5    1    4    4    0  501  0.13240811318E+02  0.98703091139E+02 -0.15964246662E+03  0.18820416795E+03  0.41800000000E+01 0. -1.
</event>
<event>
11    1  0.1078607E-008  0.1682641E+03  0.7561462E-02  0.1079552E+00
         22   -1    0    0    0    0  0.00000000000E+00  0.00000000000E+00  0.30626729776E+04  0.30626729776E+04  0.00000000000E+00 0. -1.
         22   -1    0    0    0    0 -0.00000000000E+00 -0.00000000000E+00 -0.10835983509E+03  0.10835983509E+03  0.00000000000E+00 0. -1.
        -24    2    1    2    0    0 -0.29860982605E+01  0.42523560465E+02 -0.54733769825E+02  0.10525122215E+03  0.79150895305E+02 0.  0.
         25    2    1    2    0    0  0.61290284373E+02 -0.13605966730E+03  0.32939048173E+03  0.38264155376E+03  0.12509091566E+03 0.  0.
         24    2    1    2    0    0 -0.58304186112E+02  0.93536106833E+02  0.26796564306E+04  0.26831400368E+04  0.80830003688E+02 0.  0.
        -13    1    5    5    0    0 -0.20195195211E+02  0.13728180288E+02  0.15301712265E+03  0.15495337578E+03  0.00000000000E+00 0.  1.
         14    1    5    5    0    0 -0.38108990901E+02  0.79807926545E+02  0.25266393080E+04  0.25281866610E+04  0.00000000000E+00 0. -1.
         11    1    3    3    0    0 -0.16260314312E+02  0.62901675553E+02 -0.45118289139E+02  0.79099169552E+02  0.00000000000E+00 0. -1.
        -12    1    3    3    0    0  0.13274216051E+02 -0.20378115088E+02 -0.96154806861E+01  0.26152052599E+02  0.00000000000E+00 0.  1.
          5    1    4    4  501    0  0.28763959103E+02 -0.87422598602E+02  0.30586744271E+03  0.31944082550E+03  0.41800000000E+01 0.  1.
         -5    1    4    4    0  501  0.32526325270E+02 -0.48637068696E+02  0.23523039029E+02  0.63200728256E+02  0.41800000000E+01 0.  1.
</event>
<event>
11    1  0.1078607E-008  0.2066916E+03  0.7561462E-02  0.1049890E+00
         22   -1    0    0    0    0  0.00000000000E+00  0.00000000000E+00  0.59478193384E+03  0.59478193384E+03  0.00000000000E+00 0.  1.
         22   -1    0    0    0    0 -0.00000000000E+00 -0.00000000000E+00 -0.22324098871E+04  0.22324098871E+04  0.00000000000E+00 0. -1.
         24    2    1    2    0    0 -0.16718309904E+03  0.13159886520E+02 -0.15806775616E+04  0.15916144170E+04  0.81064958798E+02 0.  0.
         25    2    1    2    0    0  0.14521566755E+03 -0.81351674797E+02 -0.62442226202E+03  0.65822263921E+03  0.12509275104E+03 0.  0.
        -24    2    1    2    0    0  0.21967431490E+02  0.68191788277E+02  0.56747187034E+03  0.57735476472E+03  0.78622596514E+02 0.  0.
        -13    1    3    3    0    0 -0.38685548093E+02  0.36434423668E+02 -0.58521433799E+03  0.58762220878E+03  0.00000000000E+00 0.  1.
         14    1    3    3    0    0 -0.12849755095E+03 -0.23274537148E+02 -0.99546322358E+03  0.10039922082E+04  0.00000000000E+00 0. -1.
         13    1    5    5    0    0  0.58161912119E+00  0.80984233126E+00 -0.26682797669E+01  0.28484807035E+01  0.00000000000E+00 0. -1.
        -14    1    5    5    0    0  0.21385812369E+02  0.67381945946E+02  0.57014015011E+03  0.57450628402E+03  0.00000000000E+00 0.  1.
          5    1    4    4  501    0  0.99451571942E+02 -0.13189134398E+02 -0.49364780667E+03  0.50375608965E+03  0.41800000000E+01 0. -1.
         -5    1    4    4    0  501  0.45764095607E+02 -0.68162540399E+02 -0.13077445536E+03  0.15446654956E+03  0.41800000000E+01 0. -1.
</event>
<event>
11    1  0.1078607E-008  0.1367628E+03  0.7561462E-02  0.1111228E+00
         22   -1    0    0    0    0  0.00000000000E+00  0.00000000000E+00  0.18566214412E+04  0.18566214412E+04  0.00000000000E+00 0. -1.
         22   -1    0    0    0    0 -0.00000000000E+00 -0.00000000000E+00 -0.14630743831E+03  0.14630743831E+03  0.00000000000E+00 0. -1.
        -24    2    1    2    0    0  0.98104475500E+01 -0.43646488363E+02 -0.12146592964E+03  0.15192881796E+03  0.79543276504E+02 0.  0.
         25    2    1    2    0    0  0.47523213478E+02  0.31765188968E+02  0.61858063491E+03  0.63368483466E+03  0.12508790806E+03 0.  0.
         24    2    1    2    0    0 -0.57333661028E+02  0.11881299395E+02  0.12131992976E+04  0.12173152268E+04  0.81089530224E+02 0.  0.
        -13    1    5    5    0    0 -0.45124775548E+02 -0.22242072722E+02  0.37840379701E+03  0.38173340011E+03  0.00000000000E+00 0.  1.
         14    1    5    5    0    0 -0.12208885480E+02  0.34123372117E+02  0.83479550056E+03  0.83558182673E+03  0.00000000000E+00 0. -1.
         11    1    3    3    0    0  0.31229717479E+02 -0.54676517244E+02 -0.10602451386E+03  0.12331266898E+03  0.00000000000E+00 0. -1.
        -12    1    3    3    0    0 -0.21419269929E+02  0.11030028881E+02 -0.15441415782E+02  0.28616148986E+02  0.00000000000E+00 0.  1.
          5    1    4    4  501    0 -0.19893199130E+02  0.60105060778E+02  0.25270880642E+03  0.26055243415E+03  0.41800000000E+01 0.  1.
         -5    1    4    4    0  501  0.67416412608E+02 -0.28339871810E+02  0.36587182850E+03  0.37313240051E+03  0.41800000000E+01 0.  1.
</event>
<event>
11    1  0.1078607E-008  0.1548671E+03  0.7561462E-02  0.1092007E+00
         22   -1    0    0    0    0  0.00000000000E+00  0.00000000000E+00  0.16841653340E+04  0.16841653340E+04  0.00000000000E+00 0. -1.
         22   -1    0    0    0    0 -0.00000000000E+00 -0.00000000000E+00 -0.11676108076E+04  0.11676108076E+04  0.00000000000E+00 0. -1.
         24    2    1    2    0    0  0.32742071205E+02 -0.23248747188E+02 -0.10963015667E+04  0.10999411429E+04  0.79880192485E+02 0.  0.
         25    2    1    2    0    0  0.31386223505E+01 -0.61879940981E+02  0.50845031141E+01  0.13968360270E+03  0.12508668452E+03 0.  0.
        -24    2    1    2    0    0 -0.35880693556E+02  0.85128688168E+02  0.16077715900E+04  0.16121513959E+04  0.74621176852E+02 0.  0.
        -11    1    3    3    0    0  0.19461396336E+02 -0.79044166491E+01 -0.62403339718E+02  0.65843773873E+02  0.00000000000E+00 0.  1.
         12    1    3    3    0    0  0.13280674870E+02 -0.15344330539E+02 -0.10338982270E+04  0.10340973690E+04  0.00000000000E+00 0. -1.
         13    1    5    5    0    0 -0.50871783694E+02  0.58982857440E+02  0.79142914581E+03  0.79525279546E+03  0.00000000000E+00 0. -1.
        -14    1    5    5    0    0  0.14991090138E+02  0.26145830729E+02  0.81634244420E+03  0.81689860047E+03  0.00000000000E+00 0.  1.
          5    1    4    4  501    0  0.49805409093E+02  0.10895810331E+02  0.12964842732E+02  0.52771744379E+02  0.41800000000E+01 0. -1.
         -5    1    4    4    0  501 -0.46666786743E+02 -0.72775751312E+02 -0.78803396175E+01  0.86911858319E+02  0.41800000000E+01 0. -1.
</event>
<event>
11    1  0.1078607E-008  0.1995752E+03  0.7561462E-02  0.1054824E+00
         22   -1    0    0    0    0  0.00000000000E+00  0.00000000000E+00  0.27576996325E+03  0.27576996325E+03  0.00000000000E+00 0. -1.
         22   -1    0    0    0    0 -0.00000000000E+00 -0.00000000000E+00 -0.70064252041E+03  0.70064252041E+03  0.00000000000E+00 0.  1.
         24    2    1    2    0    0  0.10119682691E+03 -0.11903679685E+03 -0.57605045492E+03  0.60256387533E+03  0.82695468181E+02 0.  0.
         25    2    1    2    0    0 -0.14055810011E+03  0.75261749792E+02  0.13401621105E+02  0.20309314589E+03  0.12508521882E+03 0.  0.
        -24    2    1    2    0    0  0.39361273207E+02  0.43775047060E+02  0.13777627666E+03  0.17075546244E+03  0.81911909812E+02 0.  0.
        -11    1    3    3    0    0  0.88280315029E+02 -0.10925445928E+03 -0.36819809588E+03  0.39408094181E+03  0.00000000000E+00 0.  1.
         12    1    3    3    0    0  0.12916511876E+02 -0.97823375768E+01 -0.20785235905E+03  0.20848293352E+03  0.00000000000E+00 0. -1.
         13    1    5    5    0    0  0.54696778225E+02  0.50687380373E+02  0.13424642028E+03  0.15356773566E+03  0.00000000000E+00 0. -1.
        -14    1    5    5    0    0 -0.15335505018E+02 -0.69123333135E+01  0.35298563874E+01  0.17187726787E+02  0.00000000000E+00 0.  1.
          5    1    4    4  501    0 -0.11318032269E+03  0.93055410212E+02  0.49048782824E+02  0.15457150549E+03  0.41800000000E+01 0. -1.
         -5    1    4    4    0  501 -0.27377777425E+02 -0.17793660420E+02 -0.35647161719E+02  0.48521640393E+02  0.41800000000E+01 0. -1.
</event>
<event>
11    1  0.1078607E-008  0.1529814E+03  0.7561462E-02  0.1093871E+00
         22   -1    0    0    0    0  0.00000000000E+00  0.00000000000E+00  0.44541522130E+03  0.44541522130E+03  0.00000000000E+00 0. -1.
         22   -1    0    0    0    0 -0.00000000000E+00 -0.00000000000E+00 -0.14653419910E+04  0.14653419910E+04  0.00000000000E+00 0. -1.
        -24    2    1    2    0    0  0.64938997347E+02 -0.59676898046E+02 -0.14253723037E+04  0.14302347640E+04  0.78146468620E+02 0.  0.
         25    2    1    2    0    0 -0.52613995675E+02  0.59574390720E+02  0.14295334393E+03  0.20591275082E+03  0.12508821623E+03 0.  0.
         24    2    1    2    0    0 -0.12325001672E+02  0.10250732593E+00  0.26249219009E+03  0.27460969742E+03  0.79727159018E+02 0.  0.
        -11    1    5    5    0    0 -0.42962170447E+02  0.11238670872E+02  0.10909416412E+03  0.11778621506E+03  0.00000000000E+00 0.  1.
         12    1    5    5    0    0  0.30637168774E+02 -0.11136163546E+02  0.15339802596E+03  0.15682348236E+03  0.00000000000E+00 0. -1.
         11    1    3    3    0    0  0.52443482398E+02 -0.37916127580E+02 -0.45930317162E+03  0.46383979458E+03  0.00000000000E+00 0. -1.
        -12    1    3    3    0    0  0.12495514949E+02 -0.21760770466E+02 -0.96606913209E+03  0.96639496946E+03  0.00000000000E+00 0.  1.
          5    1    4    4  501    0  0.27420282718E+02  0.43650608678E+01  0.91740076640E+02  0.95940813644E+02  0.41800000000E+01 0.  1.
         -5    1    4    4    0  501 -0.80034278393E+02  0.55209329852E+02  0.51213267292E+02  0.10997193718E+03  0.41800000000E+01 0.  1.
</event>
<event>
11    1  0.1078607E-008  0.1302190E+03  0.7561462E-02  0.1119000E+00
         22   -1    0    0    0    0  0.00000000000E+00  0.00000000000E+00  0.58990171569E+03  0.58990171569E+03  0.00000000000E+00 0.  1.
         22   -1    0    0    0    0 -0.00000000000E+00 -0.00000000000E+00 -0.12687641768E+03  0.12687641768E+03  0.00000000000E+00 0.  1.
        -24    2    1    2    0    0  0.22241248096E+02 -0.13515681334E+02 -0.80180201884E+02  0.11808318938E+03  0.82688742171E+02 0.  0.
         25    2    1    2    0    0 -0.46783060713E+00  0.42617905475E+02  0.17139409388E+03  0.21642233287E+03  0.12508471535E+03 0.  0.
         24    2    1    2    0    0 -0.21773417489E+02 -0.29102224141E+02  0.37181140601E+03  0.38227261112E+03  0.81040770089E+02 0.  0.
        -11    1    5    5    0    0 -0.97900027887E+01 -0.10867822499E+02  0.35345778861E+03  0.35376031724E+03  0.00000000000E+00 0.  1.
         12    1    5    5    0    0 -0.11983414700E+02 -0.18234401642E+02  0.18353617399E+02  0.28512293888E+02  0.00000000000E+00 0. -1.
         13    1    3    3    0    0 -0.11521567931E+02 -0.55715767073E+01  0.13250648244E+02  0.18421961716E+02  0.00000000000E+00 0. -1.
        -14    1    3    3    0    0  0.33762816027E+02 -0.79441046268E+01 -0.93430850128E+02  0.99661227666E+02  0.00000000000E+00 0.  1.
          5    1    4    4  501    0  0.26164847790E+02 -0.41018702204E+01  0.15877902571E+03  0.16102694186E+03  0.41800000000E+01 0.  1.
         -5    1    4    4    0  501 -0.26632678397E+02  0.46719775695E+02  0.12615068169E+02  0.55395391004E+02  0.41800000000E+01 0.  1.
</event>
<event>
11    1  0.1078607E-008  0.1429901E+03  0.7561462E-02  0.1104265E+00
         22   -1    0    0    0    0  0.00000000000E+00  0.00000000000E+00  0.48266780633E+02  0.48266780633E+02  0.00000000000E+00 0. -1.
         22   -1    0    0    0    0 -0.00000000000E+00 -0.00000000000E+00 -0.25072556568E+04  0.25072556568E+04  0.00000000000E+00 0. -1.
         24    2    1    2    0    0 -0.10045543725E+01  0.10889814253E+02 -0.21183341204E+04  0.21199624864E+04  0.82352298803E+02 0.  0.
         25    2    1    2    0    0  0.35623856322E+02 -0.67692355899E+02 -0.26092661582E+03  0.29930301652E+03  0.12509309600E+03 0.  0.
        -24    2    1    2    0    0 -0.34619301950E+02  0.56802541646E+02 -0.79728139960E+02  0.13625693448E+03  0.88228969657E+02 0.  0.
        -11    1    3    3    0    0 -0.31346252996E+02  0.10084415743E+02 -0.39775792786E+03  0.39911859415E+03  0.00000000000E+00 0.  1.
         12    1    3    3    0    0  0.30341698623E+02  0.80539850975E+00 -0.17205761925E+04  0.17208438923E+04  0.00000000000E+00 0. -1.
         11    1    5    5    0    0 -0.27508629916E+02  0.72292494189E+02 -0.28774425042E+02  0.82528158663E+02  0.00000000000E+00 0. -1.
        -12    1    5    5    0    0 -0.71106720333E+01 -0.15489952542E+02 -0.50953714918E+02  0.53728775814E+02  0.00000000000E+00 0.  1.
          5    1    4    4  501    0  0.45483149386E+02  0.22789075139E+02 -0.60624568771E+02  0.79251937279E+02  0.41800000000E+01 0.  1.
         -5    1    4    4    0  501 -0.98592930639E+01 -0.90481431038E+02 -0.20030204705E+03  0.22005107924E+03  0.41800000000E+01 0.  1.
</event>
<event>
11    1  0.1078607E-008  0.1333198E+03  0.7561462E-02  0.1115256E+00
         22   -1    0    0    0    0  0.00000000000E+00  0.00000000000E+00  0.11748635947E+03  0.11748635947E+03  0.00000000000E+00 0. -1.
         22   -1    0    0    0    0 -0.00000000000E+00 -0.00000000000E+00 -0.10457795703E+04  0.10457795703E+04  0.00000000000E+00 0.  1.
         24    2    1    2    0    0 -0.11426318559E+02 -0.19565173519E+02 -0.77702779748E+03  0.78161516801E+03  0.81466042188E+02 0.  0.
         25    2    1    2    0    0  0.56472510208E+02  0.20928575258E+02 -0.22437188459E+03  0.26385344076E+03  0.12509494768E+03 0.  0.
        -24    2    1    2    0    0 -0.45046191649E+02 -0.13634017385E+01  0.73106471279E+02  0.11779732097E+03  0.80626512008E+02 0.  0.
        -13    1    3    3    0    0 -0.43210416772E+02  0.14551361727E+01 -0.51775682150E+03  0.51955883569E+03  0.00000000000E+00 0.  1.
         14    1    3    3    0    0  0.31784098213E+02 -0.21020309692E+02 -0.25927097598E+03  0.26205633231E+03  0.00000000000E+00 0. -1.
         13    1    5    5    0    0 -0.44986785366E+02 -0.75330880858E+01  0.89405900001E+02  0.10036918466E+03  0.00000000000E+00 0. -1.
        -14    1    5    5    0    0 -0.59406282857E-01  0.61696863472E+01 -0.16299428722E+02  0.17428136314E+02  0.00000000000E+00 0.  1.
          5    1    4    4  501    0  0.37473223366E+02  0.50452841077E+02 -0.21926144787E+03  0.22812888147E+03  0.41800000000E+01 0.  1.
         -5    1    4    4    0  501  0.18999286842E+02 -0.29524265819E+02 -0.51104367230E+01  0.35724559286E+02  0.41800000000E+01 0.  1.
</event>
<event>
11    1  0.1078607E-008  0.1520732E+03  0.7561462E-02  0.1094779E+00
         22   -1    0    0    0    0  0.00000000000E+00  0.00000000000E+00  0.84208260129E+02  0.84208260129E+02  0.00000000000E+00 0. -1.
         22   -1    0    0    0    0 -0.00000000000E+00 -0.00000000000E+00 -0.20145095882E+04  0.20145095882E+04  0.00000000000E+00 0. -1.
         24    2    1    2    0    0  0.30916120768E+02 -0.61184657443E+02 -0.16514711518E+04  0.16548295142E+04  0.80027413867E+02 0.  0.
         25    2    1    2    0    0  0.50141479626E+02  0.92458650123E+02 -0.28158864553E+03  0.32557969036E+03  0.12508876656E+03 0.  0.
        -24    2    1    2    0    0 -0.81057600395E+02 -0.31273992680E+02  0.27584692791E+01  0.11830864377E+03  0.80255397559E+02 0.  0.
        -13    1    3    3    0    0 -0.16739651186E+02 -0.51808482795E+02 -0.69691711639E+03  0.69904062967E+03  0.00000000000E+00 0.  1.
         14    1    3    3    0    0  0.47655771954E+02 -0.93761746482E+01 -0.95455403542E+03  0.95578888453E+03  0.00000000000E+00 0. -1.
         13    1    5    5    0    0 -0.83051517807E+02 -0.23078783612E+02  0.28841661609E+02  0.90895689157E+02  0.00000000000E+00 0. -1.
        -14    1    5    5    0    0  0.19939174120E+01 -0.81952090680E+01 -0.26083192330E+02  0.27412954610E+02  0.00000000000E+00 0.  1.
          5    1    4    4  501    0 -0.27538066571E+02  0.58653016570E+02 -0.18981068583E+03  0.20060929768E+03  0.41800000000E+01 0. -1.
         -5    1    4    4    0  501  0.77679546197E+02  0.33805633552E+02 -0.91777959707E+02  0.12497039267E+03  0.41800000000E+01 0. -1.
</event>
<event>
11    1  0.1078607E-008  0.1470269E+03  0.7561462E-02  0.1099956E+00
         22   -1    0    0    0    0  0.00000000000E+00  0.00000000000E+00  0.40383160637E+03  0.40383160637E+03  0.00000000000E+00 0. -1.
         22   -1    0    0    0    0 -0.00000000000E+00 -0.00000000000E+00 -0.61623448017E+03  0.61623448017E+03  0.00000000000E+00 0.  1.
         24    2    1    2    0    0  0.65125497361E+00 -0.15592466154E+02 -0.54497171970E+03  0.55075326561E+03  0.78047646785E+02 0.  0.
         25    2    1    2    0    0 -0.44928639080E+02  0.76516194457E+02  0.42937526667E+02  0.15926040893E+03  0.12508771336E+03 0.  0.
        -24    2    1    2    0    0  0.44277384107E+02 -0.60923728303E+02  0.28963131924E+03  0.31005241201E+03  0.81080266981E+02 0.  0.
        -13    1    3    3    0    0 -0.38567133663E+02 -0.10633040577E+02 -0.28442410127E+03  0.28722387563E+03  0.00000000000E+00 0.  1.
         14    1    3    3    0    0  0.39218388637E+02 -0.49594255768E+01 -0.26054761843E+03  0.26352938998E+03  0.00000000000E+00 0. -1.
         11    1    5    5    0    0  0.42199834422E+02  0.55613648962E+01  0.88431464356E+02  0.98142135156E+02  0.00000000000E+00 0. -1.
        -12    1    5    5    0    0  0.20775496843E+01 -0.66485093199E+02  0.20119985488E+03  0.21191027685E+03  0.00000000000E+00 0.  1.
          5    1    4    4  501    0  0.36582959239E+02  0.78840014698E+01  0.36475547128E+02  0.52425264178E+02  0.41800000000E+01 0. -1.
         -5    1    4    4    0  501 -0.81511598319E+02  0.68632192987E+02  0.64619795382E+01  0.10683514475E+03  0.41800000000E+01 0. -1.
</event>
<event>
11    1  0.1078607E-008  0.2319098E+03  0.7561462E-02  0.1034003E+00
         22   -1    0    0    0    0  0.00000000000E+00  0.00000000000E+00  0.69509104936E+03  0.69509104936E+03  0.00000000000E+00 0.  1.
         22   -1    0    0    0    0 -0.00000000000E+00 -0.00000000000E+00 -0.71739602467E+03  0.71739602467E+03  0.00000000000E+00 0.  1.
        -24    2    1    2    0    0  0.13500237934E+03 -0.92622978656E+02 -0.53741600654E+03  0.56644741667E+03  0.72402024546E+02 0.  0.
         25    2    1    2    0    0 -0.24980703765E+03 -0.63213033971E+02 -0.37186517504E+01  0.28646443299E+03  0.12509436148E+03 0.  0.
         24    2    1    2    0    0  0.11480465831E+03  0.15583601263E+03  0.51882968298E+03  0.55957522438E+03  0.80468747931E+02 0.  0.
        -13    1    5    5    0    0  0.54136660265E+02  0.75214416790E+02  0.35730061542E+03  0.36912290129E+03  0.00000000000E+00 0.  1.
         14    1    5    5    0    0  0.60667998041E+02  0.80621595837E+02  0.16152906756E+03  0.19045232309E+03  0.00000000000E+00 0. -1.
         13    1    3    3    0    0  0.20817126242E+02 -0.28828809459E+02 -0.22444221006E+03  0.22724163055E+03  0.00000000000E+00 0. -1.
        -14    1    3    3    0    0  0.11418525310E+03 -0.63794169197E+02 -0.31297379648E+03  0.33920578612E+03  0.00000000000E+00 0.  1.
          5    1    4    4  501    0 -0.24124654962E+03 -0.88053483583E+02 -0.15613379319E+02  0.25732190674E+03  0.41800000000E+01 0.  1.
         -5    1    4    4    0  501 -0.85604880274E+01  0.24840449613E+02  0.11894727568E+02  0.29142526249E+02  0.41800000000E+01 0.  1.
</event>
<event>
11    1  0.1078607E-008  0.1458741E+03  0.7561462E-02  0.1101171E+00
         22   -1    0    0    0    0  0.00000000000E+00  0.00000000000E+00  0.90403364134E+02  0.90403364134E+02  0.00000000000E+00 0.  1.
         22   -1    0    0    0    0 -0.00000000000E+00 -0.00000000000E+00 -0.11968162009E+04  0.11968162009E+04  0.00000000000E+00 0. -1.
         24    2    1    2    0    0 -0.32551640746E+02  0.11616709476E+01 -0.92438316267E+03  0.92831825795E+03  0.78927801386E+02 0.  0.
         25    2    1    2    0    0 -0.47430605850E+02 -0.12033019949E+02 -0.20240241690E+03  0.24291537742E+03  0.12508671503E+03 0.  0.
        -24    2    1    2    0    0  0.79982246596E+02  0.10871349001E+02  0.20372742777E+02  0.11598592969E+03  0.80761013107E+02 0.  0.
        -11    1    3    3    0    0  0.13377155737E+02 -0.27837477088E+02 -0.36476917556E+03  0.36607434335E+03  0.00000000000E+00 0.  1.
         12    1    3    3    0    0 -0.45928796483E+02  0.28999148035E+02 -0.55961398711E+03  0.56224391460E+03  0.00000000000E+00 0. -1.
         13    1    5    5    0    0  0.69423063400E+02  0.20679506313E+02 -0.18301470844E+02  0.74713770807E+02  0.00000000000E+00 0. -1.
        -14    1    5    5    0    0  0.10559183196E+02 -0.98081573115E+01  0.38674213621E+02  0.41272158882E+02  0.00000000000E+00 0.  1.
          5    1    4    4  501    0 -0.59762955397E+02  0.41412073446E+02 -0.77039827034E+02  0.10601498957E+03  0.41800000000E+01 0. -1.
         -5    1    4    4    0  501  0.12332349547E+02 -0.53445093395E+02 -0.12536258987E+03  0.13690038784E+03  0.41800000000E+01 0. -1.
</event>
<event>
11    1  0.1078607E-008  0.1475061E+03  0.7561462E-02  0.1099455E+00
         22   -1    0    0    0    0  0.00000000000E+00  0.00000000000E+00  0.71782223640E+03  0.71782223640E+03  0.00000000000E+00 0. -1.
         22   -1    0    0    0    0 -0.00000000000E+00 -0.00000000000E+00 -0.92302470986E+03  0.92302470986E+03  0.00000000000E+00 0. -1.
         24    2    1    2    0    0  0.77202288746E+01 -0.59464624851E+02 -0.55353303886E+03  0.56255771357E+03  0.80478024580E+02 0.  0.
         25    2    1    2    0    0 -0.60629919089E+02  0.12890506469E+01 -0.34715158749E+03  0.37395132218E+03  0.12509083868E+03 0.  0.
        -24    2    1    2    0    0  0.52909690214E+02  0.58175574204E+02  0.69548215289E+03  0.70433791051E+03  0.78820266661E+02 0.  0.
        -11    1    3    3    0    0 -0.27560695690E+02 -0.19301256309E+02 -0.92386959215E+02  0.98323347558E+02  0.00000000000E+00 0.  1.
         12    1    3    3    0    0  0.35280924564E+02 -0.40163368542E+02 -0.46114607965E+03  0.46423436601E+03  0.00000000000E+00 0. -1.
         11    1    5    5    0    0  0.34224834712E+02  0.67411985657E+02  0.64909725692E+03  0.65348524395E+03  0.00000000000E+00 0. -1.
        -12    1    5    5    0    0  0.18684855503E+02 -0.92364114531E+01  0.46384895972E+02  0.50852666558E+02  0.00000000000E+00 0.  1.
          5    1    4    4  501    0 -0.29754003544E+02  0.42686064906E+02 -0.29798970299E+03  0.30252724895E+03  0.41800000000E+01 0. -1.
         -5    1    4    4    0  501 -0.30875915545E+02 -0.41397014259E+02 -0.49161884500E+02  0.71424073238E+02  0.41800000000E+01 0. -1.
</event>
<event>
11    1  0.1078607E-008  0.1621823E+03  0.7561462E-02  0.1085043E+00
         22   -1    0    0    0    0  0.00000000000E+00  0.00000000000E+00  0.54569002632E+03  0.54569002632E+03  0.00000000000E+00 0.  1.
         22   -1    0    0    0    0 -0.00000000000E+00 -0.00000000000E+00 -0.81599345643E+03  0.81599345643E+03  0.00000000000E+00 0. -1.
         24    2    1    2    0    0  0.28363688779E+02 -0.40134647820E+01 -0.74321757236E+03  0.74827528729E+03  0.81993529971E+02 0.  0.
         25    2    1    2    0    0  0.69438571217E+02 -0.39617812282E+02  0.30911861984E+02  0.15163956921E+03  0.12509088503E+03 0.  0.
        -24    2    1    2    0    0 -0.97802259997E+02  0.43631277064E+02  0.44200228026E+03  0.46176862625E+03  0.79970482253E+02 0.  0.
        -13    1    3    3    0    0  0.30501213605E+02 -0.22281749368E+02 -0.14704569134E+03  0.15181974749E+03  0.00000000000E+00 0.  1.
         14    1    3    3    0    0 -0.21375248253E+01  0.18268284586E+02 -0.59617188103E+03  0.59645553980E+03  0.00000000000E+00 0. -1.
         11    1    5    5    0    0 -0.46996069927E+02  0.44921563207E+02  0.12679591322E+03  0.14249133671E+03  0.00000000000E+00 0. -1.
        -12    1    5    5    0    0 -0.50806190069E+02 -0.12902861436E+01  0.31520636704E+03  0.31927728954E+03  0.00000000000E+00 0.  1.
          5    1    4    4  501    0  0.19668294033E+02  0.44684517890E+02  0.36478195983E+00  0.49001565231E+02  0.41800000000E+01 0. -1.
         -5    1    4    4    0  501  0.49770277184E+02 -0.84302330171E+02  0.30547080024E+02  0.10263800398E+03  0.41800000000E+01 0. -1.
</event>
<event>
11    1  0.1078607E-008  0.1432062E+03  0.7561462E-02  0.1104030E+00
         22   -1    0    0    0    0  0.00000000000E+00  0.00000000000E+00  0.21207641814E+03  0.21207641814E+03  0.00000000000E+00 0. -1.
         22   -1    0    0    0    0 -0.00000000000E+00 -0.00000000000E+00 -0.55273874498E+03  0.55273874498E+03  0.00000000000E+00 0. -1.
         24    2    1    2    0    0  0.39668048630E+02 -0.16691237507E+01 -0.33655658850E+03  0.34825577747E+03  0.80221002392E+02 0.  0.
         25    2    1    2    0    0 -0.49226399190E+01  0.63589389848E+02 -0.16884344589E+03  0.21961011086E+03  0.12511054586E+03 0.  0.
        -24    2    1    2    0    0 -0.34745408711E+02 -0.61920266098E+02  0.16473770755E+03  0.19694927478E+03  0.81296628270E+02 0.  0.
        -13    1    3    3    0    0  0.85764063311E+01 -0.77362359078E+01 -0.14333609007E+01  0.11638668955E+02  0.00000000000E+00 0.  1.
         14    1    3    3    0    0  0.31091642299E+02  0.60671121571E+01 -0.33512322760E+03  0.33661710852E+03  0.00000000000E+00 0. -1.
         11    1    5    5    0    0 -0.36296671163E+02 -0.76718325338E+02  0.16036829080E+03  0.18144183221E+03  0.00000000000E+00 0. -1.
        -12    1    5    5    0    0  0.15512624518E+01  0.14798059241E+02  0.43694167497E+01  0.15507442575E+02  0.00000000000E+00 0.  1.
          5    1    4    4  501    0 -0.36363775322E+02  0.54510781857E+01  0.13020477069E+01  0.37029800665E+02  0.41800000000E+01 0. -1.
         -5    1    4    4    0  501  0.31441135403E+02  0.58138311663E+02 -0.17014549360E+03  0.18258031019E+03  0.41800000000E+01 0. -1.
</event>
<event>
11    1  0.1078607E-008  0.3332874E+03  0.7561462E-02  0.9870110E-01
         22   -1    0    0    0    0  0.00000000000E+00  0.00000000000E+00  0.73345415509E+03  0.73345415509E+03  0.00000000000E+00 0.  1.
         22   -1    0    0    0    0 -0.00000000000E+00 -0.00000000000E+00 -0.34443266729E+03  0.34443266729E+03  0.00000000000E+00 0. -1.
         24    2    1    2    0    0 -0.31089681490E+03 -0.11624229071E+03 -0.12336277828E+03  0.36026536245E+03  0.66360053100E+02 0.  0.
         25    2    1    2    0    0  0.27405982237E+03 -0.24998477190E+02  0.19639248778E+03  0.36049017664E+03  0.12509775417E+03 0.  0.
        -24    2    1    2    0    0  0.36836992537E+02  0.14124076790E+03  0.31599177830E+03  0.35713128330E+03  0.79912646196E+02 0.  0.
        -13    1    3    3    0    0 -0.32945188622E+02 -0.35946498724E+02 -0.24123404905E+02  0.54401055946E+02  0.00000000000E+00 0.  1.
         14    1    3    3    0    0 -0.27795162628E+03 -0.80295791982E+02 -0.99239373376E+02  0.30586430650E+03  0.00000000000E+00 0. -1.
         11    1    5    5    0    0  0.10037525962E+02  0.27642803238E+02  0.12472788750E+02  0.31944435470E+02  0.00000000000E+00 0. -1.
        -12    1    5    5    0    0  0.26799466575E+02  0.11359796466E+03  0.30351898955E+03  0.32518684783E+03  0.00000000000E+00 0.  1.
          5    1    4    4  501    0  0.81794174087E+02  0.21819961773E+02  0.12303818136E+03  0.14940637241E+03  0.41800000000E+01 0. -1.
         -5    1    4    4    0  501  0.19226564828E+03 -0.46818438963E+02  0.73354306421E+02  0.21108380422E+03  0.41800000000E+01 0. -1.
</event>
<event>
11    1  0.1078607E-008  0.1484317E+03  0.7561462E-02  0.1098492E+00
         22   -1    0    0    0    0  0.00000000000E+00  0.00000000000E+00  0.15010860005E+04  0.15010860005E+04  0.00000000000E+00 0. -1.
         22   -1    0    0    0    0 -0.00000000000E+00 -0.00000000000E+00 -0.36146253743E+03  0.36146253743E+03  0.00000000000E+00 0. -1.
         24    2    1    2    0    0 -0.66675965380E+02  0.38421083286E+02 -0.30035136682E+03  0.31864328786E+03  0.73489709109E+02 0.  0.
         25    2    1    2    0    0  0.11353780389E+03 -0.70762423529E+02  0.11792429114E+03  0.21784056561E+03  0.12510083968E+03 0.  0.
        -24    2    1    2    0    0 -0.46861838514E+02  0.32341340243E+02  0.13220505387E+04  0.13260646844E+04  0.85953046376E+02 0.  0.
        -11    1    3    3    0    0 -0.57433149875E+02  0.19062563702E+02 -0.98138671890E+02  0.11529591042E+03  0.00000000000E+00 0.  1.
         12    1    3    3    0    0 -0.92428155050E+01  0.19358519583E+02 -0.20221269493E+03  0.20334737744E+03  0.00000000000E+00 0. -1.
         11    1    5    5    0    0  0.16655604286E+02 -0.12521843461E+02  0.47352356700E+03  0.47398182900E+03  0.00000000000E+00 0. -1.
        -12    1    5    5    0    0 -0.63517442800E+02  0.44863183704E+02  0.84852697173E+03  0.85208285545E+03  0.00000000000E+00 0.  1.
          5    1    4    4  501    0 -0.17150166783E+02  0.13777760128E+02 -0.20984038247E+00  0.22393555497E+02  0.41800000000E+01 0.  1.
         -5    1    4    4    0  501  0.13068797068E+03 -0.84540183657E+02  0.11813413152E+03  0.19544701011E+03  0.41800000000E+01 0.  1.
</event>
<event>
11    1  0.1078607E-008  0.4636921E+03  0.7561462E-02  0.9478525E-01
         22   -1    0    0    0    0  0.00000000000E+00  0.00000000000E+00  0.18507530750E+04  0.18507530750E+04  0.00000000000E+00 0. -1.
         22   -1    0    0    0    0 -0.00000000000E+00 -0.00000000000E+00 -0.81567573803E+03  0.81567573803E+03  0.00000000000E+00 0. -1.
        -24    2    1    2    0    0  0.25334053274E+03 -0.17049595665E+03 -0.42049142503E+03  0.52577645012E+03  0.79859502928E+02 0.  0.
         25    2    1    2    0    0  0.17343808627E+03  0.34767739910E+03 -0.17490654075E+03  0.44406947303E+03  0.12508019532E+03 0.  0.
         24    2    1    2    0    0 -0.42677861900E+03 -0.17718144245E+03  0.16304753028E+04  0.16965828899E+04  0.80065824228E+02 0.  0.
        -11    1    5    5    0    0 -0.23624774785E+03 -0.11978759454E+03  0.10522116864E+04  0.10850398606E+04  0.00000000000E+00 0.  1.
         12    1    5    5    0    0 -0.19053087116E+03 -0.57393847914E+02  0.57826361644E+03  0.61154302934E+03  0.00000000000E+00 0. -1.
         11    1    3    3    0    0  0.22996354827E+03 -0.12475002229E+03 -0.37444605204E+03  0.45678840559E+03  0.00000000000E+00 0. -1.
        -12    1    3    3    0    0  0.23376984471E+02 -0.45745934360E+02 -0.46045372991E+02  0.68988044524E+02  0.00000000000E+00 0.  1.
          5    1    4    4  501    0  0.48191381278E+02  0.16921588554E+03 -0.21177359173E+02  0.17726358366E+03  0.41800000000E+01 0.  1.
         -5    1    4    4    0  501  0.12524670499E+03  0.17846151356E+03 -0.15372918158E+03  0.26680588937E+03  0.41800000000E+01 0.  1.
</event>
<event>
11    1  0.1078607E-008  0.3103364E+03  0.7561462E-02  0.9959091E-01
         22   -1    0    0    0    0  0.00000000000E+00  0.00000000000E+00  0.48027129200E+03  0.48027129200E+03  0.00000000000E+00 0.  1.
         22   -1    0    0    0    0 -0.00000000000E+00 -0.00000000000E+00 -0.10979594826E+04  0.10979594826E+04  0.00000000000E+00 0. -1.
         24    2    1    2    0    0  0.28642583688E+03  0.81622469371E+02 -0.79340281047E+03  0.85129093823E+03  0.80661355747E+02 0.  0.
         25    2    1    2    0    0 -0.23858044709E+03 -0.73267543594E+02 -0.19749375495E+03  0.34196070010E+03  0.12507827345E+03 0.  0.
        -24    2    1    2    0    0 -0.47845389788E+02 -0.83549257773E+01  0.37320837481E+03  0.38497913629E+03  0.81027515342E+02 0.  0.
        -11    1    3    3    0    0  0.20917800877E+02 -0.48948098580E+01 -0.12607004702E+03  0.12788733445E+03  0.00000000000E+00 0.  1.
         12    1    3    3    0    0  0.26550803600E+03  0.86517279229E+02 -0.66733276345E+03  0.72340360378E+03  0.00000000000E+00 0. -1.
         13    1    5    5    0    0  0.11122723376E+02 -0.27444474074E+02  0.16889135856E+03  0.17146779619E+03  0.00000000000E+00 0. -1.
        -14    1    5    5    0    0 -0.58968113164E+02  0.19089548297E+02  0.20431701624E+03  0.21351134010E+03  0.00000000000E+00 0.  1.
          5    1    4    4  501    0 -0.50726862968E+02 -0.45265734196E+02 -0.26148735568E+00  0.68115652346E+02  0.41800000000E+01 0. -1.
         -5    1    4    4    0  501 -0.18785358412E+03 -0.28001809398E+02 -0.19723226760E+03  0.27384504775E+03  0.41800000000E+01 0. -1.
</event>
<event>
11    1  0.1078607E-008  0.1426268E+03  0.7561462E-02  0.1104660E+00
         22   -1    0    0    0    0  0.00000000000E+00  0.00000000000E+00  0.10744564919E+04  0.10744564919E+04  0.00000000000E+00 0.  1.
         22   -1    0    0    0    0 -0.00000000000E+00 -0.00000000000E+00 -0.11806693676E+03  0.11806693676E+03  0.00000000000E+00 0.  1.
        -24    2    1    2    0    0 -0.40413210725E+02 -0.50650802458E+02 -0.56092757129E+02  0.11852517542E+03  0.81872391049E+02 0.  0.
         25    2    1    2    0    0  0.10249415084E+03  0.36506404930E+02  0.23728709744E+03  0.28946559936E+03  0.12508956010E+03 0.  0.
         24    2    1    2    0    0 -0.62080940119E+02  0.14144397527E+02  0.77519521480E+03  0.78453265385E+03  0.10251710492E+03 0.  0.
        -11    1    5    5    0    0 -0.62177207707E+02 -0.11070845033E+02  0.73042222392E+03  0.73314745718E+03  0.00000000000E+00 0.  1.
         12    1    5    5    0    0  0.96267587629E-01  0.25215242560E+02  0.44772990878E+02  0.51385196671E+02  0.00000000000E+00 0. -1.
         13    1    3    3    0    0 -0.25410678229E+02 -0.53798417963E+02  0.90246553007E+00  0.59504510647E+02  0.00000000000E+00 0. -1.
        -14    1    3    3    0    0 -0.15002532496E+02  0.31476155050E+01 -0.56995222659E+02  0.59020664776E+02  0.00000000000E+00 0.  1.
          5    1    4    4  501    0  0.73178045692E+02 -0.21844029027E+02  0.20006267699E+03  0.21418388152E+03  0.41800000000E+01 0. -1.
         -5    1    4    4    0  501  0.29316105152E+02  0.58350433957E+02  0.37224420441E+02  0.75281717843E+02  0.41800000000E+01 0. -1.
</event>
<event>
11    1  0.1078607E-008  0.1604595E+03  0.7561462E-02  0.1086646E+00
         22   -1    0    0    0    0  0.00000000000E+00  0.00000000000E+00  0.16421101434E+04  0.16421101434E+04  0.00000000000E+00 0. -1.
         22   -1    0    0    0    0 -0.00000000000E+00 -0.00000000000E+00 -0.89592464998E+02  0.89592464998E+02  0.00000000000E+00 0. -1.
        -24    2    1    2    0    0  0.12093851101E+02 -0.80703419919E+02 -0.29096380639E+02  0.11491144705E+03  0.75489986586E+02 0.  0.
         25    2    1    2    0    0 -0.10565190387E+03  0.34287256232E+02  0.49074173057E+03  0.51847232981E+03  0.12509264536E+03 0.  0.
         24    2    1    2    0    0  0.93558052768E+02  0.46416163687E+02  0.10908723284E+04  0.10983188315E+04  0.73445552703E+02 0.  0.
        -13    1    5    5    0    0 -0.29210795815E+01  0.16579746088E+02  0.37280962259E+03  0.37318954350E+03  0.00000000000E+00 0.  1.
         14    1    5    5    0    0  0.96479132349E+02  0.29836417599E+02  0.71806270584E+03  0.72512928799E+03  0.00000000000E+00 0. -1.
         11    1    3    3    0    0  0.37938345323E+02 -0.15883799341E+02 -0.14569096981E+02  0.43633378442E+02  0.00000000000E+00 0. -1.
        -12    1    3    3    0    0 -0.25844494222E+02 -0.64819620578E+02 -0.14527283658E+02  0.71278068605E+02  0.00000000000E+00 0.  1.
          5    1    4    4  501    0 -0.94175702167E+02  0.72904335690E+02  0.42375362193E+03  0.44019167364E+03  0.41800000000E+01 0.  1.
         -5    1    4    4    0  501 -0.11476201701E+02 -0.38617079457E+02  0.66988108643E+02  0.78280656173E+02  0.41800000000E+01 0.  1.
</event>
<event>
11    1  0.1078607E-008  0.1357203E+03  0.7561462E-02  0.1112434E+00
         22   -1    0    0    0    0  0.00000000000E+00  0.00000000000E+00  0.50645820206E+03  0.50645820206E+03  0.00000000000E+00 0. -1.
         22   -1    0    0    0    0 -0.00000000000E+00 -0.00000000000E+00 -0.12038286487E+04  0.12038286487E+04  0.00000000000E+00 0. -1.
        -24    2    1    2    0    0  0.32878966183E+01  0.18737842696E+02 -0.11095423027E+04  0.11124991074E+04  0.78792292906E+02 0.  0.
         25    2    1    2    0    0 -0.50766660284E+02 -0.40003455041E+02 -0.31058913638E+02  0.14419672084E+03  0.12510199029E+03 0.  0.
         24    2    1    2    0    0  0.47478763665E+02  0.21265612345E+02  0.44323076973E+03  0.45359102251E+03  0.81147034433E+02 0.  0.
        -13    1    5    5    0    0 -0.13247349088E+02 -0.27047716727E+00  0.13000559632E+02  0.18562865256E+02  0.00000000000E+00 0.  1.
         14    1    5    5    0    0  0.60726112754E+02  0.21536089512E+02  0.43023021009E+03  0.43502815725E+03  0.00000000000E+00 0. -1.
         13    1    3    3    0    0 -0.14657472723E+02  0.22231302774E+02 -0.10470223223E+04  0.10473608814E+04  0.00000000000E+00 0. -1.
        -14    1    3    3    0    0  0.17945369341E+02 -0.34934600774E+01 -0.62519980345E+02  0.65138226000E+02  0.00000000000E+00 0.  1.
          5    1    4    4  501    0  0.16004603253E+02 -0.40557582790E+02 -0.57477975298E+02  0.72265170666E+02  0.41800000000E+01 0.  1.
         -5    1    4    4    0  501 -0.66771263536E+02  0.55412774855E+00  0.26419061660E+02  0.71931550176E+02  0.41800000000E+01 0.  1.
</event>
<event>
11    1  0.1078607E-008  0.1286997E+03  0.7561462E-02  0.1120877E+00
         22   -1    0    0    0    0  0.00000000000E+00  0.00000000000E+00  0.16781344208E+04  0.16781344208E+04  0.00000000000E+00 0. -1.
         22   -1    0    0    0    0 -0.00000000000E+00 -0.00000000000E+00 -0.89565564679E+02  0.89565564679E+02  0.00000000000E+00 0. -1.
        -24    2    1    2    0    0 -0.28180261863E+01  0.29772909091E+02 -0.59659979777E+02  0.10310993046E+03  0.78600109324E+02 0.  0.
         25    2    1    2    0    0  0.13037879684E+02 -0.38882986403E+02  0.66396872247E+03  0.67689479614E+03  0.12510087005E+03 0.  0.
         24    2    1    2    0    0 -0.10219853498E+02  0.91100773117E+01  0.98426011346E+03  0.98769525891E+03  0.81157344718E+02 0.  0.
        -13    1    5    5    0    0  0.20022346973E+02 -0.11097252908E+02  0.77214872024E+03  0.77248798668E+03  0.00000000000E+00 0.  1.
         14    1    5    5    0    0 -0.30242200471E+02  0.20207330220E+02  0.21211139322E+03  0.21520727223E+03  0.00000000000E+00 0. -1.
         13    1    3    3    0    0 -0.28001622919E+02 -0.59116175523E+00 -0.57075066020E+02  0.63576752980E+02  0.00000000000E+00 0. -1.
        -14    1    3    3    0    0  0.25183596733E+02  0.30364070847E+02 -0.25849137573E+01  0.39533177483E+02  0.00000000000E+00 0.  1.
          5    1    4    4  501    0 -0.40778422465E+02  0.24682980710E+02  0.26830955109E+03  0.27254287164E+03  0.41800000000E+01 0.  1.
         -5    1    4    4    0  501  0.53816302150E+02 -0.63565967113E+02  0.39565917139E+03  0.40435192451E+03  0.41800000000E+01 0.  1.
</event>
<event>
11    1  0.1078607E-008  0.1409872E+03  0.7561462E-02  0.1106461E+00
         22   -1    0    0    0    0  0.00000000000E+00  0.00000000000E+00  0.25243034472E+03  0.25243034472E+03  0.00000000000E+00 0. -1.
         22   -1    0    0    0    0 -0.00000000000E+00 -0.00000000000E+00 -0.37079329287E+03  0.37079329287E+03  0.00000000000E+00 0.  1.
         24    2    1    2    0    0  0.55945635193E+02  0.25475629448E+02 -0.23135373567E+03  0.25234345423E+03  0.79835744447E+02 0.  0.
         25    2    1    2    0    0 -0.59037189906E+02 -0.63487038281E+02 -0.70521265446E+02  0.16773949614E+03  0.12508915166E+03 0.  0.
        -24    2    1    2    0    0  0.30915547129E+01  0.38011408833E+02  0.18351205296E+03  0.20314068722E+03  0.78326498146E+02 0.  0.
        -13    1    3    3    0    0  0.76710547741E+02  0.19596192170E+02 -0.18073608163E+03  0.19731713075E+03  0.00000000000E+00 0.  1.
         14    1    3    3    0    0 -0.20764912548E+02  0.58794372783E+01 -0.50617654035E+02  0.55026323481E+02  0.00000000000E+00 0. -1.
         11    1    5    5    0    0  0.10716652130E+02  0.60011841660E+02  0.15345161308E+03  0.16511712610E+03  0.00000000000E+00 0. -1.
        -12    1    5    5    0    0 -0.76250974167E+01 -0.22000432827E+02  0.30060439873E+02  0.38023561124E+02  0.00000000000E+00 0.  1.
          5    1    4    4  501    0 -0.18844661011E+02 -0.97361524593E+02 -0.50208175180E+02  0.11123273338E+03  0.41800000000E+01 0. -1.
         -5    1    4    4    0  501 -0.40192528895E+02  0.33874486311E+02 -0.20313090266E+02  0.56506762763E+02  0.41800000000E+01 0. -1.
</event>
<event>
11    1  0.1078607E-008  0.1538501E+03  0.7561462E-02  0.1093008E+00
         22   -1    0    0    0    0  0.00000000000E+00  0.00000000000E+00  0.13124588791E+03  0.13124588791E+03  0.00000000000E+00 0.  1.
         22   -1    0    0    0    0 -0.00000000000E+00 -0.00000000000E+00 -0.11765846160E+04  0.11765846160E+04  0.00000000000E+00 0. -1.
        -24    2    1    2    0    0 -0.43215791930E+02 -0.49859592340E+01 -0.40450851813E+03  0.41478483487E+03  0.80788944409E+02 0.  0.
         25    2    1    2    0    0  0.72506521808E+02  0.88792572648E+02 -0.72583923635E+03  0.74540701626E+03  0.12509079181E+03 0.  0.
         24    2    1    2    0    0 -0.29290729878E+02 -0.83806613414E+02  0.85009026362E+02  0.14763865280E+03  0.81787174601E+02 0.  0.
        -13    1    5    5    0    0 -0.57430848519E+02 -0.52192892968E+02  0.62865335193E+02  0.99872172335E+02  0.00000000000E+00 0.  1.
         14    1    5    5    0    0  0.28140118641E+02 -0.31613720446E+02  0.22143691169E+02  0.47766480466E+02  0.00000000000E+00 0. -1.
         11    1    3    3    0    0 -0.52413875341E+02 -0.18374943804E+02 -0.38674889186E+03  0.39071672378E+03  0.00000000000E+00 0. -1.
        -12    1    3    3    0    0  0.91980834110E+01  0.13388984570E+02 -0.17759626273E+02  0.24068111093E+02  0.00000000000E+00 0.  1.
          5    1    4    4  501    0  0.55254706094E+02 -0.29358455113E+01 -0.46578235889E+03  0.46907609190E+03  0.41800000000E+01 0.  1.
         -5    1    4    4    0  501  0.17251815714E+02  0.91728418159E+02 -0.26005687746E+03  0.27633092436E+03  0.41800000000E+01 0.  1.
</event>
<event>
11    1  0.1078607E-008  0.1525679E+03  0.7561462E-02  0.1094283E+00
         22   -1    0    0    0    0  0.00000000000E+00  0.00000000000E+00  0.10725620216E+03  0.10725620216E+03  0.00000000000E+00 0.  1.
         22   -1    0    0    0    0 -0.00000000000E+00 -0.00000000000E+00 -0.75839071822E+03  0.75839071822E+03  0.00000000000E+00 0. -1.
        -24    2    1    2    0    0 -0.21953681906E+02 -0.80606564514E+02 -0.55322200101E+03  0.56529065116E+03  0.80743764403E+02 0.  0.
         25    2    1    2    0    0  0.68139666498E+02 -0.20331895551E+02 -0.72667308150E+02  0.16119292616E+03  0.12508485777E+03 0.  0.
         24    2    1    2    0    0 -0.46185984592E+02  0.10093846006E+03 -0.25245206895E+02  0.13916334306E+03  0.80046222198E+02 0.  0.
        -11    1    5    5    0    0 -0.49177912315E+02  0.94302366546E+02  0.65392889745E+01  0.10655592755E+03  0.00000000000E+00 0.  1.
         12    1    5    5    0    0  0.29919277231E+01  0.66360935186E+01 -0.31784495870E+02  0.32607415512E+02  0.00000000000E+00 0. -1.
         13    1    3    3    0    0 -0.36070980056E+02 -0.76270492436E+02 -0.53601807982E+03  0.54261743938E+03  0.00000000000E+00 0. -1.
        -14    1    3    3    0    0  0.14117298151E+02 -0.43360720771E+01 -0.17203921187E+02  0.22673211778E+02  0.00000000000E+00 0.  1.
          5    1    4    4  501    0  0.89080830370E+02 -0.37091845921E+02 -0.87441532760E+02  0.13028696567E+03  0.41800000000E+01 0. -1.
         -5    1    4    4    0  501 -0.20941163872E+02  0.16759950370E+02  0.14774224610E+02  0.30905960486E+02  0.41800000000E+01 0. -1.
</event>
<event>
11    1  0.1078607E-008  0.1598016E+03  0.7561462E-02  0.1087264E+00
         22   -1    0    0    0    0  0.00000000000E+00  0.00000000000E+00  0.39639096099E+03  0.39639096099E+03  0.00000000000E+00 0. -1.
         22   -1    0    0    0    0 -0.00000000000E+00 -0.00000000000E+00 -0.11070628847E+04  0.11070628847E+04  0.00000000000E+00 0. -1.
        -24    2    1    2    0    0  0.31049959035E+02  0.20004267339E+02 -0.73720915697E+03  0.74245391484E+03  0.79976270641E+02 0.  0.
         25    2    1    2    0    0  0.62159954950E+02 -0.56464945196E+02 -0.34028872604E+03  0.37215083965E+03  0.12509068849E+03 0.  0.
         24    2    1    2    0    0 -0.93209913985E+02  0.36460677857E+02  0.36682595927E+03  0.38884909125E+03  0.81393256960E+02 0.  0.
        -11    1    5    5    0    0 -0.72128159704E+01 -0.13349184356E+01 -0.25112983587E+01  0.77532793642E+01  0.00000000000E+00 0.  1.
         12    1    5    5    0    0 -0.85997098014E+02  0.37795596293E+02  0.36933725762E+03  0.38109581188E+03  0.00000000000E+00 0. -1.
         13    1    3    3    0    0 -0.17013737519E+02  0.16249112276E+02 -0.49133220876E+03  0.49189515172E+03  0.00000000000E+00 0. -1.
        -14    1    3    3    0    0  0.48063696554E+02  0.37551550634E+01 -0.24587694821E+03  0.25055876312E+03  0.00000000000E+00 0.  1.
          5    1    4    4  501    0 -0.37971880664E+02 -0.24549969782E+02 -0.97225579792E+02  0.10730727144E+03  0.41800000000E+01 0. -1.
         -5    1    4    4    0  501  0.10013183561E+03 -0.31914975415E+02 -0.24306314625E+03  0.26484356821E+03  0.41800000000E+01 0. -1.
</event>
<event>
11    1  0.1078607E-008  0.1469681E+03  0.7561462E-02  0.1100018E+00
         22   -1    0    0    0    0  0.00000000000E+00  0.00000000000E+00  0.18586886723E+03  0.18586886723E+03  0.00000000000E+00 0.  1.
         22   -1    0    0    0    0 -0.00000000000E+00 -0.00000000000E+00 -0.24098560273E+04  0.24098560273E+04  0.00000000000E+00 0.  1.
        -24    2    1    2    0    0 -0.76531329023E+02 -0.11411267953E+02 -0.23088480109E+04  0.23115128502E+04  0.79531490631E+02 0.  0.
         25    2    1    2    0    0  0.70644388756E+02 -0.76670047666E+01 -0.20530390233E+02  0.14529644656E+03  0.12506057666E+03 0.  0.
         24    2    1    2    0    0  0.58869402672E+01  0.19078272720E+02  0.10539124107E+03  0.13891559773E+03  0.88270000804E+02 0.  0.
        -13    1    5    5    0    0  0.10972374186E+02 -0.15863626357E+02  0.10158616305E+03  0.10340114197E+03  0.00000000000E+00 0.  1.
         14    1    5    5    0    0 -0.50854339184E+01  0.34941899077E+02  0.38050780191E+01  0.35514455761E+02  0.00000000000E+00 0. -1.
         11    1    3    3    0    0 -0.30057745488E+02  0.29307806940E+02 -0.55895882622E+03  0.56053312572E+03  0.00000000000E+00 0. -1.
        -12    1    3    3    0    0 -0.46473583536E+02 -0.40719074893E+02 -0.17498891847E+04  0.17509797245E+04  0.00000000000E+00 0.  1.
          5    1    4    4  501    0  0.10194002796E+03 -0.55417997372E+01 -0.38163105455E+02  0.10907050867E+03  0.41800000000E+01 0. -1.
         -5    1    4    4    0  501 -0.31295639202E+02 -0.21252050293E+01  0.17632715222E+02  0.36225937884E+02  0.41800000000E+01 0. -1.
</event>
<event>
11    1  0.1078607E-008  0.1503577E+03  0.7561462E-02  0.1096514E+00
         22   -1    0    0    0    0  0.00000000000E+00  0.00000000000E+00  0.77755531302E+02  0.77755531302E+02  0.00000000000E+00 0. -1.
         22   -1    0    0    0    0 -0.00000000000E+00 -0.00000000000E+00 -0.10736635478E+04  0.10736635478E+04  0.00000000000E+00 0. -1.
         24    2    1    2    0    0 -0.20168060663E+02 -0.82490741472E+02 -0.75355444604E+03  0.76268118157E+03  0.81405211585E+02 0.  0.
         25    2    1    2    0    0  0.38778060629E+01  0.78215547618E+02 -0.26634255967E+03  0.30449867354E+03  0.12509346035E+03 0.  0.
        -24    2    1    2    0    0  0.16290254600E+02  0.42751938544E+01  0.23988989255E+02  0.84239223958E+02  0.78975474485E+02 0.  0.
        -13    1    3    3    0    0 -0.24784094232E+02  0.87427848115E+01 -0.17132274711E+03  0.17332677604E+03  0.00000000000E+00 0.  1.
         14    1    3    3    0    0  0.46160335689E+01 -0.91233526283E+02 -0.58223169893E+03  0.58935440553E+03  0.00000000000E+00 0. -1.
         11    1    5    5    0    0 -0.32024428691E+02 -0.68134049110E+00  0.12066035845E+02  0.34228898301E+02  0.00000000000E+00 0. -1.
        -12    1    5    5    0    0  0.48314683292E+02  0.49565343455E+01  0.11922953411E+02  0.50010325657E+02  0.00000000000E+00 0.  1.
          5    1    4    4  501    0  0.55748432069E+02  0.98725262705E+01 -0.69566481772E+02  0.89790435121E+02  0.41800000000E+01 0. -1.
         -5    1    4    4    0  501 -0.51870626006E+02  0.68343021347E+02 -0.19677607790E+03  0.21470823842E+03  0.41800000000E+01 0. -1.
</event>
<event>
11    1  0.1078607E-008  0.1569532E+03  0.7561462E-02  0.1089978E+00
         22   -1    0    0    0    0  0.00000000000E+00  0.00000000000E+00  0.15508601787E+03  0.15508601787E+03  0.00000000000E+00 0.  1.
         22   -1    0    0    0    0 -0.00000000000E+00 -0.00000000000E+00 -0.28692739678E+04  0.28692739678E+04  0.00000000000E+00 0. -1.
        -24    2    1    2    0    0 -0.81765479871E+02 -0.49756726347E+02 -0.26693164281E+04  0.26722731884E+04  0.81440006715E+02 0.  0.
         25    2    1    2    0    0  0.77491144339E+02  0.18926884392E+02 -0.15461537465E+03  0.21428415615E+03  0.12509468853E+03 0.  0.
         24    2    1    2    0    0  0.42743355326E+01  0.30829841956E+02  0.10974385283E+03  0.13780264108E+03  0.77311742671E+02 0.  0.
        -13    1    5    5    0    0  0.94482202788E+01  0.33910099076E+02  0.12046685044E+03  0.12550468414E+03  0.00000000000E+00 0.  1.
         14    1    5    5    0    0 -0.51738847462E+01 -0.30802571203E+01 -0.10722997606E+02  0.12297956942E+02  0.00000000000E+00 0. -1.
         13    1    3    3    0    0 -0.74140307197E+02 -0.31663317820E+02 -0.11468152584E+04  0.11496454183E+04  0.00000000000E+00 0. -1.
        -14    1    3    3    0    0 -0.76251726741E+01 -0.18093408528E+02 -0.15225011697E+04  0.15226277701E+04  0.00000000000E+00 0.  1.
          5    1    4    4  501    0  0.88809002014E+02  0.33418548342E+02 -0.48765723687E+02  0.10676800279E+03  0.41800000000E+01 0. -1.
         -5    1    4    4    0  501 -0.11317857676E+02 -0.14491663950E+02 -0.10584965096E+03  0.10751615337E+03  0.41800000000E+01 0. -1.
</event>
<event>
11    1  0.1078607E-008  0.1383319E+03  0.7561462E-02  0.1109436E+00
         22   -1    0    0    0    0  0.00000000000E+00  0.00000000000E+00  0.16969007334E+03  0.16969007334E+03  0.00000000000E+00 0.  1.
         22   -1    0    0    0    0 -0.00000000000E+00 -0.00000000000E+00 -0.71565737142E+03  0.71565737142E+03  0.00000000000E+00 0. -1.
        -24    2    1    2    0    0  0.11972219686E+02 -0.54219026476E+02 -0.35128373781E+03  0.36464996084E+03  0.80537523030E+02 0.  0.
         25    2    1    2    0    0  0.31651378112E+02  0.70447584991E+02 -0.32725896119E+03  0.35876240914E+03  0.12508943427E+03 0.  0.
         24    2    1    2    0    0 -0.43623597798E+02 -0.16228558515E+02  0.13257540091E+03  0.16193507478E+03  0.80500603222E+02 0.  0.
        -11    1    5    5    0    0 -0.61667300833E+02  0.54937741127E+01  0.10806094389E+03  0.12453997406E+03  0.00000000000E+00 0.  1.
         12    1    5    5    0    0  0.18043703035E+02 -0.21722332627E+02  0.24514457027E+02  0.37395100713E+02  0.00000000000E+00 0. -1.
         11    1    3    3    0    0  0.11933898437E+02 -0.47443551287E+02 -0.35398957551E+03  0.35735406541E+03  0.00000000000E+00 0. -1.
        -12    1    3    3    0    0  0.38321248999E-01 -0.67754751894E+01  0.27058377014E+01  0.72958954369E+01  0.00000000000E+00 0.  1.
          5    1    4    4  501    0  0.75245435621E+01 -0.16191945253E+02 -0.21062170084E+03  0.21141847391E+03  0.41800000000E+01 0.  1.
         -5    1    4    4    0  501  0.24126834550E+02  0.86639530244E+02 -0.11663726035E+03  0.14734393523E+03  0.41800000000E+01 0.  1.
</event>
<event>
11    1  0.1078607E-008  0.1435871E+03  0.7561462E-02  0.1103618E+00
         22   -1    0    0    0    0  0.00000000000E+00  0.00000000000E+00  0.40378402714E+03  0.40378402714E+03  0.00000000000E+00 0.  1.
         22   -1    0    0    0    0 -0.00000000000E+00 -0.00000000000E+00 -0.73619866390E+03  0.73619866390E+03  0.00000000000E+00 0. -1.
         24    2    1    2    0    0 -0.26210032363E+02 -0.28965998054E+02 -0.43431238327E+03  0.44345166604E+03  0.80598629105E+02 0.  0.
         25    2    1    2    0    0  0.52401330359E+02  0.93439208533E+02 -0.26649363245E+03  0.31327539297E+03  0.12508329461E+03 0.  0.
        -24    2    1    2    0    0 -0.26191297996E+02 -0.64473210478E+02  0.36839137896E+03  0.38325563202E+03  0.79560621046E+02 0.  0.
        -13    1    3    3    0    0  0.58312963059E+01 -0.34195998081E+02 -0.74531474670E+02  0.82208947311E+02  0.00000000000E+00 0.  1.
         14    1    3    3    0    0 -0.32041328669E+02  0.52300000272E+01 -0.35978090860E+03  0.36124271873E+03  0.00000000000E+00 0. -1.
         13    1    5    5    0    0  0.57690083854E-01 -0.44228660550E+02  0.68501027398E+02  0.81538754570E+02  0.00000000000E+00 0. -1.
        -14    1    5    5    0    0 -0.26248988080E+02 -0.20244549928E+02  0.29989035156E+03  0.30171687745E+03  0.00000000000E+00 0.  1.
          5    1    4    4  501    0  0.92270594281E+02  0.58580611430E+02 -0.15422570945E+03  0.18907298183E+03  0.41800000000E+01 0.  1.
         -5    1    4    4    0  501 -0.39869263921E+02  0.34858597103E+02 -0.11226792301E+03  0.12420241114E+03  0.41800000000E+01 0.  1.
</event>
<event>
11    1  0.1078607E-008  0.1614802E+03  0.7561462E-02  0.1085693E+00
         22   -1    0    0    0    0  0.00000000000E+00  0.00000000000E+00  0.15973310460E+03  0.15973310460E+03  0.00000000000E+00 0.  1.
         22   -1    0    0    0    0 -0.00000000000E+00 -0.00000000000E+00 -0.40418437856E+04  0.40418437856E+04  0.00000000000E+00 0.  1.
        -24    2    1    2    0    0  0.24726480623E+02 -0.10128155523E+03 -0.35522181197E+04  0.35547281926E+04  0.83484139210E+02 0.  0.
         25    2    1    2    0    0 -0.27693795322E+02  0.77389342722E+02 -0.46496669687E+03  0.48847109923E+03  0.12511566215E+03 0.  0.
         24    2    1    2    0    0  0.29673146986E+01  0.23892212508E+02  0.13507413555E+03  0.15837759834E+03  0.79112570330E+02 0.  0.
        -11    1    5    5    0    0  0.20747839476E+02  0.46515495365E+01  0.12995608367E+03  0.13168406676E+03  0.00000000000E+00 0.  1.
         12    1    5    5    0    0 -0.17780524778E+02  0.19240662971E+02  0.51180518855E+01  0.26693531577E+02  0.00000000000E+00 0. -1.
         11    1    3    3    0    0  0.26832988834E+02 -0.24170410343E+02 -0.22101036872E+04  0.22103987256E+04  0.00000000000E+00 0. -1.
        -12    1    3    3    0    0 -0.21065082111E+01 -0.77111144888E+02 -0.13421144324E+04  0.13443294670E+04  0.00000000000E+00 0.  1.
          5    1    4    4  501    0 -0.53000337472E+02  0.50841855847E+02 -0.11468684961E+03  0.13625151725E+03  0.41800000000E+01 0. -1.
         -5    1    4    4    0  501  0.25306542150E+02  0.26547486875E+02 -0.35027984726E+03  0.35221958198E+03  0.41800000000E+01 0. -1.
</event>
<event>
11    1  0.1078607E-008  0.3778361E+03  0.7561462E-02  0.9717516E-01
         22   -1    0    0    0    0  0.00000000000E+00  0.00000000000E+00  0.18559838705E+04  0.18559838705E+04  0.00000000000E+00 0. -1.
         22   -1    0    0    0    0 -0.00000000000E+00 -0.00000000000E+00 -0.56784073706E+03  0.56784073706E+03  0.00000000000E+00 0. -1.
        -24    2    1    2    0    0 -0.21684200804E+03  0.25572220871E+03 -0.28422608791E+03  0.44621888609E+03  0.76892917607E+02 0.  0.
         25    2    1    2    0    0  0.40827866343E+03 -0.20819572300E+03  0.94498122605E+02  0.48436965633E+03  0.12508853947E+03 0.  0.
         24    2    1    2    0    0 -0.19143665539E+03 -0.47526485713E+02  0.14778710988E+04  0.14932360652E+04  0.82123089675E+02 0.  0.
        -13    1    5    5    0    0 -0.65895442226E+02 -0.50839582200E+02  0.44076207339E+03  0.44855108713E+03  0.00000000000E+00 0.  1.
         14    1    5    5    0    0 -0.12554121316E+03  0.33130964875E+01  0.10371090254E+04  0.10446849781E+04  0.00000000000E+00 0. -1.
         13    1    3    3    0    0 -0.13789234971E+03  0.10826105116E+03 -0.16558156156E+03  0.24114727624E+03  0.00000000000E+00 0. -1.
        -14    1    3    3    0    0 -0.78949658329E+02  0.14746115755E+03 -0.11864452635E+03  0.20507160986E+03  0.00000000000E+00 0.  1.
          5    1    4    4  501    0 -0.39936170435E+01  0.76863657040E+01  0.29243055448E+01  0.10052519970E+02  0.41800000000E+01 0. -1.
         -5    1    4    4    0  501  0.41227228047E+03 -0.21588208870E+03  0.91573817060E+02  0.47431713636E+03  0.41800000000E+01 0. -1.
</event>
<event>
11    1  0.1078607E-008  0.2061289E+03  0.7561462E-02  0.1050272E+00
         22   -1    0    0    0    0  0.00000000000E+00  0.00000000000E+00  0.17882369686E+04  0.17882369686E+04  0.00000000000E+00 0.  1.
         22   -1    0    0    0    0 -0.00000000000E+00 -0.00000000000E+00 -0.13200508979E+03  0.13200508979E+03  0.00000000000E+00 0. -1.
         24    2    1    2    0    0  0.11004855880E+03 -0.11622340440E+03 -0.41162006229E+02  0.18406214011E+03  0.81030831435E+02 0.  0.
         25    2    1    2    0    0 -0.17024490337E+03  0.13597170968E+03  0.97056826752E+03  0.10025576730E+04  0.12508993905E+03 0.  0.
        -24    2    1    2    0    0  0.60196344576E+02 -0.19748305281E+02  0.72682561757E+03  0.73362224531E+03  0.76892945072E+02 0.  0.
        -13    1    3    3    0    0  0.58069296328E+02 -0.37781053924E+02  0.19662734920E+02  0.72014403810E+02  0.00000000000E+00 0.  1.
         14    1    3    3    0    0  0.51979262469E+02 -0.78442350474E+02 -0.60824741149E+02  0.11204773630E+03  0.00000000000E+00 0. -1.
         13    1    5    5    0    0  0.42996454933E+02  0.15409415882E+02  0.19165437527E+03  0.19702168611E+03  0.00000000000E+00 0. -1.
        -14    1    5    5    0    0  0.17199889643E+02 -0.35157721163E+02  0.53517124229E+03  0.53660055921E+03  0.00000000000E+00 0.  1.
          5    1    4    4  501    0  0.33686362985E+01  0.47784825787E+02  0.31561389349E+03  0.31925591530E+03  0.41800000000E+01 0.  1.
         -5    1    4    4    0  501 -0.17361353967E+03  0.88186883891E+02  0.65495437403E+03  0.68330175772E+03  0.41800000000E+01 0.  1.
</event>
<event>
11    1  0.3700281E-008  0.1723060E+03  0.7561462E-02  0.1076042E+00
         22   -1    0    0    0    0  0.00000000000E+00  0.00000000000E+00  0.20485220564E+04  0.20485220564E+04  0.00000000000E+00 0.  1.
         22   -1    0    0    0    0 -0.00000000000E+00 -0.00000000000E+00 -0.20992175241E+04  0.20992175241E+04  0.00000000000E+00 0. -1.
        -24    2    1    2    0    0  0.11265153295E+03 -0.17482378359E+02 -0.18049125661E+04  0.18101865718E+04  0.77910537773E+02 0.  0.
         25    2    1    2    0    0 -0.13217256211E+02  0.83304437812E+02 -0.26942907023E+03  0.30879007777E+03  0.12507982659E+03 0.  0.
         24    2    1    2    0    0 -0.99434276737E+02 -0.65822059454E+02  0.20236461687E+04  0.20287629309E+04  0.80718614791E+02 0.  0.
        -11    1    5    5    0    0 -0.83504441334E+02 -0.71891383565E+02  0.19523570614E+04  0.19554640007E+04  0.00000000000E+00 0.  1.
         12    1    5    5    0    0 -0.15929835403E+02  0.60693241110E+01  0.71289107340E+02  0.73298930255E+02  0.00000000000E+00 0. -1.
         11    1    3    3    0    0  0.94612247943E+02  0.18699766161E+02 -0.13745138869E+04  0.13778931686E+04  0.00000000000E+00 0. -1.
        -12    1    3    3    0    0  0.18039285005E+02 -0.36182144520E+02 -0.43039867920E+03  0.43229340319E+03  0.00000000000E+00 0.  1.
          5    1    4    4  501    0 -0.46556723248E+02  0.68661143895E+02 -0.78204795539E+02  0.11408480883E+03  0.41800000000E+01 0.  1.
         -5    1    4    4    0  501  0.33339467037E+02  0.14643293917E+02 -0.19122427470E+03  0.19470526894E+03  0.41800000000E+01 0.  1.
</event>
<event>
11    1  0.1092154E-008  0.2261157E+03  0.7561462E-02  0.1037453E+00
         22   -1    0    0    0    0  0.00000000000E+00  0.00000000000E+00  0.97187272292E+03  0.97187272292E+03  0.00000000000E+00 0.  1.
         22   -1    0    0    0    0 -0.00000000000E+00 -0.00000000000E+00 -0.63845310782E+03  0.63845310782E+03  0.00000000000E+00 0.  1.
        -24    2    1    2    0    0  0.71558226157E+02  0.27817648739E+02 -0.41778814427E+03  0.43247159256E+03  0.81180931044E+02 0.  0.
         25    2    1    2    0    0 -0.23991793193E+03  0.49757579147E+02 -0.10769342559E+03  0.29545281607E+03  0.12513217758E+03 0.  0.
         24    2    1    2    0    0  0.16835970577E+03 -0.77575227886E+02  0.85890118496E+03  0.88240142211E+03  0.80982206129E+02 0.  0.
        -11    1    5    5    0    0  0.16519394128E+03 -0.81054437158E+02  0.71098078895E+03  0.73440625152E+03  0.00000000000E+00 0.  1.
         12    1    5    5    0    0  0.31657644902E+01  0.34792092715E+01  0.14792039601E+03  0.14799517059E+03  0.00000000000E+00 0. -1.
         11    1    3    3    0    0  0.23737333925E+02  0.48772643185E+02 -0.14682454708E+03  0.15652373421E+03  0.00000000000E+00 0. -1.
        -12    1    3    3    0    0  0.47820892232E+02 -0.20954994446E+02 -0.27096359719E+03  0.27594785835E+03  0.00000000000E+00 0.  1.
          5    1    4    4  501    0 -0.14398770739E+03 -0.12021337882E+02 -0.10936864882E+03  0.18126209253E+03  0.41800000000E+01 0. -1.
         -5    1    4    4    0  501 -0.95930224537E+02  0.61778917029E+02  0.16752232335E+01  0.11419072354E+03  0.41800000000E+01 0. -1.
</event>
<event>
11    1  0.1078607E-008  0.1492185E+03  0.7561462E-02  0.1097680E+00
         22   -1    0    0    0    0  0.00000000000E+00  0.00000000000E+00  0.40187290935E+03  0.40187290935E+03  0.00000000000E+00 0.  1.
         22   -1    0    0    0    0 -0.00000000000E+00 -0.00000000000E+00 -0.94017635027E+03  0.94017635027E+03  0.00000000000E+00 0. -1.
        -24    2    1    2    0    0  0.63725346650E+02  0.51525252374E+02 -0.90000285829E+03  0.90738094177E+03  0.81358817135E+02 0.  0.
         25    2    1    2    0    0 -0.56342231333E+02 -0.15401771434E+02  0.14443414757E+03  0.19980120239E+03  0.12509051082E+03 0.  0.
         24    2    1    2    0    0 -0.73831153164E+01 -0.36123480939E+02  0.21726526979E+03  0.23486711546E+03  0.81233910391E+02 0.  0.
        -11    1    5    5    0    0 -0.68106046927E+01 -0.61983007397E+02  0.16847787373E+03  0.17964707479E+03  0.00000000000E+00 0.  1.
         12    1    5    5    0    0 -0.57251062378E+00  0.25859526458E+02  0.48787396061E+02  0.55220040669E+02  0.00000000000E+00 0. -1.
         11    1    3    3    0    0  0.60068111649E+02  0.23281901572E+02 -0.30659838719E+03  0.31329346627E+03  0.00000000000E+00 0. -1.
        -12    1    3    3    0    0  0.36572350003E+01  0.28243350801E+02 -0.59340447110E+03  0.59408747551E+03  0.00000000000E+00 0.  1.
          5    1    4    4  501    0  0.14439495225E+02 -0.17034292699E+02  0.12389851362E+03  0.12596420216E+03  0.41800000000E+01 0. -1.
         -5    1    4    4    0  501 -0.70781726559E+02  0.16325212643E+01  0.20535633956E+02  0.73837000225E+02  0.41800000000E+01 0. -1.
</event>
<event>
11    1  0.1078607E-008  0.1477236E+03  0.7561462E-02  0.1099228E+00
         22   -1    0    0    0    0  0.00000000000E+00  0.00000000000E+00  0.25253405133E+03  0.25253405133E+03  0.00000000000E+00 0. -1.
         22   -1    0    0    0    0 -0.00000000000E+00 -0.00000000000E+00 -0.46770296710E+03  0.46770296710E+03  0.00000000000E+00 0.  1.
        -24    2    1    2    0    0 -0.38114274000E+01 -0.10011021741E+02 -0.16992022194E+03  0.18883329413E+03  0.81672416462E+02 0.  0.
         25    2    1    2    0    0  0.78131635375E+02 -0.15397674856E+02 -0.25417783302E+03  0.29427553043E+03  0.12510026448E+03 0.  0.
         24    2    1    2    0    0 -0.74320207975E+02  0.25408696597E+02  0.20892913920E+03  0.23712819388E+03  0.80058103591E+02 0.  0.
        -11    1    5    5    0    0 -0.14428729703E+02  0.46214106087E+02  0.81444510846E+02  0.94747771420E+02  0.00000000000E+00 0.  1.
         12    1    5    5    0    0 -0.59891478271E+02 -0.20805409490E+02  0.12748462835E+03  0.14238042246E+03  0.00000000000E+00 0. -1.
         13    1    3    3    0    0  0.27599194722E+02  0.14236960130E+02 -0.29205452835E+02  0.42630564837E+02  0.00000000000E+00 0. -1.
        -14    1    3    3    0    0 -0.31410622122E+02 -0.24247981870E+02 -0.14071476911E+03  0.14620272929E+03  0.00000000000E+00 0.  1.
          5    1    4    4  501    0  0.37564661880E+01  0.94091802499E+00 -0.20151647329E+03  0.20159701826E+03  0.41800000000E+01 0.  1.
         -5    1    4    4    0  501  0.74375169187E+02 -0.16338592881E+02 -0.52661359732E+02  0.92678512168E+02  0.41800000000E+01 0.  1.
</event>
<event>
11    1  0.1078607E-008  0.1655532E+03  0.7561462E-02  0.1081968E+00
         22   -1    0    0    0    0  0.00000000000E+00  0.00000000000E+00  0.16125648133E+03  0.16125648133E+03  0.00000000000E+00 0.  1.
         22   -1    0    0    0    0 -0.00000000000E+00 -0.00000000000E+00 -0.28537761054E+04  0.28537761054E+04  0.00000000000E+00 0.  1.
         24    2    1    2    0    0  0.10314989407E+03 -0.45368760547E+02 -0.24573971359E+04  0.24613255272E+04  0.81390676536E+02 0.  0.
         25    2    1    2    0    0 -0.89952077808E+02 -0.28105949690E+02 -0.35584802155E+03  0.38878784557E+03  0.12508738429E+03 0.  0.
        -24    2    1    2    0    0 -0.13197816258E+02  0.73474710236E+02  0.12072553340E+03  0.16491921394E+03  0.83970097738E+02 0.  0.
        -11    1    3    3    0    0  0.99392197568E+02 -0.33864501739E+02 -0.24137147283E+04  0.24159976000E+04  0.00000000000E+00 0.  1.
         12    1    3    3    0    0  0.37576964982E+01 -0.11504258807E+02 -0.43682407606E+02  0.45327927240E+02  0.00000000000E+00 0. -1.
         13    1    5    5    0    0 -0.39829202324E+00 -0.18689430572E+02  0.14185421332E+02  0.23466564086E+02  0.00000000000E+00 0. -1.
        -14    1    5    5    0    0 -0.12799524234E+02  0.92164140808E+02  0.10654011207E+03  0.14145264986E+03  0.00000000000E+00 0.  1.
          5    1    4    4  501    0 -0.24268930966E+01  0.38012916537E+02 -0.44876943005E+02  0.59010880753E+02  0.41800000000E+01 0. -1.
         -5    1    4    4    0  501 -0.87525184712E+02 -0.66118866227E+02 -0.31097107854E+03  0.32977696481E+03  0.41800000000E+01 0. -1.
</event>
<event>
11    1  0.1078607E-008  0.1566231E+03  0.7561462E-02  0.1090297E+00
         22   -1    0    0    0    0  0.00000000000E+00  0.00000000000E+00  0.92913814140E+02  0.92913814140E+02  0.00000000000E+00 0. -1.
         22   -1    0    0    0    0 -0.00000000000E+00 -0.00000000000E+00 -0.82139891737E+03  0.82139891737E+03  0.00000000000E+00 0.  1.
         24    2    1    2    0    0 -0.65544048552E+00  0.77752619438E+02 -0.43619009678E+03  0.44998414419E+03  0.78600445698E+02 0.  0.
         25    2    1    2    0    0  0.68879262874E+02 -0.13000256696E+03 -0.28723561937E+03  0.34611665871E+03  0.12508964836E+03 0.  0.
        -24    2    1    2    0    0 -0.68223822388E+02  0.52249947523E+02 -0.50593870738E+01  0.11821192861E+03  0.81017996215E+02 0.  0.
        -11    1    3    3    0    0  0.10385708690E+02  0.82394415863E+02 -0.25047770132E+03  0.26388592529E+03  0.00000000000E+00 0.  1.
         12    1    3    3    0    0 -0.11041149176E+02 -0.46417964246E+01 -0.18571239546E+03  0.18609821890E+03  0.00000000000E+00 0. -1.
         13    1    5    5    0    0 -0.72920435903E+01  0.29600724497E+02  0.31330170134E+02  0.43714486742E+02  0.00000000000E+00 0. -1.
        -14    1    5    5    0    0 -0.60931778798E+02  0.22649223026E+02 -0.36389557207E+02  0.74497441868E+02  0.00000000000E+00 0.  1.
          5    1    4    4  501    0  0.99615785778E+02 -0.93093149745E+02 -0.25147539911E+03  0.28608912608E+03  0.41800000000E+01 0.  1.
         -5    1    4    4    0  501 -0.30736522904E+02 -0.36909417215E+02 -0.35760220264E+02  0.60027532623E+02  0.41800000000E+01 0.  1.
</event>
<event>
11    1  0.1078607E-008  0.1728020E+03  0.7561462E-02  0.1075619E+00
         22   -1    0    0    0    0  0.00000000000E+00  0.00000000000E+00  0.66892801276E+03  0.66892801276E+03  0.00000000000E+00 0. -1.
         22   -1    0    0    0    0 -0.00000000000E+00 -0.00000000000E+00 -0.89163639530E+03  0.89163639530E+03  0.00000000000E+00 0. -1.
         24    2    1    2    0    0 -0.37411344812E+02  0.11438153384E+02 -0.62043212602E+03  0.62480125790E+03  0.62531182598E+02 0.  0.
         25    2    1    2    0    0  0.13059463548E+03  0.61837235080E+02 -0.22589563842E+03  0.29589601703E+03  0.12508721350E+03 0.  0.
        -24    2    1    2    0    0 -0.93183290666E+02 -0.73275388465E+02  0.62361938189E+03  0.63986713314E+03  0.80476123070E+02 0.  0.
        -11    1    3    3    0    0 -0.44730282814E+00  0.30962872571E+02 -0.21477762150E+03  0.21699844759E+03  0.00000000000E+00 0.  1.
         12    1    3    3    0    0 -0.36964041983E+02 -0.19524719186E+02 -0.40565450452E+03  0.40780281031E+03  0.00000000000E+00 0. -1.
         13    1    5    5    0    0 -0.37050821126E+02 -0.39048242206E+02  0.46581941898E+03  0.46891924642E+03  0.00000000000E+00 0. -1.
        -14    1    5    5    0    0 -0.56132469540E+02 -0.34227146258E+02  0.15779996291E+03  0.17094788671E+03  0.00000000000E+00 0.  1.
          5    1    4    4  501    0  0.83124121729E+02 -0.29262408589E+02 -0.10866328616E+03  0.13996817613E+03  0.41800000000E+01 0.  1.
         -5    1    4    4    0  501  0.47470513748E+02  0.91099643670E+02 -0.11723235225E+03  0.15592784090E+03  0.41800000000E+01 0.  1.
</event>
<event>
11    1  0.1078607E-008  0.3402378E+03  0.7561462E-02  0.9844671E-01
         22   -1    0    0    0    0  0.00000000000E+00  0.00000000000E+00  0.14869149743E+04  0.14869149743E+04  0.00000000000E+00 0.  1.
         22   -1    0    0    0    0 -0.00000000000E+00 -0.00000000000E+00 -0.30127065351E+03  0.30127065351E+03  0.00000000000E+00 0.  1.
        -24    2    1    2    0    0  0.24537193719E+03 -0.18575016856E+03 -0.12945757584E+03  0.34312288212E+03  0.79142501954E+02 0.  0.
         25    2    1    2    0    0 -0.36040209597E+03  0.14314439410E+03  0.67806082004E+03  0.79107352763E+03  0.12510340563E+03 0.  0.
         24    2    1    2    0    0  0.11503015878E+03  0.42605774456E+02  0.63704107659E+03  0.65398921805E+03  0.82664228181E+02 0.  0.
        -13    1    5    5    0    0  0.45086651943E+02  0.12787283622E+02  0.44473425594E+03  0.44719668963E+03  0.00000000000E+00 0.  1.
         14    1    5    5    0    0  0.69943506841E+02  0.29818490834E+02  0.19230682064E+03  0.20679252842E+03  0.00000000000E+00 0. -1.
         11    1    3    3    0    0  0.32271198269E+02 -0.55619517996E+02 -0.48809604025E+02  0.80730034467E+02  0.00000000000E+00 0. -1.
        -12    1    3    3    0    0  0.21310073892E+03 -0.13013065056E+03 -0.80647971812E+02  0.26239284766E+03  0.00000000000E+00 0.  1.
          5    1    4    4  501    0 -0.16557093569E+03  0.11825637191E+03  0.42032371882E+03  0.46699872081E+03  0.41800000000E+01 0.  1.
         -5    1    4    4    0  501 -0.19483116029E+03  0.24888022193E+02  0.25773710122E+03  0.32407480682E+03  0.41800000000E+01 0.  1.
</event>
<event>
11    1  0.1078607E-008  0.1469824E+03  0.7561462E-02  0.1100003E+00
         22   -1    0    0    0    0  0.00000000000E+00  0.00000000000E+00  0.25855796984E+03  0.25855796984E+03  0.00000000000E+00 0. -1.
         22   -1    0    0    0    0 -0.00000000000E+00 -0.00000000000E+00 -0.31343126533E+03  0.31343126533E+03  0.00000000000E+00 0.  1.
         24    2    1    2    0    0  0.43575964788E+02 -0.11086674991E+02 -0.18912501309E+03  0.21041454219E+03  0.80524716199E+02 0.  0.
         25    2    1    2    0    0 -0.10180925454E+03  0.51500394429E+02 -0.22756566404E+02  0.17083363043E+03  0.12509537575E+03 0.  0.
        -24    2    1    2    0    0  0.58233289748E+02 -0.40413719439E+02  0.15700828401E+03  0.19074106254E+03  0.81891189627E+02 0.  0.
        -11    1    3    3    0    0  0.61144715833E+02  0.12684056322E+02 -0.12137039595E+03  0.13649298360E+03  0.00000000000E+00 0.  1.
         12    1    3    3    0    0 -0.17568751045E+02 -0.23770731313E+02 -0.67754617146E+02  0.73921558595E+02  0.00000000000E+00 0. -1.
         11    1    5    5    0    0  0.21591352842E+02 -0.53084251100E+02  0.13379691251E+03  0.14555321374E+03  0.00000000000E+00 0. -1.
        -12    1    5    5    0    0  0.36641936906E+02  0.12670531662E+02  0.23211371505E+02  0.45187848808E+02  0.00000000000E+00 0.  1.
          5    1    4    4  501    0 -0.44690545088E+02 -0.39136764200E+02  0.59322083341E+01  0.59846425357E+02  0.41800000000E+01 0.  1.
         -5    1    4    4    0  501 -0.57118709447E+02  0.90637158629E+02 -0.28688774739E+02  0.11098720507E+03  0.41800000000E+01 0.  1.
</event>
<event>
11    1  0.1078607E-008  0.1480417E+03  0.7561462E-02  0.1098897E+00
         22   -1    0    0    0    0  0.00000000000E+00  0.00000000000E+00  0.80328471089E+03  0.80328471089E+03  0.00000000000E+00 0. -1.
         22   -1    0    0    0    0 -0.00000000000E+00 -0.00000000000E+00 -0.10140660770E+04  0.10140660770E+04  0.00000000000E+00 0.  1.
         24    2    1    2    0    0 -0.28479990647E+02  0.79871153544E+01 -0.92667008398E+03  0.93029921813E+03  0.76578631633E+02 0.  0.
         25    2    1    2    0    0  0.19888766596E+02 -0.86418322017E+02 -0.84138523275E+01  0.15356454383E+03  0.12509031455E+03 0.  0.
        -24    2    1    2    0    0  0.85912240505E+01  0.78431206662E+02  0.72430257023E+03  0.73348702590E+03  0.84638883559E+02 0.  0.
        -13    1    3    3    0    0  0.98544702289E+01 -0.22032156621E+02 -0.54525832388E+03  0.54579223728E+03  0.00000000000E+00 0.  1.
         14    1    3    3    0    0 -0.38334460876E+02  0.30019271975E+02 -0.38141176010E+03  0.38450698085E+03  0.00000000000E+00 0. -1.
         13    1    5    5    0    0 -0.24747679555E+02  0.73370129380E+02  0.58794054395E+03  0.59301745906E+03  0.00000000000E+00 0. -1.
        -14    1    5    5    0    0  0.33338903605E+02  0.50610772822E+01  0.13636202629E+03  0.14046956685E+03  0.00000000000E+00 0.  1.
          5    1    4    4  501    0  0.18582830286E+02 -0.71153853230E+02 -0.62869095190E+02  0.96841044712E+02  0.41800000000E+01 0.  1.
         -5    1    4    4    0  501  0.13059363101E+01 -0.15264468787E+02  0.54455242862E+02  0.56723499118E+02  0.41800000000E+01 0.  1.
</event>
<event>
11    1  0.1078607E-008  0.2052491E+03  0.7561462E-02  0.1050873E+00
         22   -1    0    0    0    0  0.00000000000E+00  0.00000000000E+00  0.72473470379E+03  0.72473470379E+03  0.00000000000E+00 0.  1.
         22   -1    0    0    0    0 -0.00000000000E+00 -0.00000000000E+00 -0.25871772408E+03  0.25871772408E+03  0.00000000000E+00 0.  1.
        -24    2    1    2    0    0 -0.14046255690E+03  0.10223429366E+03 -0.18328250099E+03  0.26512451331E+03  0.80727638993E+02 0.  0.
         25    2    1    2    0    0  0.47971653160E+02 -0.91278734276E+02  0.23246402749E+03  0.28340791570E+03  0.12508971087E+03 0.  0.
         24    2    1    2    0    0  0.92490903744E+02 -0.10955559387E+02  0.41683545321E+03  0.43491999886E+03  0.82030596720E+02 0.  0.
        -13    1    5    5    0    0  0.10494559569E+03 -0.51086946023E+01  0.31271587758E+03  0.32989528173E+03  0.00000000000E+00 0.  1.
         14    1    5    5    0    0 -0.12454691947E+02 -0.58468647851E+01  0.10411957563E+03  0.10502471713E+03  0.00000000000E+00 0. -1.
         13    1    3    3    0    0 -0.99812494630E+01  0.36734876822E+02 -0.11680400636E+02  0.39818441393E+02  0.00000000000E+00 0. -1.
        -14    1    3    3    0    0 -0.13048130744E+03  0.65499416842E+02 -0.17160210035E+03  0.22530607192E+03  0.00000000000E+00 0.  1.
          5    1    4    4  501    0  0.37543417288E+02 -0.77354895495E+02  0.48961536564E+02  0.99035309367E+02  0.41800000000E+01 0. -1.
         -5    1    4    4    0  501  0.10428235872E+02 -0.13923838781E+02  0.18350249092E+03  0.18437260633E+03  0.41800000000E+01 0. -1.
</event>
<event>
11    1  0.1078607E-008  0.2379208E+03  0.7561462E-02  0.1030538E+00
         22   -1    0    0    0    0  0.00000000000E+00  0.00000000000E+00  0.25754091649E+04  0.25754091649E+04  0.00000000000E+00 0.  1.
         22   -1    0    0    0    0 -0.00000000000E+00 -0.00000000000E+00 -0.16642728278E+04  0.16642728278E+04  0.00000000000E+00 0. -1.
         24    2    1    2    0    0  0.12660535186E+02  0.65327783563E+01 -0.13867324968E+04  0.13891199579E+04  0.80151564250E+02 0.  0.
         25    2    1    2    0    0  0.11286901128E+03  0.15250163013E+03 -0.22404589273E+03  0.31912370295E+03  0.12508882778E+03 0.  0.
        -24    2    1    2    0    0 -0.12552954646E+03 -0.15903440849E+03  0.25219147267E+04  0.25314383318E+04  0.84122107726E+02 0.  0.
        -13    1    3    3    0    0 -0.17806823878E+02  0.15965304648E+02 -0.14356555736E+03  0.14554395621E+03  0.00000000000E+00 0.  1.
         14    1    3    3    0    0  0.30467359065E+02 -0.94325262916E+01 -0.12431669395E+04  0.12435760017E+04  0.00000000000E+00 0. -1.
         11    1    5    5    0    0  0.57978727416E+01  0.44498958760E+01  0.38628547515E+02  0.39313885394E+02  0.00000000000E+00 0. -1.
        -12    1    5    5    0    0 -0.13132741921E+03 -0.16348430436E+03  0.24832861792E+04  0.24921244464E+04  0.00000000000E+00 0.  1.
          5    1    4    4  501    0  0.47410547444E+02  0.15347924220E+03 -0.14536970987E+03  0.21668747712E+03  0.41800000000E+01 0. -1.
         -5    1    4    4    0  501  0.65458463833E+02 -0.97761206336E+00 -0.78676182855E+02  0.10243622583E+03  0.41800000000E+01 0. -1.
</event>
<event>
11    1  0.1634770E-008  0.1603112E+03  0.7561462E-02  0.1086785E+00
         22   -1    0    0    0    0  0.00000000000E+00  0.00000000000E+00  0.15908334479E+04  0.15908334479E+04  0.00000000000E+00 0.  1.
         22   -1    0    0    0    0 -0.00000000000E+00 -0.00000000000E+00 -0.14708806994E+04  0.14708806994E+04  0.00000000000E+00 0.  1.
        -24    2    1    2    0    0 -0.17977714404E+02  0.60214385475E+02 -0.11555702117E+04  0.11599786791E+04  0.79114167482E+02 0.  0.
         25    2    1    2    0    0 -0.65260959639E+02 -0.35803025901E+01 -0.29435895076E+03  0.32644604365E+03  0.12509203053E+03 0.  0.
         24    2    1    2    0    0  0.83238674043E+02 -0.56634082885E+02  0.15698819109E+04  0.15752894245E+04  0.82894273709E+02 0.  0.
        -13    1    5    5    0    0  0.84326513697E+02 -0.70852477575E+02  0.14956695338E+04  0.14997194367E+04  0.00000000000E+00 0.  1.
         14    1    5    5    0    0 -0.10878396541E+01  0.14218394690E+02  0.74212377075E+02  0.75569987785E+02  0.00000000000E+00 0. -1.
         11    1    3    3    0    0  0.21655117849E+02  0.28911534081E+02 -0.21180774596E+03  0.21486587021E+03  0.00000000000E+00 0. -1.
        -12    1    3    3    0    0 -0.39632832253E+02  0.31302851394E+02 -0.94376246569E+03  0.94511280890E+03  0.00000000000E+00 0.  1.
          5    1    4    4  501    0 -0.75293941621E+02 -0.51894375604E+02 -0.18587744514E+03  0.20719580323E+03  0.41800000000E+01 0.  1.
         -5    1    4    4    0  501  0.10032981982E+02  0.48314073014E+02 -0.10848150562E+03  0.11925024042E+03  0.41800000000E+01 0.  1.
</event>
<event>
11    1  0.1078607E-008  0.1259996E+03  0.7561462E-02  0.1124284E+00
         22   -1    0    0    0    0  0.00000000000E+00  0.00000000000E+00  0.28165891941E+03  0.28165891941E+03  0.00000000000E+00 0.  1.
         22   -1    0    0    0    0 -0.00000000000E+00 -0.00000000000E+00 -0.59814364249E+03  0.59814364249E+03  0.00000000000E+00 0. -1.
         24    2    1    2    0    0 -0.10030362986E+02 -0.10057830849E+02 -0.52082676176E+03  0.52782408309E+03  0.84474722742E+02 0.  0.
         25    2    1    2    0    0  0.33810263502E+02  0.12179088812E+02 -0.16920286236E+01  0.13015405809E+03  0.12508297948E+03 0.  0.
        -24    2    1    2    0    0 -0.23779900516E+02 -0.21212579628E+01  0.20603406730E+03  0.22182442071E+03  0.78651467442E+02 0.  0.
        -11    1    3    3    0    0 -0.36753101256E+02 -0.43031395458E+01 -0.10937197379E+03  0.11546227138E+03  0.00000000000E+00 0.  1.
         12    1    3    3    0    0  0.26722738270E+02 -0.57546913037E+01 -0.41145478797E+03  0.41236181171E+03  0.00000000000E+00 0. -1.
         11    1    5    5    0    0 -0.36272028616E+01  0.20147846409E+02  0.87433089342E+01  0.22260677587E+02  0.00000000000E+00 0. -1.
        -12    1    5    5    0    0 -0.20152697655E+02 -0.22269104372E+02  0.19729075837E+03  0.19956374312E+03  0.00000000000E+00 0.  1.
          5    1    4    4  501    0 -0.26678603080E+02  0.48163641766E+02 -0.17446838815E+02  0.57908106817E+02  0.41800000000E+01 0. -1.
         -5    1    4    4    0  501  0.60488866582E+02 -0.35984552954E+02  0.15754810192E+02  0.72245951276E+02  0.41800000000E+01 0. -1.
</event>
<event>
11    1  0.1078607E-008  0.1432665E+03  0.7561462E-02  0.1103965E+00
         22   -1    0    0    0    0  0.00000000000E+00  0.00000000000E+00  0.15053857779E+04  0.15053857779E+04  0.00000000000E+00 0.  1.
         22   -1    0    0    0    0 -0.00000000000E+00 -0.00000000000E+00 -0.30607863531E+03  0.30607863531E+03  0.00000000000E+00 0. -1.
         24    2    1    2    0    0  0.37812457812E+02  0.58531264086E+02 -0.28653302518E+03  0.30576443554E+03  0.80839499525E+02 0.  0.
         25    2    1    2    0    0 -0.52286937153E+02 -0.63069243506E+02  0.70549282013E+03  0.72116551936E+03  0.12509170154E+03 0.  0.
        -24    2    1    2    0    0  0.14474479341E+02  0.45379794210E+01  0.78034734769E+03  0.78453445835E+03  0.79512448549E+02 0.  0.
        -11    1    3    3    0    0  0.41937773212E+02  0.43335093230E+02 -0.88422805282E+02  0.10702943343E+03  0.00000000000E+00 0.  1.
         12    1    3    3    0    0 -0.41253153997E+01  0.15196170856E+02 -0.19811021990E+03  0.19873500211E+03  0.00000000000E+00 0. -1.
         11    1    5    5    0    0 -0.26872921885E+02 -0.12130725619E+02  0.16809404510E+03  0.17066023683E+03  0.00000000000E+00 0. -1.
        -12    1    5    5    0    0  0.41347401225E+02  0.16668705040E+02  0.61225330259E+03  0.61387422152E+03  0.00000000000E+00 0.  1.
          5    1    4    4  501    0 -0.54793574038E+02 -0.79442116733E+01  0.11109889711E+03  0.12420098065E+03  0.41800000000E+01 0. -1.
         -5    1    4    4    0  501  0.25066368853E+01 -0.55125031833E+02  0.59439392302E+03  0.59696453872E+03  0.41800000000E+01 0. -1.
</event>
<event>
11    1  0.1078607E-008  0.2967726E+03  0.7561462E-02  0.1001566E+00
         22   -1    0    0    0    0  0.00000000000E+00  0.00000000000E+00  0.11351211218E+04  0.11351211218E+04  0.00000000000E+00 0.  1.
         22   -1    0    0    0    0 -0.00000000000E+00 -0.00000000000E+00 -0.15187229127E+04  0.15187229127E+04  0.00000000000E+00 0.  1.
        -24    2    1    2    0    0 -0.76233761431E+01 -0.64372051534E+02 -0.12831652804E+04  0.12873298621E+04  0.80642172857E+02 0.  0.
         25    2    1    2    0    0 -0.31795120897E+02 -0.20722392008E+03 -0.14478108282E+03  0.28383396347E+03  0.12508986412E+03 0.  0.
         24    2    1    2    0    0  0.39418497040E+02  0.27159597162E+03  0.10443445723E+04  0.10826802090E+04  0.78883835789E+02 0.  0.
        -11    1    5    5    0    0  0.57406368418E+02  0.21809328218E+03  0.89638758655E+03  0.92432184665E+03  0.00000000000E+00 0.  1.
         12    1    5    5    0    0 -0.17987871377E+02  0.53502689436E+02  0.14795698577E+03  0.15835836237E+03  0.00000000000E+00 0. -1.
         13    1    3    3    0    0  0.24017964218E+02 -0.89680304203E+01 -0.13623713133E+03  0.13862843910E+03  0.00000000000E+00 0. -1.
        -14    1    3    3    0    0 -0.31641340361E+02 -0.55404021114E+02 -0.11469281491E+04  0.11487014229E+04  0.00000000000E+00 0.  1.
          5    1    4    4  501    0  0.11114402768E+02 -0.15829520305E+03 -0.15001697699E+03  0.21841123378E+03  0.41800000000E+01 0.  1.
         -5    1    4    4    0  501 -0.42909523666E+02 -0.48928717032E+02  0.52358941660E+01  0.65422729684E+02  0.41800000000E+01 0.  1.
</event>
<event>
11    1  0.1078607E-008  0.1296282E+03  0.7561462E-02  0.1119727E+00
         22   -1    0    0    0    0  0.00000000000E+00  0.00000000000E+00  0.93192312762E+03  0.93192312762E+03  0.00000000000E+00 0. -1.
         22   -1    0    0    0    0 -0.00000000000E+00 -0.00000000000E+00 -0.59859640493E+03  0.59859640493E+03  0.00000000000E+00 0. -1.
        -24    2    1    2    0    0  0.29756912364E+02  0.14644774815E+02 -0.54771230915E+03  0.55455460545E+03  0.80262653678E+02 0.  0.
         25    2    1    2    0    0 -0.62020143535E+02 -0.10716299249E+02  0.63119585083E+02  0.15359919936E+03  0.12508914721E+03 0.  0.
         24    2    1    2    0    0  0.32263231171E+02 -0.39284755653E+01  0.81791944676E+03  0.82236572774E+03  0.78973538412E+02 0.  0.
        -11    1    5    5    0    0 -0.19560830030E+02  0.36517321207E+01  0.47992157519E+03  0.48033392504E+03  0.00000000000E+00 0.  1.
         12    1    5    5    0    0  0.51824061201E+02 -0.75802076860E+01  0.33799787157E+03  0.34203180270E+03  0.00000000000E+00 0. -1.
         13    1    3    3    0    0  0.35762916597E+02 -0.25992344087E+02 -0.23134385977E+03  0.23553040060E+03  0.00000000000E+00 0. -1.
        -14    1    3    3    0    0 -0.60060042332E+01  0.40637118901E+02 -0.31636844938E+03  0.31902420485E+03  0.00000000000E+00 0.  1.
          5    1    4    4  501    0 -0.23683301263E+01  0.25832907080E+02  0.77693701706E+02  0.82016655385E+02  0.41800000000E+01 0.  1.
         -5    1    4    4    0  501 -0.59651813409E+02 -0.36549206329E+02 -0.14574116623E+02  0.71582543972E+02  0.41800000000E+01 0.  1.
</event>
<event>
11    1  0.1078607E-008  0.1377475E+03  0.7561462E-02  0.1110100E+00
         22   -1    0    0    0    0  0.00000000000E+00  0.00000000000E+00  0.49762077231E+03  0.49762077231E+03  0.00000000000E+00 0. -1.
         22   -1    0    0    0    0 -0.00000000000E+00 -0.00000000000E+00 -0.86493533959E+03  0.86493533959E+03  0.00000000000E+00 0. -1.
         24    2    1    2    0    0  0.37852766435E+02 -0.84474745921E+01 -0.72296844110E+03  0.72845845999E+03  0.80400058168E+02 0.  0.
         25    2    1    2    0    0  0.17331385146E+02  0.29162443940E+02 -0.10239084168E+03  0.16517250151E+03  0.12508895133E+03 0.  0.
        -24    2    1    2    0    0 -0.55184151582E+02 -0.20714969348E+02  0.45804471550E+03  0.46892515040E+03  0.81310729530E+02 0.  0.
        -13    1    3    3    0    0  0.12888443666E+02 -0.23684835981E+02 -0.72812026199E+02  0.77644540019E+02  0.00000000000E+00 0.  1.
         14    1    3    3    0    0  0.24964322770E+02  0.15237361389E+02 -0.65015641490E+03  0.65081391997E+03  0.00000000000E+00 0. -1.
         13    1    5    5    0    0 -0.49862836849E+02  0.69269532103E+01  0.41122387738E+03  0.41429381181E+03  0.00000000000E+00 0. -1.
        -14    1    5    5    0    0 -0.53213147328E+01 -0.27641922559E+02  0.46820838121E+02  0.54631338585E+02  0.00000000000E+00 0.  1.
          5    1    4    4  501    0  0.10415641224E+02 -0.34566642292E+01  0.28083510244E+02  0.30439941809E+02  0.41800000000E+01 0.  1.
         -5    1    4    4    0  501  0.69157439224E+01  0.32619108170E+02 -0.13047435193E+03  0.13473255970E+03  0.41800000000E+01 0.  1.
</event>
<event>
11    1  0.1078607E-008  0.1591711E+03  0.7561462E-02  0.1087859E+00
         22   -1    0    0    0    0  0.00000000000E+00  0.00000000000E+00  0.12353358757E+04  0.12353358757E+04  0.00000000000E+00 0. -1.
         22   -1    0    0    0    0 -0.00000000000E+00 -0.00000000000E+00 -0.23886955880E+03  0.23886955880E+03  0.00000000000E+00 0.  1.
        -24    2    1    2    0    0 -0.77459228120E+02  0.33983620633E+01 -0.13296124448E+03  0.17353544815E+03  0.80152219849E+02 0.  0.
         25    2    1    2    0    0  0.61666618703E+02 -0.10088250985E+03  0.82655243937E+01  0.17232386723E+03  0.12508854331E+03 0.  0.
         24    2    1    2    0    0  0.15792609417E+02  0.97484147787E+02  0.11211620370E+04  0.11283461192E+04  0.80050520041E+02 0.  0.
        -13    1    5    5    0    0  0.23949395847E+02  0.17128949455E+02  0.62160074086E+03  0.62229772256E+03  0.00000000000E+00 0.  1.
         14    1    5    5    0    0 -0.81567864298E+01  0.80355198332E+02  0.49956129618E+03  0.50604839660E+03  0.00000000000E+00 0. -1.
         13    1    3    3    0    0 -0.11397189306E+02 -0.33117512782E+02 -0.31722310004E+02  0.47254317569E+02  0.00000000000E+00 0. -1.
        -14    1    3    3    0    0 -0.66062038814E+02  0.36515874845E+02 -0.10123893448E+03  0.12628113059E+03  0.00000000000E+00 0.  1.
          5    1    4    4  501    0  0.90815232013E+02 -0.57649353264E+02  0.35497770234E+02  0.11335086409E+03  0.41800000000E+01 0.  1.
         -5    1    4    4    0  501 -0.29148613310E+02 -0.43233156586E+02 -0.27232245840E+02  0.58973003144E+02  0.41800000000E+01 0.  1.
</event>
<event>
11    1  0.1078607E-008  0.1460550E+03  0.7561462E-02  0.1100979E+00
         22   -1    0    0    0    0  0.00000000000E+00  0.00000000000E+00  0.35396117872E+03  0.35396117872E+03  0.00000000000E+00 0.  1.
         22   -1    0    0    0    0 -0.00000000000E+00 -0.00000000000E+00 -0.23712404794E+03  0.23712404794E+03  0.00000000000E+00 0.  1.
        -24    2    1    2    0    0 -0.67051562693E+02 -0.22873473395E+02 -0.15433480708E+03  0.18574103014E+03  0.75242207295E+02 0.  0.
         25    2    1    2    0    0  0.10779350906E+03  0.24671501172E+02  0.61869244319E+02  0.17805804827E+03  0.12509493034E+03 0.  0.
         24    2    1    2    0    0 -0.40741946362E+02 -0.17980277774E+01  0.20930269353E+03  0.22728614824E+03  0.78665345394E+02 0.  0.
        -11    1    5    5    0    0 -0.20481636766E+02  0.74842963049E+01  0.20294275463E+03  0.20411093502E+03  0.00000000000E+00 0.  1.
         12    1    5    5    0    0 -0.20260309596E+02 -0.92823240823E+01  0.63599389016E+01  0.23175213227E+02  0.00000000000E+00 0. -1.
         11    1    3    3    0    0 -0.32786282661E+02  0.14341185386E+02 -0.17461233693E+02  0.39818395386E+02  0.00000000000E+00 0. -1.
        -12    1    3    3    0    0 -0.34265280032E+02 -0.37214658781E+02 -0.13687357338E+03  0.14592263476E+03  0.00000000000E+00 0.  1.
          5    1    4    4  501    0  0.86220541670E+02 -0.18411408354E+02  0.86674191819E+02  0.12370468742E+03  0.41800000000E+01 0. -1.
         -5    1    4    4    0  501  0.21572967386E+02  0.43082909526E+02 -0.24804947501E+02  0.54353360849E+02  0.41800000000E+01 0. -1.
</event>
<event>
11    1  0.1078607E-008  0.1260331E+03  0.7561462E-02  0.1124241E+00
         22   -1    0    0    0    0  0.00000000000E+00  0.00000000000E+00  0.10492089948E+04  0.10492089948E+04  0.00000000000E+00 0.  1.
         22   -1    0    0    0    0 -0.00000000000E+00 -0.00000000000E+00 -0.13631826121E+03  0.13631826121E+03  0.00000000000E+00 0. -1.
         24    2    1    2    0    0  0.77367937196E+01  0.14937555228E+02 -0.90879227473E+02  0.12253406027E+03  0.80452305161E+02 0.  0.
         25    2    1    2    0    0 -0.94344075166E+01  0.24401694771E+01  0.11407406280E+03  0.16957479243E+03  0.12509099069E+03 0.  0.
        -24    2    1    2    0    0  0.16976137969E+01 -0.17377724705E+02  0.88969589829E+03  0.89341840335E+03  0.79578796168E+02 0.  0.
        -13    1    3    3    0    0  0.67965517451E+01 -0.16138288296E+02  0.77288801324E+01  0.19140873879E+02  0.00000000000E+00 0.  1.
         14    1    3    3    0    0  0.94024197456E+00  0.31075843524E+02 -0.98608107606E+02  0.10339318639E+03  0.00000000000E+00 0. -1.
         13    1    5    5    0    0  0.21849822680E+02  0.49485669865E+01  0.77689296098E+02  0.80854992391E+02  0.00000000000E+00 0. -1.
        -14    1    5    5    0    0 -0.20152208883E+02 -0.22326291692E+02  0.81200660219E+03  0.81256341096E+03  0.00000000000E+00 0.  1.
          5    1    4    4  501    0  0.54426111001E+02 -0.10434401826E+02  0.75505774009E+02  0.93753253858E+02  0.41800000000E+01 0. -1.
         -5    1    4    4    0  501 -0.63860518518E+02  0.12874571303E+02  0.38568288793E+02  0.75821538576E+02  0.41800000000E+01 0. -1.
</event>
<event>
11    1  0.1078607E-008  0.1480987E+03  0.7561462E-02  0.1098838E+00
         22   -1    0    0    0    0  0.00000000000E+00  0.00000000000E+00  0.82441963137E+03  0.82441963137E+03  0.00000000000E+00 0.  1.
         22   -1    0    0    0    0 -0.00000000000E+00 -0.00000000000E+00 -0.93918042463E+03  0.93918042463E+03  0.00000000000E+00 0. -1.
         24    2    1    2    0    0 -0.77503284831E+02  0.12349100988E+02 -0.89156140655E+03  0.89914995129E+03  0.86195323517E+02 0.  0.
         25    2    1    2    0    0  0.11440503499E+03 -0.30548278073E+02  0.14228955103E+03  0.22341861139E+03  0.12509136765E+03 0.  0.
        -24    2    1    2    0    0 -0.36901750163E+02  0.18199177085E+02  0.63451106227E+03  0.64103149332E+03  0.81388808032E+02 0.  0.
        -11    1    3    3    0    0  0.18351144823E+02  0.30801975025E+01 -0.20930365231E+03  0.21012917695E+03  0.00000000000E+00 0.  1.
         12    1    3    3    0    0 -0.95854429654E+02  0.92689034852E+01 -0.68225775424E+03  0.68902077434E+03  0.00000000000E+00 0. -1.
         13    1    5    5    0    0 -0.29012380390E+02 -0.30165007387E+02  0.26482816225E+03  0.26811490337E+03  0.00000000000E+00 0. -1.
        -14    1    5    5    0    0 -0.78893697734E+01  0.48364184472E+02  0.36968290001E+03  0.37291658994E+03  0.00000000000E+00 0.  1.
          5    1    4    4  501    0 -0.12204094797E+02 -0.17716014167E+02  0.77533739327E+02  0.80571398286E+02  0.41800000000E+01 0.  1.
         -5    1    4    4    0  501  0.12660912979E+03 -0.12832263906E+02  0.64755811699E+02  0.14284721311E+03  0.41800000000E+01 0.  1.
</event>
<event>
11    1  0.1078607E-008  0.2306613E+03  0.7561462E-02  0.1034737E+00
         22   -1    0    0    0    0  0.00000000000E+00  0.00000000000E+00  0.38862799990E+04  0.38862799990E+04  0.00000000000E+00 0. -1.
         22   -1    0    0    0    0 -0.00000000000E+00 -0.00000000000E+00 -0.12602222355E+03  0.12602222355E+03  0.00000000000E+00 0. -1.
         24    2    1    2    0    0 -0.19700949281E+02 -0.60362511417E+02 -0.84585348307E+02  0.13259446579E+03  0.79967812412E+02 0.  0.
         25    2    1    2    0    0  0.20730016240E+03  0.73425021822E+02  0.11668389494E+04  0.11939537113E+04  0.12509092574E+03 0.  0.
        -24    2    1    2    0    0 -0.18759921312E+03 -0.13062510405E+02  0.26780041743E+04  0.26857540455E+04  0.78767638968E+02 0.  0.
        -11    1    3    3    0    0 -0.65954175727E+01 -0.44497166588E+02  0.57107791106E+00  0.44986925848E+02  0.00000000000E+00 0.  1.
         12    1    3    3    0    0 -0.13105531708E+02 -0.15865344829E+02 -0.85156426218E+02  0.87607539938E+02  0.00000000000E+00 0. -1.
         11    1    5    5    0    0 -0.10848025068E+03 -0.13424050322E+02  0.20294594786E+04  0.20324010296E+04  0.00000000000E+00 0. -1.
        -12    1    5    5    0    0 -0.79118962442E+02  0.36153991715E+00  0.64854469574E+03  0.65335301584E+03  0.00000000000E+00 0.  1.
          5    1    4    4  501    0  0.49682982676E+02 -0.34616119612E+02  0.23484766634E+03  0.24256457550E+03  0.41800000000E+01 0.  1.
         -5    1    4    4    0  501  0.15761717972E+03  0.10804114143E+03  0.93199128309E+03  0.95138913581E+03  0.41800000000E+01 0.  1.
</event>
<event>
11    1  0.1078607E-008  0.1280959E+03  0.7561462E-02  0.1121631E+00
         22   -1    0    0    0    0  0.00000000000E+00  0.00000000000E+00  0.38670652694E+03  0.38670652694E+03  0.00000000000E+00 0. -1.
         22   -1    0    0    0    0 -0.00000000000E+00 -0.00000000000E+00 -0.12887209869E+03  0.12887209869E+03  0.00000000000E+00 0.  1.
        -24    2    1    2    0    0  0.10689024557E+02  0.49237743067E+02 -0.62520554123E+02  0.11287259375E+03  0.79327121112E+02 0.  0.
         25    2    1    2    0    0 -0.54844566877E+01 -0.99839649968E+01  0.94681809985E+02  0.15729678955E+03  0.12509147069E+03 0.  0.
         24    2    1    2    0    0 -0.52045678690E+01 -0.39253778070E+02  0.22567317239E+03  0.24540924233E+03  0.87916829238E+02 0.  0.
        -13    1    5    5    0    0 -0.17643613746E+02 -0.66549938672E+01  0.19228262689E+01  0.18954770118E+02  0.00000000000E+00 0.  1.
         14    1    5    5    0    0  0.12439045877E+02 -0.32598784203E+02  0.22375034612E+03  0.22645447221E+03  0.00000000000E+00 0. -1.
         13    1    3    3    0    0  0.29318496601E+02  0.54821339619E+02 -0.18684192810E+02  0.64915734468E+02  0.00000000000E+00 0. -1.
        -14    1    3    3    0    0 -0.18629472044E+02 -0.55835965519E+01 -0.43836361313E+02  0.47956859283E+02  0.00000000000E+00 0.  1.
          5    1    4    4  501    0  0.41271938658E+02 -0.16952645289E+02  0.99961239800E+02  0.10954673416E+03  0.41800000000E+01 0. -1.
         -5    1    4    4    0  501 -0.46756395346E+02  0.69686802924E+01 -0.52794298146E+01  0.47750055392E+02  0.41800000000E+01 0. -1.
</event>
<event>
11    1  0.1078607E-008  0.1588179E+03  0.7561462E-02  0.1088194E+00
         22   -1    0    0    0    0  0.00000000000E+00  0.00000000000E+00  0.26493924969E+03  0.26493924969E+03  0.00000000000E+00 0. -1.
         22   -1    0    0    0    0 -0.00000000000E+00 -0.00000000000E+00 -0.18281778484E+04  0.18281778484E+04  0.00000000000E+00 0.  1.
        -24    2    1    2    0    0  0.74249552950E+01  0.39228341078E+02 -0.16128558174E+04  0.16152882338E+04  0.79108772609E+02 0.  0.
         25    2    1    2    0    0 -0.12858665084E+02 -0.13365638141E+03 -0.15353886153E+03  0.23927063643E+03  0.12508749697E+03 0.  0.
         24    2    1    2    0    0  0.54337097894E+01  0.94428040336E+02  0.20315608020E+03  0.23855822785E+03  0.81801315106E+02 0.  0.
        -11    1    5    5    0    0  0.35047348358E+02  0.11741848563E+02  0.53330640269E+02  0.64887169965E+02  0.00000000000E+00 0.  1.
         12    1    5    5    0    0 -0.29613638569E+02  0.82686191773E+02  0.14982543993E+03  0.17367105789E+03  0.00000000000E+00 0. -1.
         11    1    3    3    0    0  0.41566161238E+02  0.90136860416E+01 -0.69404244990E+03  0.69534445748E+03  0.00000000000E+00 0. -1.
        -12    1    3    3    0    0 -0.34141205943E+02  0.30214655036E+02 -0.91881336752E+03  0.91994377636E+03  0.00000000000E+00 0.  1.
          5    1    4    4  501    0 -0.57984495486E+02 -0.10800541453E+03 -0.13863143455E+03  0.18510407432E+03  0.41800000000E+01 0. -1.
         -5    1    4    4    0  501  0.45125830402E+02 -0.25650966884E+02 -0.14907426979E+02  0.54166562109E+02  0.41800000000E+01 0. -1.
</event>
<event>
11    1  0.1078607E-008  0.2795430E+03  0.7561462E-02  0.1009241E+00
         22   -1    0    0    0    0  0.00000000000E+00  0.00000000000E+00  0.26743186773E+03  0.26743186773E+03  0.00000000000E+00 0.  1.
         22   -1    0    0    0    0 -0.00000000000E+00 -0.00000000000E+00 -0.68387204811E+03  0.68387204811E+03  0.00000000000E+00 0. -1.
        -24    2    1    2    0    0  0.17741704466E+03 -0.15092844354E+03 -0.43096098555E+03  0.49652835152E+03  0.80974255172E+02 0.  0.
         25    2    1    2    0    0  0.80657264638E+01 -0.53290792732E+02 -0.72833799384E+02  0.15445938918E+03  0.12509187039E+03 0.  0.
         24    2    1    2    0    0 -0.18548277112E+03  0.20421923627E+03  0.87354604547E+02  0.30031617514E+03  0.80309546576E+02 0.  0.
        -11    1    5    5    0    0 -0.17476504208E+03  0.14591407470E+03  0.62997357223E+02  0.23622532494E+03  0.00000000000E+00 0.  1.
         12    1    5    5    0    0 -0.10717729040E+02  0.58305161575E+02  0.24357247324E+02  0.64090850199E+02  0.00000000000E+00 0. -1.
         13    1    3    3    0    0  0.78879809284E+02 -0.57971920731E+02 -0.26375166318E+03  0.28133202402E+03  0.00000000000E+00 0. -1.
        -14    1    3    3    0    0  0.98537235372E+02 -0.92956522808E+02 -0.16720932236E+03  0.21519632751E+03  0.00000000000E+00 0.  1.
          5    1    4    4  501    0  0.49005668325E+02 -0.74944847578E+02 -0.45688769792E+02  0.10061422261E+03  0.41800000000E+01 0. -1.
         -5    1    4    4    0  501 -0.40939941862E+02  0.21654054846E+02 -0.27145029591E+02  0.53845166565E+02  0.41800000000E+01 0. -1.
</event>
<event>
11    1  0.1078607E-008  0.1317836E+03  0.7561462E-02  0.1117097E+00
         22   -1    0    0    0    0  0.00000000000E+00  0.00000000000E+00  0.15281886230E+04  0.15281886230E+04  0.00000000000E+00 0. -1.
         22   -1    0    0    0    0 -0.00000000000E+00 -0.00000000000E+00 -0.10673658802E+03  0.10673658802E+03  0.00000000000E+00 0.  1.
        -24    2    1    2    0    0 -0.40904666363E+02  0.18546396956E+02 -0.57216344294E+02  0.10846547664E+03  0.80460480969E+02 0.  0.
         25    2    1    2    0    0  0.47027563270E+01 -0.28769684944E+02  0.16166080223E+03  0.20646603649E+03  0.12507677066E+03 0.  0.
         24    2    1    2    0    0  0.36201910036E+02  0.10223287988E+02  0.13170075770E+04  0.13199936979E+04  0.80369836114E+02 0.  0.
        -11    1    5    5    0    0 -0.18079060463E+01  0.70445686690E+01  0.96695217819E+01  0.12099343928E+02  0.00000000000E+00 0.  1.
         12    1    5    5    0    0  0.38009816082E+02  0.31787193189E+01  0.13073380552E+04  0.13078943539E+04  0.00000000000E+00 0. -1.
         13    1    3    3    0    0  0.20874328583E+02  0.45110996995E+01 -0.35621547650E+02  0.41532905885E+02  0.00000000000E+00 0. -1.
        -14    1    3    3    0    0 -0.61778994946E+02  0.14035297256E+02 -0.21594796645E+02  0.66932570754E+02  0.00000000000E+00 0.  1.
          5    1    4    4  501    0 -0.20489304857E+02 -0.73527598599E+02  0.10497356903E+03  0.12985777591E+03  0.41800000000E+01 0.  1.
         -5    1    4    4    0  501  0.25192061184E+02  0.44757913655E+02  0.56687233206E+02  0.76608260586E+02  0.41800000000E+01 0.  1.
</event>
<event>
11    1  0.1078607E-008  0.3874843E+03  0.7561462E-02  0.9687425E-01
         22   -1    0    0    0    0  0.00000000000E+00  0.00000000000E+00  0.33746733049E+04  0.33746733049E+04  0.00000000000E+00 0. -1.
         22   -1    0    0    0    0 -0.00000000000E+00 -0.00000000000E+00 -0.18661324132E+03  0.18661324132E+03  0.00000000000E+00 0. -1.
         24    2    1    2    0    0 -0.54957879280E+02  0.32821077885E+03  0.13195263645E+03  0.36688605256E+03  0.80319321779E+02 0.  0.
         25    2    1    2    0    0  0.63787262846E+02 -0.59896053269E+03  0.16694566990E+04  0.17792009823E+04  0.12509169075E+03 0.  0.
        -24    2    1    2    0    0 -0.88293835656E+01  0.27074975384E+03  0.13866507281E+04  0.14151995113E+04  0.81277474231E+02 0.  0.
        -13    1    3    3    0    0 -0.10114667337E+02  0.19333209803E+02 -0.10005076492E+02  0.24003771625E+02  0.00000000000E+00 0.  1.
         14    1    3    3    0    0 -0.44843211943E+02  0.30887756904E+03  0.14195771294E+03  0.34288228094E+03  0.00000000000E+00 0. -1.
         11    1    5    5    0    0  0.57198709336E+01  0.17955878371E+02  0.24890440518E+03  0.24961677310E+03  0.00000000000E+00 0. -1.
        -12    1    5    5    0    0 -0.14549254499E+02  0.25279387547E+03  0.11377463230E+04  0.11655827382E+04  0.00000000000E+00 0.  1.
          5    1    4    4  501    0 -0.16220067324E+01 -0.46660102872E+03  0.12262036981E+04  0.13119878553E+04  0.41800000000E+01 0.  1.
         -5    1    4    4    0  501  0.65409269578E+02 -0.13235950397E+03  0.44325300089E+03  0.46721312700E+03  0.41800000000E+01 0.  1.
</event>
<event>
11    1  0.1078607E-008  0.5333667E+03  0.7561462E-02  0.9321905E-01
         22   -1    0    0    0    0  0.00000000000E+00  0.00000000000E+00  0.24726222858E+04  0.24726222858E+04  0.00000000000E+00 0. -1.
         22   -1    0    0    0    0 -0.00000000000E+00 -0.00000000000E+00 -0.12970452037E+04  0.12970452037E+04  0.00000000000E+00 0. -1.
         24    2    1    2    0    0 -0.26227400049E+03 -0.45837488840E+03 -0.11807317897E+04  0.12958753475E+04  0.79184388351E+02 0.  0.
         25    2    1    2    0    0 -0.87961851384E+02  0.84440677752E+02  0.25259659452E+03  0.30711429004E+03  0.12508649896E+03 0.  0.
        -24    2    1    2    0    0  0.35023585188E+03  0.37393421065E+03  0.21037122773E+04  0.21666778519E+04  0.79972636725E+02 0.  0.
        -13    1    3    3    0    0 -0.17232516995E+03 -0.33610628804E+03 -0.76187490336E+03  0.85036272815E+03  0.00000000000E+00 0.  1.
         14    1    3    3    0    0 -0.89948830544E+02 -0.12226860036E+03 -0.41885688638E+03  0.44551261937E+03  0.00000000000E+00 0. -1.
         13    1    5    5    0    0  0.21667805069E+03  0.24185063626E+03  0.14846291489E+04  0.15197252441E+04  0.00000000000E+00 0. -1.
        -14    1    5    5    0    0  0.13355780119E+03  0.13208357439E+03  0.61908312841E+03  0.64695260782E+03  0.00000000000E+00 0.  1.
          5    1    4    4  501    0  0.13412338081E+02  0.67685159591E+02  0.75818533404E+02  0.10260162791E+03  0.41800000000E+01 0.  1.
         -5    1    4    4    0  501 -0.10137418947E+03  0.16755518161E+02  0.17677806112E+03  0.20451266213E+03  0.41800000000E+01 0.  1.
</event>
<event>
11    1  0.1078607E-008  0.1841683E+03  0.7561462E-02  0.1066320E+00
         22   -1    0    0    0    0  0.00000000000E+00  0.00000000000E+00  0.39970046422E+03  0.39970046422E+03  0.00000000000E+00 0. -1.
         22   -1    0    0    0    0 -0.00000000000E+00 -0.00000000000E+00 -0.34624303062E+03  0.34624303062E+03  0.00000000000E+00 0.  1.
         24    2    1    2    0    0  0.13165452818E+03  0.80196738004E+02 -0.24129821054E+03  0.29746604919E+03  0.80602682551E+02 0.  0.
         25    2    1    2    0    0 -0.66844218841E+02 -0.43553320566E+02  0.14793739815E+02  0.14910403565E+03  0.12509243536E+03 0.  0.
        -24    2    1    2    0    0 -0.64810309336E+02 -0.36643417437E+02  0.27996190431E+03  0.29937341001E+03  0.75515922272E+02 0.  0.
        -11    1    3    3    0    0  0.12872476146E+03  0.47183823257E+02 -0.21572322394E+03  0.25560298656E+03  0.00000000000E+00 0.  1.
         12    1    3    3    0    0  0.29297667147E+01  0.33012914747E+02 -0.25574986593E+02  0.41863062624E+02  0.00000000000E+00 0. -1.
         11    1    5    5    0    0 -0.34272471344E+02  0.93471431475E+01  0.19389723547E+03  0.19712460349E+03  0.00000000000E+00 0. -1.
        -12    1    5    5    0    0 -0.30537837992E+02 -0.45990560585E+02  0.86064668840E+02  0.10224880652E+03  0.00000000000E+00 0.  1.
          5    1    4    4  501    0  0.30667917270E+01 -0.65886208750E+02 -0.18168510425E+02  0.68541701803E+02  0.41800000000E+01 0.  1.
         -5    1    4    4    0  501 -0.69911010568E+02  0.22332888184E+02  0.32962250240E+02  0.80562333842E+02  0.41800000000E+01 0.  1.
</event>
<event>
11    1  0.1078607E-008  0.1592217E+03  0.7561462E-02  0.1087812E+00
         22   -1    0    0    0    0  0.00000000000E+00  0.00000000000E+00  0.77834804898E+03  0.77834804898E+03  0.00000000000E+00 0. -1.
         22   -1    0    0    0    0 -0.00000000000E+00 -0.00000000000E+00 -0.31881081817E+03  0.31881081817E+03  0.00000000000E+00 0. -1.
        -24    2    1    2    0    0  0.77132972826E+02  0.35520534578E+01 -0.19504688785E+03  0.22002067931E+03  0.66360366796E+02 0.  0.
         25    2    1    2    0    0 -0.13226967334E+03 -0.81931705036E+02 -0.10346279879E+02  0.19991067762E+03  0.12509661363E+03 0.  0.
         24    2    1    2    0    0  0.55136700516E+02  0.78379651579E+02  0.66493039855E+03  0.67722751023E+03  0.85564245860E+02 0.  0.
        -11    1    5    5    0    0  0.23717201980E+02 -0.14555902527E+02  0.98111750549E+02  0.10198183938E+03  0.00000000000E+00 0.  1.
         12    1    5    5    0    0  0.31419498536E+02  0.92935554106E+02  0.56681864800E+03  0.57524567084E+03  0.00000000000E+00 0. -1.
         11    1    3    3    0    0  0.39625072573E+02  0.33170602861E+02 -0.77704767370E+02  0.93319162783E+02  0.00000000000E+00 0. -1.
        -12    1    3    3    0    0  0.37507900253E+02 -0.29618549403E+02 -0.11734212048E+03  0.12670151652E+03  0.00000000000E+00 0.  1.
          5    1    4    4  501    0 -0.40677094066E+02 -0.50390592291E+02 -0.62255861054E+02  0.89928318169E+02  0.41800000000E+01 0. -1.
         -5    1    4    4    0  501 -0.91592579276E+02 -0.31541112745E+02  0.51909581176E+02  0.10998235945E+03  0.41800000000E+01 0. -1.
</event>
<event>
11    1  0.1078607E-008  0.1602776E+03  0.7561462E-02  0.1086816E+00
         22   -1    0    0    0    0  0.00000000000E+00  0.00000000000E+00  0.10954467638E+04  0.10954467638E+04  0.00000000000E+00 0. -1.
         22   -1    0    0    0    0 -0.00000000000E+00 -0.00000000000E+00 -0.64737789523E+02  0.64737789523E+02  0.00000000000E+00 0.  1.
         24    2    1    2    0    0 -0.21096133271E+02 -0.74228267682E+01  0.18271958370E+02  0.89876627559E+02  0.85110507709E+02 0.  0.
         25    2    1    2    0    0  0.10131015130E+03  0.60628400786E+02  0.28889494139E+03  0.33622409321E+03  0.12508718544E+03 0.  0.
        -24    2    1    2    0    0 -0.80214018031E+02 -0.53205574018E+02  0.72354207450E+03  0.73408383253E+03  0.78107732092E+02 0.  0.
        -13    1    3    3    0    0  0.57121429902E+01 -0.16102121772E+02 -0.29686908850E+02  0.34252291312E+02  0.00000000000E+00 0.  1.
         14    1    3    3    0    0 -0.26808276261E+02  0.86792950036E+01  0.47958867220E+02  0.55624336246E+02  0.00000000000E+00 0. -1.
         11    1    5    5    0    0 -0.10958887371E+02 -0.50201070698E+02  0.39348840222E+03  0.39682914131E+03  0.00000000000E+00 0. -1.
        -12    1    5    5    0    0 -0.69255130660E+02 -0.30045033195E+01  0.33005367228E+03  0.33725469122E+03  0.00000000000E+00 0.  1.
          5    1    4    4  501    0  0.34670204256E+02 -0.38800174048E+02  0.90955430654E+02  0.10487058374E+03  0.41800000000E+01 0. -1.
         -5    1    4    4    0  501  0.66639947046E+02  0.99428574834E+02  0.19793951073E+03  0.23135350947E+03  0.41800000000E+01 0. -1.
</event>
<event>
11    1  0.1078607E-008  0.1601157E+03  0.7561462E-02  0.1086969E+00
         22   -1    0    0    0    0  0.00000000000E+00  0.00000000000E+00  0.23188713244E+04  0.23188713244E+04  0.00000000000E+00 0.  1.
         22   -1    0    0    0    0 -0.00000000000E+00 -0.00000000000E+00 -0.18903428745E+04  0.18903428745E+04  0.00000000000E+00 0.  1.
         24    2    1    2    0    0 -0.75118560114E+02 -0.72382114814E+02 -0.17544055964E+04  0.17593893982E+04  0.81425359756E+02 0.  0.
         25    2    1    2    0    0  0.64188107642E+02 -0.20849604808E+02 -0.93445100637E+02  0.17009773197E+03  0.12508570024E+03 0.  0.
        -24    2    1    2    0    0  0.10930452471E+02  0.93231719623E+02  0.22763791470E+04  0.22797270686E+04  0.80261187067E+02 0.  0.
        -11    1    3    3    0    0 -0.37145202782E+02  0.12176932712E+02 -0.59651996077E+03  0.59779938723E+03  0.00000000000E+00 0.  1.
         12    1    3    3    0    0 -0.37973357331E+02 -0.84559047526E+02 -0.11578856357E+04  0.11615900110E+04  0.00000000000E+00 0. -1.
         13    1    5    5    0    0  0.15912403321E+02  0.57705231357E+02  0.60307450679E+03  0.60603791882E+03  0.00000000000E+00 0. -1.
        -14    1    5    5    0    0 -0.49819508502E+01  0.35526488265E+02  0.16733046402E+04  0.16736891498E+04  0.00000000000E+00 0.  1.
          5    1    4    4  501    0 -0.14597827046E+02 -0.48428420819E+02 -0.94883456752E+01  0.51632447174E+02  0.41800000000E+01 0.  1.
         -5    1    4    4    0  501  0.78785934689E+02  0.27578816011E+02 -0.83956754962E+02  0.11846528479E+03  0.41800000000E+01 0.  1.
</event>
<event>
11    1  0.1078607E-008  0.1700669E+03  0.7561462E-02  0.1077973E+00
         22   -1    0    0    0    0  0.00000000000E+00  0.00000000000E+00  0.14242238273E+04  0.14242238273E+04  0.00000000000E+00 0. -1.
         22   -1    0    0    0    0 -0.00000000000E+00 -0.00000000000E+00 -0.17303719315E+04  0.17303719315E+04  0.00000000000E+00 0.  1.
        -24    2    1    2    0    0 -0.46901427816E+02  0.46155359094E+02 -0.16821574227E+04  0.16853745126E+04  0.80644849694E+02 0.  0.
         25    2    1    2    0    0  0.85631024049E+02  0.64941842527E+02  0.11814639895E+03  0.20286954370E+03  0.12508942796E+03 0.  0.
         24    2    1    2    0    0 -0.38729596233E+02 -0.11109720162E+03  0.12578629195E+04  0.12663517025E+04  0.87091561810E+02 0.  0.
        -13    1    5    5    0    0 -0.15794964997E+02  0.12714647403E+02  0.15349475016E+03  0.15482823226E+03  0.00000000000E+00 0.  1.
         14    1    5    5    0    0 -0.22934631236E+02 -0.12381184902E+03  0.11043681694E+04  0.11115234702E+04  0.00000000000E+00 0. -1.
         11    1    3    3    0    0  0.58154475310E+01 -0.10267807721E+02 -0.72863884693E+03  0.72873439370E+03  0.00000000000E+00 0. -1.
        -12    1    3    3    0    0 -0.52716875347E+02  0.56423166814E+02 -0.95351857577E+03  0.95664011887E+03  0.00000000000E+00 0.  1.
          5    1    4    4  501    0  0.10771871979E+03  0.37634382431E+02  0.12223046823E+03  0.16726454824E+03  0.41800000000E+01 0. -1.
         -5    1    4    4    0  501 -0.22087695741E+02  0.27307460096E+02 -0.40840692858E+01  0.35604995463E+02  0.41800000000E+01 0. -1.
</event>
<event>
11    1  0.1078607E-008  0.1457803E+03  0.7561462E-02  0.1101270E+00
         22   -1    0    0    0    0  0.00000000000E+00  0.00000000000E+00  0.21080623501E+04  0.21080623501E+04  0.00000000000E+00 0. -1.
         22   -1    0    0    0    0 -0.00000000000E+00 -0.00000000000E+00 -0.17259803458E+03  0.17259803458E+03  0.00000000000E+00 0. -1.
         24    2    1    2    0    0 -0.53493081561E+02 -0.53570197027E+02 -0.14370209945E+03  0.18136408928E+03  0.80693021445E+02 0.  0.
         25    2    1    2    0    0  0.31156590473E+02 -0.33842538687E+02  0.57638192025E+03  0.59158813675E+03  0.12507739604E+03 0.  0.
        -24    2    1    2    0    0  0.22336491089E+02  0.87412735715E+02  0.15027844947E+04  0.15077081587E+04  0.81748081885E+02 0.  0.
        -11    1    3    3    0    0 -0.53666229869E+02 -0.23361543782E+02 -0.34240241932E+02  0.67810177140E+02  0.00000000000E+00 0.  1.
         12    1    3    3    0    0  0.17314830744E+00 -0.30208653245E+02 -0.10946185752E+03  0.11355391214E+03  0.00000000000E+00 0. -1.
         11    1    5    5    0    0 -0.19407162135E+02  0.55418486065E+02  0.48097048044E+03  0.48454148387E+03  0.00000000000E+00 0. -1.
        -12    1    5    5    0    0  0.41743653224E+02  0.31994249650E+02  0.10218140143E+04  0.10231666748E+04  0.00000000000E+00 0.  1.
          5    1    4    4  501    0 -0.45971726479E+02  0.53464195991E+01  0.21631555197E+03  0.22125070454E+03  0.41800000000E+01 0.  1.
         -5    1    4    4    0  501  0.77128316952E+02 -0.39188958286E+02  0.36006636828E+03  0.37033743221E+03  0.41800000000E+01 0.  1.
</event>
<event>
11    1  0.1078607E-008  0.1403417E+03  0.7561462E-02  0.1107177E+00
         22   -1    0    0    0    0  0.00000000000E+00  0.00000000000E+00  0.62609475388E+03  0.62609475388E+03  0.00000000000E+00 0.  1.
         22   -1    0    0    0    0 -0.00000000000E+00 -0.00000000000E+00 -0.18434955814E+03  0.18434955814E+03  0.00000000000E+00 0. -1.
        -24    2    1    2    0    0  0.48750912059E+02 -0.32525301684E+02 -0.10150935103E+03  0.14169909527E+03  0.79623731255E+02 0.  0.
         25    2    1    2    0    0 -0.45729665424E+02  0.91295950261E+02  0.54903847863E+02  0.17055423424E+03  0.12509261158E+03 0.  0.
         24    2    1    2    0    0 -0.30212466347E+01 -0.58770648577E+02  0.48835069891E+03  0.49819098250E+03  0.79023622141E+02 0.  0.
        -13    1    5    5    0    0  0.10968258370E+02  0.27331483619E+01  0.28632126566E+03  0.28654430716E+03  0.00000000000E+00 0.  1.
         14    1    5    5    0    0 -0.13989505005E+02 -0.61503796939E+02  0.20202943325E+03  0.21164667535E+03  0.00000000000E+00 0. -1.
         11    1    3    3    0    0  0.13623665116E+02 -0.46959415032E+02 -0.89295668514E+02  0.10180622440E+03  0.00000000000E+00 0. -1.
        -12    1    3    3    0    0  0.35127246943E+02  0.14434113348E+02 -0.12213682514E+02  0.39892870873E+02  0.00000000000E+00 0.  1.
          5    1    4    4  501    0 -0.41473585902E+02  0.31767415403E+02  0.87820535188E+02  0.10226996534E+03  0.41800000000E+01 0. -1.
         -5    1    4    4    0  501 -0.42560795224E+01  0.59528534858E+02 -0.32916687325E+02  0.68284268904E+02  0.41800000000E+01 0. -1.
</event>
<event>
11    1  0.1078607E-008  0.1390346E+03  0.7561462E-02  0.1108641E+00
         22   -1    0    0    0    0  0.00000000000E+00  0.00000000000E+00  0.16065692787E+03  0.16065692787E+03  0.00000000000E+00 0.  1.
         22   -1    0    0    0    0 -0.00000000000E+00 -0.00000000000E+00 -0.41439682066E+03  0.41439682066E+03  0.00000000000E+00 0.  1.
         24    2    1    2    0    0  0.59207172286E+02 -0.29665454712E+02 -0.31855597091E+03  0.33560231792E+03  0.82252542447E+02 0.  0.
         25    2    1    2    0    0  0.28664738910E+01  0.28566482517E+02  0.23037450336E+02  0.13039567483E+03  0.12509215523E+03 0.  0.
        -24    2    1    2    0    0 -0.62073646177E+02  0.10989721951E+01  0.41778627777E+02  0.10905575578E+03  0.79330692931E+02 0.  0.
        -11    1    3    3    0    0  0.72884345056E+02 -0.31532505119E+02 -0.18485912916E+03  0.20119474215E+03  0.00000000000E+00 0.  1.
         12    1    3    3    0    0 -0.13677172771E+02  0.18670504068E+01 -0.13369684174E+03  0.13440757577E+03  0.00000000000E+00 0. -1.
         11    1    5    5    0    0 -0.37623046682E+02  0.39842930956E+02  0.20071923146E+02  0.58359531249E+02  0.00000000000E+00 0. -1.
        -12    1    5    5    0    0 -0.24450599495E+02 -0.38743958761E+02  0.21706704630E+02  0.50696224534E+02  0.00000000000E+00 0.  1.
          5    1    4    4  501    0 -0.18864397190E+02  0.52318742297E+01 -0.48224099745E+02  0.52213735602E+02  0.41800000000E+01 0.  1.
         -5    1    4    4    0  501  0.21730871081E+02  0.23334608288E+02  0.71261550080E+02  0.78181939230E+02  0.41800000000E+01 0.  1.
</event>
<event>
11    1  0.1078607E-008  0.1399803E+03  0.7561462E-02  0.1107580E+00
         22   -1    0    0    0    0  0.00000000000E+00  0.00000000000E+00  0.20909813018E+03  0.20909813018E+03  0.00000000000E+00 0.  1.
         22   -1    0    0    0    0 -0.00000000000E+00 -0.00000000000E+00 -0.27464990579E+03  0.27464990579E+03  0.00000000000E+00 0.  1.
         24    2    1    2    0    0 -0.44993493895E+02  0.31079378427E+02 -0.12610559341E+03  0.16059453254E+03  0.83052037523E+02 0.  0.
         25    2    1    2    0    0  0.75909819182E+02 -0.41543027101E+02 -0.67068025540E+02  0.16623395022E+03  0.12508989730E+03 0.  0.
        -24    2    1    2    0    0 -0.30916325288E+02  0.10463648674E+02  0.12762184334E+03  0.15691955321E+03  0.85270769728E+02 0.  0.
        -11    1    3    3    0    0 -0.32778356759E+02 -0.20679809044E+02 -0.84867078205E+02  0.93297889242E+02  0.00000000000E+00 0.  1.
         12    1    3    3    0    0 -0.12215137136E+02  0.51759187472E+02 -0.41238515200E+02  0.67296643296E+02  0.00000000000E+00 0. -1.
         13    1    5    5    0    0  0.12627524789E+02  0.32292423332E+02  0.23266689128E+02  0.41756362508E+02  0.00000000000E+00 0. -1.
        -14    1    5    5    0    0 -0.43543850076E+02 -0.21828774658E+02  0.10435515421E+03  0.11516319070E+03  0.00000000000E+00 0.  1.
          5    1    4    4  501    0 -0.11178609650E+01 -0.13356650604E+01  0.33189842983E+02  0.33497338574E+02  0.41800000000E+01 0. -1.
         -5    1    4    4    0  501  0.77027680147E+02 -0.40207362041E+02 -0.10025786852E+03  0.13273661165E+03  0.41800000000E+01 0. -1.
</event>
<event>
11    1  0.1078607E-008  0.1571073E+03  0.7561462E-02  0.1089830E+00
         22   -1    0    0    0    0  0.00000000000E+00  0.00000000000E+00  0.15638089234E+04  0.15638089234E+04  0.00000000000E+00 0. -1.
         22   -1    0    0    0    0 -0.00000000000E+00 -0.00000000000E+00 -0.29280180273E+03  0.29280180273E+03  0.00000000000E+00 0. -1.
         24    2    1    2    0    0 -0.42313272410E+02 -0.83754597509E+02 -0.23416041799E+03  0.26527027393E+03  0.82048590777E+02 0.  0.
         25    2    1    2    0    0  0.99512096825E+02  0.71015326348E+02  0.14385480345E+03  0.22646656243E+03  0.12508823059E+03 0.  0.
        -24    2    1    2    0    0 -0.57198824415E+02  0.12739271161E+02  0.13613127353E+04  0.13648738898E+04  0.79210967542E+02 0.  0.
        -13    1    3    3    0    0  0.23636335337E+02 -0.14542095768E+02 -0.70007733213E+02  0.75307580011E+02  0.00000000000E+00 0.  1.
         14    1    3    3    0    0 -0.65949607747E+02 -0.69212501740E+02 -0.16415268478E+03  0.18996269392E+03  0.00000000000E+00 0. -1.
         11    1    5    5    0    0 -0.34453604685E+02 -0.88725713224E+01  0.12006059529E+04  0.12011329767E+04  0.00000000000E+00 0. -1.
        -12    1    5    5    0    0 -0.22745219730E+02  0.21611842483E+02  0.16070678231E+03  0.16374091314E+03  0.00000000000E+00 0.  1.
          5    1    4    4  501    0  0.24353761158E+02  0.52761622255E+02  0.13680027143E+03  0.14868988240E+03  0.41800000000E+01 0.  1.
         -5    1    4    4    0  501  0.75158335667E+02  0.18253704093E+02  0.70545320136E+01  0.77776680022E+02  0.41800000000E+01 0.  1.
</event>
<event>
11    1  0.1078607E-008  0.1450892E+03  0.7561462E-02  0.1102005E+00
         22   -1    0    0    0    0  0.00000000000E+00  0.00000000000E+00  0.52119414085E+02  0.52119414085E+02  0.00000000000E+00 0.  1.
         22   -1    0    0    0    0 -0.00000000000E+00 -0.00000000000E+00 -0.65075028136E+03  0.65075028136E+03  0.00000000000E+00 0.  1.
        -24    2    1    2    0    0  0.15725173496E+02 -0.15140918411E+02 -0.22321029884E+03  0.23926260504E+03  0.83350034006E+02 0.  0.
         25    2    1    2    0    0 -0.45272446095E+02  0.75570756965E+02 -0.27256855805E+03  0.31257263703E+03  0.12508997123E+03 0.  0.
         24    2    1    2    0    0  0.29547272599E+02 -0.60429838554E+02 -0.10285201039E+03  0.15103445338E+03  0.87795577113E+02 0.  0.
        -13    1    5    5    0    0  0.46348294610E+02 -0.63050284027E+02 -0.10790730896E+03  0.13329474880E+03  0.00000000000E+00 0.  1.
         14    1    5    5    0    0 -0.16801022011E+02  0.26204454730E+01  0.50552985711E+01  0.17739704584E+02  0.00000000000E+00 0. -1.
         11    1    3    3    0    0 -0.23671422841E+02  0.16403191246E+02 -0.40403176388E+02  0.49616706910E+02  0.00000000000E+00 0. -1.
        -12    1    3    3    0    0  0.39396596337E+02 -0.31544109657E+02 -0.18280712245E+03  0.18964589813E+03  0.00000000000E+00 0.  1.
          5    1    4    4  501    0  0.23977921580E+01  0.91133690774E+02 -0.22710788301E+03  0.24475817030E+03  0.41800000000E+01 0.  1.
         -5    1    4    4    0  501 -0.47670238253E+02 -0.15562933809E+02 -0.45460675035E+02  0.67814466734E+02  0.41800000000E+01 0.  1.
</event>
<event>
11    1  0.1078607E-008  0.1846724E+03  0.7561462E-02  0.1065925E+00
         22   -1    0    0    0    0  0.00000000000E+00  0.00000000000E+00  0.77890322944E+03  0.77890322944E+03  0.00000000000E+00 0.  1.
         22   -1    0    0    0    0 -0.00000000000E+00 -0.00000000000E+00 -0.38605899238E+03  0.38605899238E+03  0.00000000000E+00 0. -1.
        -24    2    1    2    0    0 -0.88722630142E+02 -0.33831118142E+02 -0.31816548361E+03  0.34041041868E+03  0.75058167648E+02 0.  0.
         25    2    1    2    0    0 -0.25752872983E+02 -0.68888862744E+02  0.71412191279E+02  0.16172842628E+03  0.12508995534E+03 0.  0.
         24    2    1    2    0    0  0.11447550313E+03  0.10271998089E+03  0.63959752939E+03  0.66282337685E+03  0.81202179820E+02 0.  0.
        -13    1    5    5    0    0  0.10819932125E+03  0.11516191711E+03  0.55384210368E+03  0.57594308407E+03  0.00000000000E+00 0.  1.
         14    1    5    5    0    0  0.62761818804E+01 -0.12441936226E+02  0.85755425710E+02  0.86880292787E+02  0.00000000000E+00 0. -1.
         13    1    3    3    0    0 -0.51218371391E+02 -0.56527225238E+02 -0.22157907653E+03  0.23434149422E+03  0.00000000000E+00 0. -1.
        -14    1    3    3    0    0 -0.37504258751E+02  0.22696107096E+02 -0.96586407083E+02  0.10606892445E+03  0.00000000000E+00 0.  1.
          5    1    4    4  501    0 -0.16355028411E+02 -0.92596952064E+02  0.89738631794E+02  0.13004682588E+03  0.41800000000E+01 0. -1.
         -5    1    4    4    0  501 -0.93978445726E+01  0.23708089320E+02 -0.18326440515E+02  0.31681600398E+02  0.41800000000E+01 0. -1.
</event>
<event>
11    1  0.1078607E-008  0.1354101E+03  0.7561462E-02  0.1112795E+00
         22   -1    0    0    0    0  0.00000000000E+00  0.00000000000E+00  0.13803955126E+03  0.13803955126E+03  0.00000000000E+00 0.  1.
         22   -1    0    0    0    0 -0.00000000000E+00 -0.00000000000E+00 -0.34112383606E+03  0.34112383606E+03  0.00000000000E+00 0.  1.
         24    2    1    2    0    0  0.58816888610E+02  0.30558418494E+02 -0.18344933482E+03  0.21129007248E+03  0.81219412412E+02 0.  0.
         25    2    1    2    0    0  0.85773057749E+01 -0.36515923193E+02 -0.75005691228E+02  0.15059802473E+03  0.12508768330E+03 0.  0.
        -24    2    1    2    0    0 -0.67394194385E+02  0.59575046990E+01  0.55370741259E+02  0.11727529011E+03  0.78167163085E+02 0.  0.
        -13    1    3    3    0    0  0.44838994970E+02  0.45294740671E+02 -0.17965781580E+03  0.19062811907E+03  0.00000000000E+00 0.  1.
         14    1    3    3    0    0  0.13977893639E+02 -0.14736322177E+02 -0.37915190215E+01  0.20661953402E+02  0.00000000000E+00 0. -1.
         13    1    5    5    0    0 -0.62508094576E+02  0.25559055331E+02  0.10865990704E+02  0.68400270109E+02  0.00000000000E+00 0. -1.
        -14    1    5    5    0    0 -0.48860998081E+01 -0.19601550632E+02  0.44504750555E+02  0.48875020005E+02  0.00000000000E+00 0.  1.
          5    1    4    4  501    0  0.56520704952E+02 -0.82605772649E+01 -0.75528795995E+02  0.94788705284E+02  0.41800000000E+01 0. -1.
         -5    1    4    4    0  501 -0.47943399177E+02 -0.28255345928E+02  0.52310476669E+00  0.55809319444E+02  0.41800000000E+01 0. -1.
</event>
<event>
11    1  0.1078607E-008  0.1789854E+03  0.7561462E-02  0.1070466E+00
         22   -1    0    0    0    0  0.00000000000E+00  0.00000000000E+00  0.15090759639E+04  0.15090759639E+04  0.00000000000E+00 0.  1.
         22   -1    0    0    0    0 -0.00000000000E+00 -0.00000000000E+00 -0.55149799369E+03  0.55149799369E+03  0.00000000000E+00 0.  1.
         24    2    1    2    0    0 -0.49982203141E+02  0.20507363724E+02 -0.52265479090E+03  0.53213801875E+03  0.84166905312E+02 0.  0.
         25    2    1    2    0    0  0.15314351903E+03  0.41427089130E+02  0.52855926438E+03  0.56585674032E+03  0.12509921450E+03 0.  0.
        -24    2    1    2    0    0 -0.10316131589E+03 -0.61934452854E+02  0.95167349671E+03  0.96257919852E+03  0.79988346194E+02 0.  0.
        -13    1    3    3    0    0 -0.59428604390E+02  0.44472047655E+02 -0.38234856359E+03  0.38948677271E+03  0.00000000000E+00 0.  1.
         14    1    3    3    0    0  0.94464012491E+01 -0.23964683931E+02 -0.14030622731E+03  0.14265124603E+03  0.00000000000E+00 0. -1.
         11    1    5    5    0    0 -0.80481524838E+02 -0.41654492881E+02  0.40302563515E+03  0.41308841089E+03  0.00000000000E+00 0. -1.
        -12    1    5    5    0    0 -0.22679791055E+02 -0.20279959972E+02  0.54864786156E+03  0.54949078763E+03  0.00000000000E+00 0.  1.
          5    1    4    4  501    0  0.19907846132E+02 -0.36993837510E+02  0.68163749355E+02  0.80178771988E+02  0.41800000000E+01 0.  1.
         -5    1    4    4    0  501  0.13323567290E+03  0.78420926640E+02  0.46039551502E+03  0.48567796833E+03  0.41800000000E+01 0.  1.
</event>
<event>
11    1  0.1078607E-008  0.2123368E+03  0.7561462E-02  0.1046127E+00
         22   -1    0    0    0    0  0.00000000000E+00  0.00000000000E+00  0.12117466943E+04  0.12117466943E+04  0.00000000000E+00 0.  1.
         22   -1    0    0    0    0 -0.00000000000E+00 -0.00000000000E+00 -0.43534510162E+03  0.43534510162E+03  0.00000000000E+00 0.  1.
         24    2    1    2    0    0 -0.15468575871E+03  0.32014297004E+02 -0.17141686584E+03  0.25103585182E+03  0.93180780447E+02 0.  0.
         25    2    1    2    0    0  0.14309623001E+03 -0.18081989347E+03 -0.13844197767E+03  0.29662436713E+03  0.12508984401E+03 0.  0.
        -24    2    1    2    0    0  0.11589528704E+02  0.14880559647E+03  0.10862604362E+04  0.10994315770E+04  0.80688502633E+02 0.  0.
        -11    1    3    3    0    0 -0.58001192761E+02  0.10994658666E+02 -0.13187244356E+03  0.14448308639E+03  0.00000000000E+00 0.  1.
         12    1    3    3    0    0 -0.96684565950E+02  0.21019638338E+02 -0.39544422282E+02  0.10655276544E+03  0.00000000000E+00 0. -1.
         13    1    5    5    0    0 -0.26939938220E+02  0.15982384746E+02  0.19067491360E+03  0.19323074178E+03  0.00000000000E+00 0. -1.
        -14    1    5    5    0    0  0.38529466924E+02  0.13282321172E+03  0.89558552263E+03  0.90620083521E+03  0.00000000000E+00 0.  1.
          5    1    4    4  501    0  0.16187429459E+03 -0.14582606963E+03 -0.95308687200E+02  0.23784395743E+03  0.41800000000E+01 0. -1.
         -5    1    4    4    0  501 -0.18778064581E+02 -0.34993823846E+02 -0.43133290475E+02  0.58780409695E+02  0.41800000000E+01 0. -1.
</event>
<event>
11    1  0.1078607E-008  0.1564529E+03  0.7561462E-02  0.1090462E+00
         22   -1    0    0    0    0  0.00000000000E+00  0.00000000000E+00  0.33744781745E+03  0.33744781745E+03  0.00000000000E+00 0.  1.
         22   -1    0    0    0    0 -0.00000000000E+00 -0.00000000000E+00 -0.82659865822E+03  0.82659865822E+03  0.00000000000E+00 0.  1.
        -24    2    1    2    0    0 -0.17518475879E+02  0.38949524548E+02 -0.59549091654E+03  0.60357551284E+03  0.88713051795E+02 0.  0.
         25    2    1    2    0    0 -0.19710869640E+01 -0.12890981856E+03 -0.17681635328E+03  0.25205765633E+03  0.12508961916E+03 0.  0.
         24    2    1    2    0    0  0.19489562843E+02  0.89960294009E+02  0.28315642905E+03  0.30841330650E+03  0.80427027534E+02 0.  0.
        -13    1    5    5    0    0 -0.44553163007E+01  0.92568087963E+02  0.17969982784E+03  0.20218983377E+03  0.00000000000E+00 0.  1.
         14    1    5    5    0    0  0.23944879144E+02 -0.26077939545E+01  0.10345660121E+03  0.10622347274E+03  0.00000000000E+00 0. -1.
         13    1    3    3    0    0  0.12896905720E+02  0.34347615273E+02 -0.90579000138E+02  0.97727396968E+02  0.00000000000E+00 0. -1.
        -14    1    3    3    0    0 -0.30415381599E+02  0.46019092748E+01 -0.50491191640E+03  0.50584811587E+03  0.00000000000E+00 0.  1.
          5    1    4    4  501    0  0.33692049887E+02 -0.10355341758E+03 -0.54020828202E+02  0.12163135614E+03  0.41800000000E+01 0.  1.
         -5    1    4    4    0  501 -0.35663136851E+02 -0.25356400979E+02 -0.12279552508E+03  0.13042630019E+03  0.41800000000E+01 0.  1.
</event>
<event>
11    1  0.1078607E-008  0.1515003E+03  0.7561462E-02  0.1095356E+00
         22   -1    0    0    0    0  0.00000000000E+00  0.00000000000E+00  0.18053663788E+04  0.18053663788E+04  0.00000000000E+00 0.  1.
         22   -1    0    0    0    0 -0.00000000000E+00 -0.00000000000E+00 -0.43426000165E+03  0.43426000165E+03  0.00000000000E+00 0.  1.
         24    2    1    2    0    0  0.49669562721E+02  0.32850224164E+02 -0.41800261515E+03  0.42995945274E+03  0.81195702100E+02 0.  0.
         25    2    1    2    0    0 -0.65670623536E+02  0.58328746406E+02  0.10299754122E+04  0.10412544814E+04  0.12508665699E+03 0.  0.
        -24    2    1    2    0    0  0.16001060815E+02 -0.91178970570E+02  0.75913358011E+03  0.76841244634E+03  0.74861583151E+02 0.  0.
        -11    1    3    3    0    0  0.29602790072E+02 -0.24185591232E+02 -0.12215272218E+03  0.12799435745E+03  0.00000000000E+00 0.  1.
         12    1    3    3    0    0  0.20066772649E+02  0.57035815396E+02 -0.29584989298E+03  0.30196509530E+03  0.00000000000E+00 0. -1.
         13    1    5    5    0    0 -0.11087934723E+01 -0.97962335269E+01  0.80193615608E+01  0.12708492205E+02  0.00000000000E+00 0. -1.
        -14    1    5    5    0    0  0.17109854287E+02 -0.81382737043E+02  0.75111421854E+03  0.75570395414E+03  0.00000000000E+00 0.  1.
          5    1    4    4  501    0 -0.18561624452E+02 -0.10069487235E+02  0.25623354171E+02  0.33465760927E+02  0.41800000000E+01 0. -1.
         -5    1    4    4    0  501 -0.47108999084E+02  0.68398233640E+02  0.10043520580E+04  0.10077887204E+04  0.41800000000E+01 0. -1.
</event>
<event>
11    1  0.1078607E-008  0.4671559E+03  0.7561462E-02  0.9470064E-01
         22   -1    0    0    0    0  0.00000000000E+00  0.00000000000E+00  0.73042792025E+03  0.73042792025E+03  0.00000000000E+00 0.  1.
         22   -1    0    0    0    0 -0.00000000000E+00 -0.00000000000E+00 -0.77023779621E+03  0.77023779621E+03  0.00000000000E+00 0.  1.
        -24    2    1    2    0    0 -0.14844590941E+03  0.26728495811E+03 -0.28075150435E+03  0.42346565407E+03  0.83811193329E+02 0.  0.
         25    2    1    2    0    0  0.31763948644E+03 -0.58334862487E+03  0.97140194422E+02  0.68284293407E+03  0.12509114180E+03 0.  0.
         24    2    1    2    0    0 -0.16919357703E+03  0.31606366676E+03  0.14380143397E+03  0.39435712832E+03  0.79473167139E+02 0.  0.
        -11    1    5    5    0    0 -0.11784499504E+03  0.26313799933E+03  0.86646392878E+02  0.30105920837E+03  0.00000000000E+00 0.  1.
         12    1    5    5    0    0 -0.51348581985E+02  0.52925667426E+02  0.57155041089E+02  0.93297919946E+02  0.00000000000E+00 0. -1.
         11    1    3    3    0    0 -0.94282701607E+02  0.22853129707E+03 -0.19486518782E+03  0.31478281876E+03  0.00000000000E+00 0. -1.
        -12    1    3    3    0    0 -0.54163207807E+02  0.38753661047E+02 -0.85886316528E+02  0.10868283531E+03  0.00000000000E+00 0.  1.
          5    1    4    4  501    0  0.12608127601E+03 -0.16137509317E+03  0.77460028560E+02  0.21898844097E+03  0.41800000000E+01 0.  1.
         -5    1    4    4    0  501  0.19155821043E+03 -0.42197353170E+03  0.19680165862E+02  0.46385449310E+03  0.41800000000E+01 0.  1.
</event>
<event>
11    1  0.1078607E-008  0.1784448E+03  0.7561462E-02  0.1070908E+00
         22   -1    0    0    0    0  0.00000000000E+00  0.00000000000E+00  0.56537536794E+03  0.56537536794E+03  0.00000000000E+00 0.  1.
         22   -1    0    0    0    0 -0.00000000000E+00 -0.00000000000E+00 -0.94142828938E+03  0.94142828938E+03  0.00000000000E+00 0.  1.
         24    2    1    2    0    0  0.65893128107E+02  0.11058172035E+03 -0.79379690140E+03  0.80821546469E+03  0.80799105632E+02 0.  0.
         25    2    1    2    0    0 -0.93080525484E+02 -0.78594304511E+02 -0.80395426554E+02  0.19223047019E+03  0.12509228646E+03 0.  0.
        -24    2    1    2    0    0  0.27187397377E+02 -0.31987415836E+02  0.49813940652E+03  0.50635772245E+03  0.80578690794E+02 0.  0.
        -11    1    3    3    0    0  0.31483449184E+02 -0.44936355505E+01 -0.17639550502E+03  0.17923943351E+03  0.00000000000E+00 0.  1.
         12    1    3    3    0    0  0.34409678923E+02  0.11507535590E+03 -0.61740139638E+03  0.62897603117E+03  0.00000000000E+00 0. -1.
         11    1    5    5    0    0  0.80851100139E+01 -0.46787013210E+02  0.14898045835E+03  0.15636358457E+03  0.00000000000E+00 0. -1.
        -12    1    5    5    0    0  0.19102287363E+02  0.14799597374E+02  0.34915894817E+03  0.34999413788E+03  0.00000000000E+00 0.  1.
          5    1    4    4  501    0 -0.12214078390E+03 -0.45739944698E+02 -0.57918442744E+02  0.14276740539E+03  0.41800000000E+01 0. -1.
         -5    1    4    4    0  501  0.29060258415E+02 -0.32854359813E+02 -0.22476983810E+02  0.49463064797E+02  0.41800000000E+01 0. -1.
</event>
<event>
11    1  0.1078607E-008  0.1316816E+03  0.7561462E-02  0.1117220E+00
         22   -1    0    0    0    0  0.00000000000E+00  0.00000000000E+00  0.42897264970E+03  0.42897264970E+03  0.00000000000E+00 0.  1.
         22   -1    0    0    0    0 -0.00000000000E+00 -0.00000000000E+00 -0.58285390567E+03  0.58285390567E+03  0.00000000000E+00 0. -1.
        -24    2    1    2    0    0  0.26793064438E+02 -0.54943472912E+01 -0.35695179379E+03  0.36644606080E+03  0.78230916083E+02 0.  0.
         25    2    1    2    0    0 -0.39050374661E+02  0.44447383724E+02 -0.19399931680E+03  0.23829342161E+03  0.12509004031E+03 0.  0.
         24    2    1    2    0    0  0.12257310223E+02 -0.38953036433E+02  0.39706985462E+03  0.40708707296E+03  0.79923931479E+02 0.  0.
        -13    1    5    5    0    0  0.37609331670E+02 -0.86315394346E+01  0.29697773473E+03  0.29947410610E+03  0.00000000000E+00 0.  1.
         14    1    5    5    0    0 -0.25352021447E+02 -0.30321496999E+02  0.10009211989E+03  0.10761296686E+03  0.00000000000E+00 0. -1.
         11    1    3    3    0    0 -0.23019803830E+02 -0.98621831582E+01 -0.20391595027E+03  0.20544801970E+03  0.00000000000E+00 0. -1.
        -12    1    3    3    0    0  0.49812868268E+02  0.43678358670E+01 -0.15303584353E+03  0.16099804110E+03  0.00000000000E+00 0.  1.
          5    1    4    4  501    0  0.77872212902E+01  0.73813333479E+02 -0.68474276853E+02  0.10107051007E+03  0.41800000000E+01 0.  1.
         -5    1    4    4    0  501 -0.46837595951E+02 -0.29365949754E+02 -0.12552503994E+03  0.13722291154E+03  0.41800000000E+01 0.  1.
</event>
<event>
11    1  0.1078607E-008  0.1684527E+03  0.7561462E-02  0.1079386E+00
         22   -1    0    0    0    0  0.00000000000E+00  0.00000000000E+00  0.11680822106E+04  0.11680822106E+04  0.00000000000E+00 0. -1.
         22   -1    0    0    0    0 -0.00000000000E+00 -0.00000000000E+00 -0.66108006976E+03  0.66108006976E+03  0.00000000000E+00 0. -1.
        -24    2    1    2    0    0  0.33801669206E+02 -0.10408211287E+03 -0.50484876563E+03  0.52286825284E+03  0.80890633652E+02 0.  0.
         25    2    1    2    0    0 -0.33398967946E+02  0.13074556559E+03 -0.87334108987E+02  0.20367698045E+03  0.12508865573E+03 0.  0.
         24    2    1    2    0    0 -0.40270126052E+00 -0.26663452718E+02  0.10991850154E+04  0.11026170470E+04  0.82737853354E+02 0.  0.
        -13    1    5    5    0    0 -0.55451974598E+01 -0.15994259054E+02  0.40887838197E+02  0.44253597028E+02  0.00000000000E+00 0.  1.
         14    1    5    5    0    0  0.51424961993E+01 -0.10669193664E+02  0.10582971772E+04  0.10583634500E+04  0.00000000000E+00 0. -1.
         13    1    3    3    0    0  0.44078380184E+02 -0.88240017422E+02 -0.48698589062E+03  0.49687469441E+03  0.00000000000E+00 0. -1.
        -14    1    3    3    0    0 -0.10276710977E+02 -0.15842095451E+02 -0.17862875007E+02  0.25993558439E+02  0.00000000000E+00 0.  1.
          5    1    4    4  501    0 -0.16147520974E+02 -0.54887148835E+01  0.21962305047E+02  0.28119097917E+02  0.41800000000E+01 0.  1.
         -5    1    4    4    0  501 -0.17251446972E+02  0.13623428047E+03 -0.10929641403E+03  0.17555788253E+03  0.41800000000E+01 0.  1.
</event>
<event>
11    1  0.1078607E-008  0.1330579E+03  0.7561462E-02  0.1115568E+00
         22   -1    0    0    0    0  0.00000000000E+00  0.00000000000E+00  0.10814349404E+04  0.10814349404E+04  0.00000000000E+00 0. -1.
         22   -1    0    0    0    0 -0.00000000000E+00 -0.00000000000E+00 -0.75226142662E+03  0.75226142662E+03  0.00000000000E+00 0. -1.
         24    2    1    2    0    0 -0.33011961760E+02  0.31031497197E+02 -0.73694021940E+03  0.74262354182E+03  0.79725118118E+02 0.  0.
         25    2    1    2    0    0  0.21976148135E+02 -0.50944737538E+02  0.48554731595E+03  0.50446334412E+03  0.12509497258E+03 0.  0.
        -24    2    1    2    0    0  0.11035813624E+02  0.19913240341E+02  0.58056641718E+03  0.58660948103E+03  0.80839298317E+02 0.  0.
        -11    1    3    3    0    0 -0.43123149978E+02 -0.40135117294E+01 -0.20983678728E+03  0.21425963604E+03  0.00000000000E+00 0.  1.
         12    1    3    3    0    0  0.10111188218E+02  0.35045008926E+02 -0.52710343211E+03  0.52836390577E+03  0.00000000000E+00 0. -1.
         11    1    5    5    0    0  0.15660695784E+01 -0.23423861312E+02  0.39947026921E+03  0.40015950049E+03  0.00000000000E+00 0. -1.
        -12    1    5    5    0    0  0.94697440459E+01  0.43337101653E+02  0.18109614797E+03  0.18644998054E+03  0.00000000000E+00 0.  1.
          5    1    4    4  501    0 -0.92833624831E+01  0.39373199792E+02  0.16554689743E+03  0.17046899228E+03  0.41800000000E+01 0.  1.
         -5    1    4    4    0  501  0.31259510618E+02 -0.90317937329E+02  0.32000041852E+03  0.33399435184E+03  0.41800000000E+01 0.  1.
</event>
<event>
11    1  0.1078607E-008  0.1685512E+03  0.7561462E-02  0.1079299E+00
         22   -1    0    0    0    0  0.00000000000E+00  0.00000000000E+00  0.18028276755E+04  0.18028276755E+04  0.00000000000E+00 0.  1.
         22   -1    0    0    0    0 -0.00000000000E+00 -0.00000000000E+00 -0.14862925194E+03  0.14862925194E+03  0.00000000000E+00 0.  1.
         24    2    1    2    0    0  0.10392977200E+03  0.44824620203E+02 -0.91921994662E+02  0.16759814667E+03  0.82636805237E+02 0.  0.
         25    2    1    2    0    0 -0.12338174772E+03  0.10170929106E+02  0.43839316547E+03  0.47240019052E+03  0.12508744544E+03 0.  0.
        -24    2    1    2    0    0  0.19451975720E+02 -0.54995549308E+02  0.13077272528E+04  0.13114585903E+04  0.79813385508E+02 0.  0.
        -13    1    3    3    0    0  0.60895591373E+00  0.53692290847E+01 -0.48470447441E+02  0.48770726091E+02  0.00000000000E+00 0.  1.
         14    1    3    3    0    0  0.10332081609E+03  0.39455391118E+02 -0.43451547221E+02  0.11882742058E+03  0.00000000000E+00 0. -1.
         11    1    5    5    0    0  0.18789771836E+02  0.68147536386E+01  0.75858483881E+03  0.75884811001E+03  0.00000000000E+00 0. -1.
        -12    1    5    5    0    0  0.66220388453E+00 -0.61810302947E+02  0.54914241399E+03  0.55261048027E+03  0.00000000000E+00 0.  1.
          5    1    4    4  501    0 -0.54263834439E+02 -0.13981940160E+02  0.36262850714E+03  0.36695635295E+03  0.41800000000E+01 0. -1.
         -5    1    4    4    0  501 -0.69117913286E+02  0.24152869266E+02  0.75764658329E+02  0.10544383757E+03  0.41800000000E+01 0. -1.
</event>
<event>
11    1  0.1078607E-008  0.1543233E+03  0.7561462E-02  0.1092541E+00
         22   -1    0    0    0    0  0.00000000000E+00  0.00000000000E+00  0.22264120769E+03  0.22264120769E+03  0.00000000000E+00 0.  1.
         22   -1    0    0    0    0 -0.00000000000E+00 -0.00000000000E+00 -0.18208700195E+04  0.18208700195E+04  0.00000000000E+00 0. -1.
        -24    2    1    2    0    0  0.38523509257E+02  0.79949512119E+02 -0.15740883655E+04  0.15779081310E+04  0.64528306406E+02 0.  0.
         25    2    1    2    0    0 -0.67055538159E+02 -0.97628678686E+02 -0.20321918694E+03  0.26641216932E+03  0.12509836898E+03 0.  0.
         24    2    1    2    0    0  0.28532028903E+02  0.17679166567E+02  0.17907874058E+03  0.19919092688E+03  0.80505903022E+02 0.  0.
        -11    1    5    5    0    0  0.49753140886E+02  0.33489624856E+02  0.11132076881E+03  0.12644858073E+03  0.00000000000E+00 0.  1.
         12    1    5    5    0    0 -0.21221111984E+02 -0.15810458289E+02  0.67757971765E+02  0.72742346146E+02  0.00000000000E+00 0. -1.
         11    1    3    3    0    0 -0.60310721147E+01  0.44710833401E+02 -0.99973397100E+03  0.10007514403E+04  0.00000000000E+00 0. -1.
        -12    1    3    3    0    0  0.44554581371E+02  0.35238678718E+02 -0.57435439450E+03  0.57715669076E+03  0.00000000000E+00 0.  1.
          5    1    4    4  501    0 -0.98093842563E+02 -0.43736604589E+02 -0.14949145089E+03  0.18412077237E+03  0.41800000000E+01 0.  1.
         -5    1    4    4    0  501  0.31038304404E+02 -0.53892074097E+02 -0.53727736051E+02  0.82291396949E+02  0.41800000000E+01 0.  1.
</event>
<event>
11    1  0.1078607E-008  0.2219986E+03  0.7561462E-02  0.1039973E+00
         22   -1    0    0    0    0  0.00000000000E+00  0.00000000000E+00  0.87563148965E+03  0.87563148965E+03  0.00000000000E+00 0.  1.
         22   -1    0    0    0    0 -0.00000000000E+00 -0.00000000000E+00 -0.27220876149E+03  0.27220876149E+03  0.00000000000E+00 0. -1.
         24    2    1    2    0    0 -0.18155105616E+03 -0.77396384613E+01 -0.13740625164E+03  0.24257690986E+03  0.83321013036E+02 0.  0.
         25    2    1    2    0    0  0.18796550567E+03  0.17181794561E+02  0.81452419617E+02  0.24063713560E+03  0.12508192909E+03 0.  0.
        -24    2    1    2    0    0 -0.64144495120E+01 -0.94421560999E+01  0.65937656018E+03  0.66462620567E+03  0.82584778757E+02 0.  0.
        -13    1    3    3    0    0 -0.11759623243E+02  0.32412778875E+01  0.11283003594E+02  0.16616280909E+02  0.00000000000E+00 0.  1.
         14    1    3    3    0    0 -0.16979143291E+03 -0.10980916349E+02 -0.14868925523E+03  0.22596062895E+03  0.00000000000E+00 0. -1.
         11    1    5    5    0    0 -0.24715329945E+02  0.27248428720E+02  0.19475147890E+03  0.19819551694E+03  0.00000000000E+00 0. -1.
        -12    1    5    5    0    0  0.18300880433E+02 -0.36690584819E+02  0.46462508128E+03  0.46643068874E+03  0.00000000000E+00 0.  1.
          5    1    4    4  501    0  0.17869330992E+03  0.42694948754E+02  0.35598589431E+02  0.18718677739E+03  0.41800000000E+01 0.  1.
         -5    1    4    4    0  501  0.92721957505E+01 -0.25513154193E+02  0.45853830186E+02  0.53450358218E+02  0.41800000000E+01 0.  1.
</event>
<event>
11    1  0.1078607E-008  0.3837922E+03  0.7561462E-02  0.9698829E-01
         22   -1    0    0    0    0  0.00000000000E+00  0.00000000000E+00  0.19528979601E+04  0.19528979601E+04  0.00000000000E+00 0. -1.
         22   -1    0    0    0    0 -0.00000000000E+00 -0.00000000000E+00 -0.17500604408E+04  0.17500604408E+04  0.00000000000E+00 0. -1.
        -24    2    1    2    0    0  0.77122980924E+01 -0.44607651665E+02 -0.14822551034E+04  0.14858755884E+04  0.93256369980E+02 0.  0.
         25    2    1    2    0    0  0.34542206479E+03  0.12706473198E+03 -0.93745740956E+02  0.39986883063E+03  0.12507984972E+03 0.  0.
         24    2    1    2    0    0 -0.35313436288E+03 -0.82457080315E+02  0.17788383637E+04  0.18172139819E+04  0.80608209527E+02 0.  0.
        -11    1    5    5    0    0 -0.13648973138E+03 -0.50347566613E+01  0.80998844600E+03  0.82142320286E+03  0.00000000000E+00 0.  1.
         12    1    5    5    0    0 -0.21664463150E+03 -0.77422323653E+02  0.96884991771E+03  0.99579077904E+03  0.00000000000E+00 0. -1.
         13    1    3    3    0    0  0.26825465386E+02 -0.62283856709E+02 -0.72278076962E+03  0.72595518135E+03  0.00000000000E+00 0. -1.
        -14    1    3    3    0    0 -0.19113167294E+02  0.17676205045E+02 -0.75947433378E+03  0.75992040706E+03  0.00000000000E+00 0.  1.
          5    1    4    4  501    0  0.13141314351E+03  0.19191480646E+02 -0.89372947262E+02  0.16013345472E+03  0.41800000000E+01 0. -1.
         -5    1    4    4    0  501  0.21400892128E+03  0.10787325133E+03 -0.43727936941E+01  0.23973537591E+03  0.41800000000E+01 0. -1.
</event>
<event>
11    1  0.1078607E-008  0.1501182E+03  0.7561462E-02  0.1096758E+00
         22   -1    0    0    0    0  0.00000000000E+00  0.00000000000E+00  0.19594807468E+03  0.19594807468E+03  0.00000000000E+00 0. -1.
         22   -1    0    0    0    0 -0.00000000000E+00 -0.00000000000E+00 -0.77354343259E+03  0.77354343259E+03  0.00000000000E+00 0.  1.
        -24    2    1    2    0    0 -0.34412575313E+02 -0.61511797634E+02 -0.53135030444E+03  0.54391987283E+03  0.92454072039E+02 0.  0.
         25    2    1    2    0    0  0.11262388486E+03  0.40534147542E+02 -0.17702213622E+03  0.24761363360E+03  0.12509403772E+03 0.  0.
         24    2    1    2    0    0 -0.78211309544E+02  0.20977650093E+02  0.13077708275E+03  0.17795800085E+03  0.89494882247E+02 0.  0.
        -11    1    5    5    0    0 -0.60356615597E+01  0.31499423173E+02  0.87392640882E+02  0.93091978983E+02  0.00000000000E+00 0.  1.
         12    1    5    5    0    0 -0.72175647984E+02 -0.10521773080E+02  0.43384441872E+02  0.84866021865E+02  0.00000000000E+00 0. -1.
         11    1    3    3    0    0 -0.13655042065E+02 -0.80513096748E+02 -0.46051146955E+03  0.46769608990E+03  0.00000000000E+00 0. -1.
        -12    1    3    3    0    0 -0.20757533248E+02  0.19001299113E+02 -0.70838834892E+02  0.76223782925E+02  0.00000000000E+00 0.  1.
          5    1    4    4  501    0  0.12146715424E+03  0.66520681353E+02 -0.16935099758E+03  0.21880700032E+03  0.41800000000E+01 0. -1.
         -5    1    4    4    0  501 -0.88432693784E+01 -0.25986533811E+02 -0.76711386366E+01  0.28806633277E+02  0.41800000000E+01 0. -1.
</event>
<event>
11    1  0.1078607E-008  0.1534593E+03  0.7561462E-02  0.1093396E+00
         22   -1    0    0    0    0  0.00000000000E+00  0.00000000000E+00  0.16690805081E+04  0.16690805081E+04  0.00000000000E+00 0. -1.
         22   -1    0    0    0    0 -0.00000000000E+00 -0.00000000000E+00 -0.48546086160E+03  0.48546086160E+03  0.00000000000E+00 0.  1.
        -24    2    1    2    0    0 -0.19026652222E+02 -0.26734037911E+02 -0.43313131096E+03  0.44170338459E+03  0.80140034606E+02 0.  0.
         25    2    1    2    0    0 -0.69896861662E+02  0.12489949070E+02  0.67800131683E+02  0.15901377806E+03  0.12508778381E+03 0.  0.
         24    2    1    2    0    0  0.88923513885E+02  0.14244088841E+02  0.15489508258E+04  0.15538242071E+04  0.83730044684E+02 0.  0.
        -13    1    5    5    0    0  0.23592135232E+01  0.24972100962E+02  0.14400375466E+03  0.14617199825E+03  0.00000000000E+00 0.  1.
         14    1    5    5    0    0  0.86564300361E+02 -0.10728012121E+02  0.14049470711E+04  0.14076522088E+04  0.00000000000E+00 0. -1.
         13    1    3    3    0    0  0.35023790704E+01 -0.12918724832E+02 -0.76796042795E+01  0.15431669784E+02  0.00000000000E+00 0. -1.
        -14    1    3    3    0    0 -0.22529031293E+02 -0.13815313079E+02 -0.42545170668E+03  0.42627171481E+03  0.00000000000E+00 0.  1.
          5    1    4    4  501    0 -0.45870271204E+02  0.65224373332E+02  0.16562916602E+02  0.81548165297E+02  0.41800000000E+01 0. -1.
         -5    1    4    4    0  501 -0.24026590458E+02 -0.52734424262E+02  0.51237215081E+02  0.77465612762E+02  0.41800000000E+01 0. -1.
</event>
<event>
11    1  0.1078607E-008  0.1361079E+03  0.7561462E-02  0.1111984E+00
         22   -1    0    0    0    0  0.00000000000E+00  0.00000000000E+00  0.15039880486E+03  0.15039880486E+03  0.00000000000E+00 0. -1.
         22   -1    0    0    0    0 -0.00000000000E+00 -0.00000000000E+00 -0.15698455436E+04  0.15698455436E+04  0.00000000000E+00 0. -1.
        -24    2    1    2    0    0  0.27259005143E+02 -0.11216444215E+02 -0.13954279641E+04  0.13983614261E+04  0.85595636491E+02 0.  0.
         25    2    1    2    0    0  0.20171598286E+02 -0.20181168786E+02 -0.12678798835E+03  0.18037954550E+03  0.12508962185E+03 0.  0.
         24    2    1    2    0    0 -0.47430603429E+02  0.31397613000E+02  0.10276921375E+03  0.14150337684E+03  0.78906413674E+02 0.  0.
        -13    1    5    5    0    0  0.13587661360E+02  0.26184347351E+02  0.11650648567E+02  0.31717222443E+02  0.00000000000E+00 0.  1.
         14    1    5    5    0    0 -0.61018264789E+02  0.52132656488E+01  0.91118565179E+02  0.10978615440E+03  0.00000000000E+00 0. -1.
         11    1    3    3    0    0  0.15094674089E+02  0.27738456550E+02 -0.22316367820E+03  0.22538699702E+03  0.00000000000E+00 0. -1.
        -12    1    3    3    0    0  0.12164331054E+02 -0.38954900765E+02 -0.11722642859E+04  0.11729744291E+04  0.00000000000E+00 0.  1.
          5    1    4    4  501    0 -0.26973552788E+02 -0.44928814506E+02 -0.12217255325E+02  0.53971331747E+02  0.41800000000E+01 0. -1.
         -5    1    4    4    0  501  0.47145151074E+02  0.24747645720E+02 -0.11457073302E+03  0.12640821375E+03  0.41800000000E+01 0. -1.
</event>
<event>
11    1  0.1078607E-008  0.2480654E+03  0.7561462E-02  0.1024935E+00
         22   -1    0    0    0    0  0.00000000000E+00  0.00000000000E+00  0.36332765522E+04  0.36332765522E+04  0.00000000000E+00 0. -1.
         22   -1    0    0    0    0 -0.00000000000E+00 -0.00000000000E+00 -0.86537173315E+03  0.86537173315E+03  0.00000000000E+00 0.  1.
         24    2    1    2    0    0  0.14870754770E+02 -0.21464451845E+03 -0.84185879101E+03  0.87265500699E+03  0.80666774973E+02 0.  0.
         25    2    1    2    0    0 -0.18000208295E+02  0.13565351534E+03  0.12615303174E+04  0.12750813287E+04  0.12509104471E+03 0.  0.
        -24    2    1    2    0    0  0.31294535253E+01  0.78991003107E+02  0.23482332927E+04  0.23509119496E+04  0.79611720529E+02 0.  0.
        -13    1    3    3    0    0  0.11056762837E+02 -0.21470987067E+03 -0.84181994051E+03  0.86884025736E+03  0.00000000000E+00 0.  1.
         14    1    3    3    0    0  0.38139919330E+01  0.65352225725E-01 -0.38850495395E-01  0.38147496300E+01  0.00000000000E+00 0. -1.
         11    1    5    5    0    0 -0.12752166425E+02  0.39260580029E+02  0.19406482581E+04  0.19410872398E+04  0.00000000000E+00 0. -1.
        -12    1    5    5    0    0  0.15881619950E+02  0.39730423079E+02  0.40758503459E+03  0.40982470984E+03  0.00000000000E+00 0.  1.
          5    1    4    4  501    0 -0.36092524646E+02 -0.66267820757E+01  0.39811893182E+03  0.39982838925E+03  0.41800000000E+01 0. -1.
         -5    1    4    4    0  501  0.18092316351E+02  0.14228029741E+03  0.86341138555E+03  0.87525293946E+03  0.41800000000E+01 0. -1.
</event>
<event>
11    1  0.1078607E-008  0.1590672E+03  0.7561462E-02  0.1087958E+00
         22   -1    0    0    0    0  0.00000000000E+00  0.00000000000E+00  0.20322126638E+04  0.20322126638E+04  0.00000000000E+00 0. -1.
         22   -1    0    0    0    0 -0.00000000000E+00 -0.00000000000E+00 -0.30062519535E+03  0.30062519535E+03  0.00000000000E+00 0.  1.
        -24    2    1    2    0    0  0.89900384126E+02  0.84655048031E+01 -0.20034352184E+03  0.23403557905E+03  0.80507028780E+02 0.  0.
         25    2    1    2    0    0 -0.31472503454E+02 -0.88858190024E+02 -0.59792103398E+01  0.15674732635E+03  0.12509067493E+03 0.  0.
         24    2    1    2    0    0 -0.58427880672E+02  0.80392685221E+02  0.19379102006E+04  0.19420549537E+04  0.78769896418E+02 0.  0.
        -11    1    5    5    0    0  0.15811540701E+02  0.27379437128E+02  0.31495817540E+03  0.31654113579E+03  0.00000000000E+00 0.  1.
         12    1    5    5    0    0 -0.74239421373E+02  0.53013248093E+02  0.16229520252E+04  0.16255138179E+04  0.00000000000E+00 0. -1.
         13    1    3    3    0    0  0.71358967467E+02 -0.29951828022E+01 -0.63815156722E+02  0.95778116422E+02  0.00000000000E+00 0. -1.
        -14    1    3    3    0    0  0.18541416660E+02  0.11460687605E+02 -0.13652836512E+03  0.13825746263E+03  0.00000000000E+00 0.  1.
          5    1    4    4  501    0  0.34777226817E+02 -0.87191628565E+01 -0.33352301339E+02  0.49145983667E+02  0.41800000000E+01 0.  1.
         -5    1    4    4    0  501 -0.66249730272E+02 -0.80139027168E+02  0.27373090999E+02  0.10760134268E+03  0.41800000000E+01 0.  1.
</event>
<event>
11    1  0.1078607E-008  0.1257248E+03  0.7561462E-02  0.1124636E+00
         22   -1    0    0    0    0  0.00000000000E+00  0.00000000000E+00  0.15468482789E+03  0.15468482789E+03  0.00000000000E+00 0.  1.
         22   -1    0    0    0    0 -0.00000000000E+00 -0.00000000000E+00 -0.16694860909E+04  0.16694860909E+04  0.00000000000E+00 0.  1.
         24    2    1    2    0    0 -0.35402138427E+02 -0.24153558617E+02 -0.15300122199E+04  0.15321103156E+04  0.67734188149E+02 0.  0.
         25    2    1    2    0    0  0.43608450633E+02  0.17964976870E+02 -0.87096567557E+02  0.15955789557E+03  0.12509385515E+03 0.  0.
        -24    2    1    2    0    0 -0.82063122060E+01  0.61885817466E+01  0.10230752448E+03  0.13250270761E+03  0.83573296295E+02 0.  0.
        -13    1    3    3    0    0 -0.49130831810E+02 -0.31141460324E+02 -0.88256207341E+03  0.88447693165E+03  0.00000000000E+00 0.  1.
         14    1    3    3    0    0  0.13728693383E+02  0.69879017068E+01 -0.64745014653E+03  0.64763338397E+03  0.00000000000E+00 0. -1.
         11    1    5    5    0    0  0.20692301818E+02  0.12422288556E+02 -0.18744546573E+01  0.24207399442E+02  0.00000000000E+00 0. -1.
        -12    1    5    5    0    0 -0.28898614024E+02 -0.62337068089E+01  0.10418197914E+03  0.10829530817E+03  0.00000000000E+00 0.  1.
          5    1    4    4  501    0  0.49492175559E+01  0.65981618180E+02 -0.67799514676E+02  0.94827819138E+02  0.41800000000E+01 0. -1.
         -5    1    4    4    0  501  0.38659233077E+02 -0.48016641310E+02 -0.19297052881E+02  0.64730076430E+02  0.41800000000E+01 0. -1.
</event>
<event>
11    1  0.1078607E-008  0.2409766E+03  0.7561462E-02  0.1028819E+00
         22   -1    0    0    0    0  0.00000000000E+00  0.00000000000E+00  0.56158025323E+03  0.56158025323E+03  0.00000000000E+00 0. -1.
         22   -1    0    0    0    0 -0.00000000000E+00 -0.00000000000E+00 -0.45105191771E+03  0.45105191771E+03  0.00000000000E+00 0.  1.
         24    2    1    2    0    0 -0.10581171361E+03  0.11224674666E+03 -0.19478173512E+03  0.26136256868E+03  0.81086479125E+02 0.  0.
         25    2    1    2    0    0  0.67357327542E+01 -0.28526439550E+03 -0.69745850892E+02  0.31927090988E+03  0.12509310430E+03 0.  0.
        -24    2    1    2    0    0  0.99075980857E+02  0.17301764884E+03  0.37505592153E+03  0.43199869239E+03  0.78770357088E+02 0.  0.
        -11    1    3    3    0    0 -0.85312737992E+02  0.10750119722E+03 -0.19712246049E+03  0.24019166326E+03  0.00000000000E+00 0.  1.
         12    1    3    3    0    0 -0.20498975618E+02  0.47455494331E+01  0.23407253766E+01  0.21170905416E+02  0.00000000000E+00 0. -1.
         13    1    5    5    0    0  0.81913663009E+02  0.15528221314E+03  0.36560180999E+03  0.40557008935E+03  0.00000000000E+00 0. -1.
        -14    1    5    5    0    0  0.17162317848E+02  0.17735435705E+02  0.94541115356E+01  0.26428603037E+02  0.00000000000E+00 0.  1.
          5    1    4    4  501    0  0.37112525895E+02 -0.36771851990E+02 -0.42380887446E+02  0.67402675746E+02  0.41800000000E+01 0. -1.
         -5    1    4    4    0  501 -0.30376793141E+02 -0.24849254351E+03 -0.27364963446E+02  0.25186823413E+03  0.41800000000E+01 0. -1.
</event>
<event>
11    1  0.1078607E-008  0.1255422E+03  0.7561462E-02  0.1124871E+00
         22   -1    0    0    0    0  0.00000000000E+00  0.00000000000E+00  0.56062464396E+03  0.56062464396E+03  0.00000000000E+00 0. -1.
         22   -1    0    0    0    0 -0.00000000000E+00 -0.00000000000E+00 -0.25837335274E+03  0.25837335274E+03  0.00000000000E+00 0.  1.
        -24    2    1    2    0    0 -0.53894441487E+01 -0.10384609334E+01 -0.23197351517E+03  0.24540553416E+03  0.79887670826E+02 0.  0.
         25    2    1    2    0    0  0.11448946382E+02  0.78583765659E+01  0.28865815054E+03  0.31490335909E+03  0.12509102782E+03 0.  0.
         24    2    1    2    0    0 -0.60595022328E+01 -0.68199156325E+01  0.24556665585E+03  0.25868910345E+03  0.80832177755E+02 0.  0.
        -11    1    5    5    0    0  0.16825095969E+02 -0.24755564363E+02  0.34693857123E+02  0.45821234634E+02  0.00000000000E+00 0.  1.
         12    1    5    5    0    0 -0.22884598202E+02  0.17935648731E+02  0.21087279873E+03  0.21286786881E+03  0.00000000000E+00 0. -1.
         13    1    3    3    0    0 -0.23066283586E+02 -0.19289252642E+01 -0.14717003353E+02  0.27429261361E+02  0.00000000000E+00 0. -1.
        -14    1    3    3    0    0  0.17676839437E+02  0.89046433085E+00 -0.21725651181E+03  0.21797627280E+03  0.00000000000E+00 0.  1.
          5    1    4    4  501    0  0.43043568532E+02 -0.28875992158E+02  0.24194567503E+03  0.24747071298E+03  0.41800000000E+01 0. -1.
         -5    1    4    4    0  501 -0.31594622150E+02  0.36734368724E+02  0.46712475506E+02  0.67432646117E+02  0.41800000000E+01 0. -1.
</event>
<event>
11    1  0.1078607E-008  0.1572052E+03  0.7561462E-02  0.1089736E+00
         22   -1    0    0    0    0  0.00000000000E+00  0.00000000000E+00  0.30939191858E+03  0.30939191858E+03  0.00000000000E+00 0. -1.
         22   -1    0    0    0    0 -0.00000000000E+00 -0.00000000000E+00 -0.22770826783E+03  0.22770826783E+03  0.00000000000E+00 0. -1.
         24    2    1    2    0    0  0.11499698575E+02 -0.93663246270E+02 -0.93690915685E+02  0.15705065209E+03  0.83557602121E+02 0.  0.
         25    2    1    2    0    0 -0.18535247862E+01  0.97337375507E+02 -0.27421539385E+02  0.16086386498E+03  0.12508893640E+03 0.  0.
        -24    2    1    2    0    0 -0.96461737889E+01 -0.36741292374E+01  0.20279610581E+03  0.21918566934E+03  0.82519992816E+02 0.  0.
        -11    1    3    3    0    0 -0.10953515063E+02 -0.35766870510E+01  0.11820484543E+02  0.16507453993E+02  0.00000000000E+00 0.  1.
         12    1    3    3    0    0  0.22453213638E+02 -0.90086559219E+02 -0.10551140023E+03  0.14054319810E+03  0.00000000000E+00 0. -1.
         11    1    5    5    0    0  0.89991322973E+01 -0.39421891845E+02  0.12772421417E+03  0.13397217929E+03  0.00000000000E+00 0. -1.
        -12    1    5    5    0    0 -0.18645306086E+02  0.35747762608E+02  0.75071891641E+02  0.85213490041E+02  0.00000000000E+00 0.  1.
          5    1    4    4  501    0 -0.67886853906E+01 -0.29777606772E+02 -0.83671252692E+00  0.30837713960E+02  0.41800000000E+01 0. -1.
         -5    1    4    4    0  501  0.49351606044E+01  0.12711498228E+03 -0.26584826858E+02  0.13002615102E+03  0.41800000000E+01 0. -1.
</event>
<event>
11    1  0.1078607E-008  0.1400001E+03  0.7561462E-02  0.1107558E+00
         22   -1    0    0    0    0  0.00000000000E+00  0.00000000000E+00  0.25938024823E+03  0.25938024823E+03  0.00000000000E+00 0.  1.
         22   -1    0    0    0    0 -0.00000000000E+00 -0.00000000000E+00 -0.28817489960E+03  0.28817489960E+03  0.00000000000E+00 0. -1.
        -24    2    1    2    0    0 -0.20184899754E+02 -0.15722130415E+02 -0.19809886606E+03  0.21552619610E+03  0.80955326606E+02 0.  0.
         25    2    1    2    0    0  0.56116326638E+02  0.62719174406E+02  0.12983635419E+02  0.15132073831E+03  0.12508658642E+03 0.  0.
         24    2    1    2    0    0 -0.35931426884E+02 -0.46997043991E+02  0.15632057927E+03  0.18070821342E+03  0.68698946947E+02 0.  0.
        -11    1    5    5    0    0 -0.30494683299E+02 -0.46834237661E+02  0.16287171425E+03  0.17219339949E+03  0.00000000000E+00 0.  1.
         12    1    5    5    0    0 -0.54367435851E+01 -0.16280633000E+00 -0.65511349771E+01  0.85148139263E+01  0.00000000000E+00 0. -1.
         13    1    3    3    0    0 -0.91717776983E+01 -0.39338063932E+02 -0.17825109842E+03  0.18277050875E+03  0.00000000000E+00 0. -1.
        -14    1    3    3    0    0 -0.11013122056E+02  0.23615933517E+02 -0.19847767642E+02  0.32755687349E+02  0.00000000000E+00 0.  1.
          5    1    4    4  501    0  0.33342443754E+00 -0.11767612042E+02  0.49660305644E+02  0.51207482087E+02  0.41800000000E+01 0.  1.
         -5    1    4    4    0  501  0.55782902201E+02  0.74486786448E+02 -0.36676670225E+02  0.10011325623E+03  0.41800000000E+01 0.  1.
</event>
<event>
11    1  0.1078607E-008  0.1366554E+03  0.7561462E-02  0.1111352E+00
         22   -1    0    0    0    0  0.00000000000E+00  0.00000000000E+00  0.64770844389E+03  0.64770844389E+03  0.00000000000E+00 0. -1.
         22   -1    0    0    0    0 -0.00000000000E+00 -0.00000000000E+00 -0.92432412463E+03  0.92432412463E+03  0.00000000000E+00 0. -1.
         24    2    1    2    0    0  0.28844313984E+02 -0.15171727162E+02 -0.77321535069E+03  0.77801975453E+03  0.79941129317E+02 0.  0.
         25    2    1    2    0    0 -0.71782995957E+02 -0.18663407031E+02 -0.10834456445E+03  0.18134901243E+03  0.12509116033E+03 0.  0.
        -24    2    1    2    0    0  0.42938681973E+02  0.33835134193E+02  0.60494423439E+03  0.61266380156E+03  0.80067848078E+02 0.  0.
        -13    1    3    3    0    0  0.85133202506E+01 -0.43184330989E+02 -0.26530872640E+03  0.26893509136E+03  0.00000000000E+00 0.  1.
         14    1    3    3    0    0  0.20330993734E+02  0.28012603827E+02 -0.50790662429E+03  0.50908466317E+03  0.00000000000E+00 0. -1.
         11    1    5    5    0    0  0.45696450336E+02 -0.14430955998E+02  0.33750308021E+03  0.34088817406E+03  0.00000000000E+00 0. -1.
        -12    1    5    5    0    0 -0.27577683629E+01  0.48266090191E+02  0.26744115419E+03  0.27177562750E+03  0.00000000000E+00 0.  1.
          5    1    4    4  501    0 -0.56150362528E+02  0.34487906202E+02 -0.10704821380E+03  0.12577388984E+03  0.41800000000E+01 0. -1.
         -5    1    4    4    0  501 -0.15632633429E+02 -0.53151313233E+02 -0.12963506474E+01  0.55575122594E+02  0.41800000000E+01 0. -1.
</event>
<event>
11    1  0.1078607E-008  0.1276700E+03  0.7561462E-02  0.1122165E+00
         22   -1    0    0    0    0  0.00000000000E+00  0.00000000000E+00  0.85934135970E+03  0.85934135970E+03  0.00000000000E+00 0.  1.
         22   -1    0    0    0    0 -0.00000000000E+00 -0.00000000000E+00 -0.27940220119E+03  0.27940220119E+03  0.00000000000E+00 0. -1.
         24    2    1    2    0    0 -0.15855446560E+02 -0.19293055646E+02 -0.24561662461E+03  0.26061524265E+03  0.83481502352E+02 0.  0.
         25    2    1    2    0    0  0.26790362845E+02  0.27184050335E+02  0.15601808748E+03  0.20358781337E+03  0.12509859311E+03 0.  0.
        -24    2    1    2    0    0 -0.10934916285E+02 -0.78909946898E+01  0.66953769563E+03  0.67454050488E+03  0.80884650302E+02 0.  0.
        -11    1    3    3    0    0  0.12511202772E+02  0.25942441362E+02 -0.48616982893E+02  0.56507977174E+02  0.00000000000E+00 0.  1.
         12    1    3    3    0    0 -0.28366649332E+02 -0.45235497007E+02 -0.19699964171E+03  0.20410726547E+03  0.00000000000E+00 0. -1.
         11    1    5    5    0    0  0.13682264888E+02 -0.26636372084E+02  0.10584924821E+03  0.11000347284E+03  0.00000000000E+00 0. -1.
        -12    1    5    5    0    0 -0.24617181173E+02  0.18745377394E+02  0.56368844743E+03  0.56453703204E+03  0.00000000000E+00 0.  1.
          5    1    4    4  501    0 -0.38069360344E+00  0.39009306782E+02 -0.52342233530E+01  0.39582072171E+02  0.41800000000E+01 0.  1.
         -5    1    4    4    0  501  0.27171056448E+02 -0.11825256447E+02  0.16125231083E+03  0.16400574120E+03  0.41800000000E+01 0.  1.
</event>
<event>
11    1  0.1078607E-008  0.1290180E+03  0.7561462E-02  0.1120481E+00
         22   -1    0    0    0    0  0.00000000000E+00  0.00000000000E+00  0.81823231839E+03  0.81823231839E+03  0.00000000000E+00 0.  1.
         22   -1    0    0    0    0 -0.00000000000E+00 -0.00000000000E+00 -0.33136068847E+03  0.33136068847E+03  0.00000000000E+00 0. -1.
         24    2    1    2    0    0 -0.26596399624E+02 -0.18653743332E+02 -0.26284570861E+03  0.27708343042E+03  0.81437278118E+02 0.  0.
         25    2    1    2    0    0  0.34378746903E+02 -0.11888120521E+02  0.13114157262E+02  0.13093027382E+03  0.12509008688E+03 0.  0.
        -24    2    1    2    0    0 -0.77823472793E+01  0.30541863854E+02  0.73660318128E+03  0.74157930262E+03  0.79763682383E+02 0.  0.
        -13    1    3    3    0    0  0.16072321035E+02 -0.31438547466E+02 -0.61920323295E+02  0.71279928502E+02  0.00000000000E+00 0.  1.
         14    1    3    3    0    0 -0.42668720658E+02  0.12784804134E+02 -0.20092538532E+03  0.20580350192E+03  0.00000000000E+00 0. -1.
         11    1    5    5    0    0 -0.75101047421E+01 -0.24689600889E+02  0.13488216307E+03  0.13732871506E+03  0.00000000000E+00 0. -1.
        -12    1    5    5    0    0 -0.27224253724E+00  0.55231464743E+02  0.60172101820E+03  0.60425058755E+03  0.00000000000E+00 0.  1.
          5    1    4    4  501    0  0.23692371074E+02  0.12202588064E+02 -0.53090232314E+02  0.59550623588E+02  0.41800000000E+01 0.  1.
         -5    1    4    4    0  501  0.10686375829E+02 -0.24090708585E+02  0.66204389576E+02  0.71379650235E+02  0.41800000000E+01 0.  1.
</event>
<event>
11    1  0.1078607E-008  0.1459037E+03  0.7561462E-02  0.1101139E+00
         22   -1    0    0    0    0  0.00000000000E+00  0.00000000000E+00  0.84222823929E+02  0.84222823929E+02  0.00000000000E+00 0. -1.
         22   -1    0    0    0    0 -0.00000000000E+00 -0.00000000000E+00 -0.43837277155E+04  0.43837277155E+04  0.00000000000E+00 0. -1.
        -24    2    1    2    0    0  0.47227496353E+02  0.64223876910E-01 -0.29978452512E+04  0.29992553318E+04  0.78904719925E+02 0.  0.
         25    2    1    2    0    0 -0.35766952439E+02 -0.74466177586E+02 -0.13436781927E+04  0.13520147103E+04  0.12509278566E+03 0.  0.
         24    2    1    2    0    0 -0.11460543914E+02  0.74401953709E+02  0.42018552246E+02  0.11668049731E+03  0.78624327902E+02 0.  0.
        -13    1    5    5    0    0  0.20603314176E+01 -0.12463303777E+02  0.23736111179E+02  0.26888322381E+02  0.00000000000E+00 0.  1.
         14    1    5    5    0    0 -0.13520875331E+02  0.86865257485E+02  0.18282441067E+02  0.89792174932E+02  0.00000000000E+00 0. -1.
         13    1    3    3    0    0  0.66261498933E+02  0.60129544461E+01 -0.17733236981E+04  0.17745714074E+04  0.00000000000E+00 0. -1.
        -14    1    3    3    0    0 -0.19034002580E+02 -0.59487305692E+01 -0.12245215531E+04  0.12246839244E+04  0.00000000000E+00 0.  1.
          5    1    4    4  501    0  0.91934668711E+01 -0.90386975775E+02 -0.60628347490E+03  0.61306724717E+03  0.41800000000E+01 0.  1.
         -5    1    4    4    0  501 -0.44960419310E+02  0.15920798189E+02 -0.73739471776E+03  0.73894746315E+03  0.41800000000E+01 0.  1.
</event>
<event>
11    1  0.1078607E-008  0.1635492E+03  0.7561462E-02  0.1083786E+00
         22   -1    0    0    0    0  0.00000000000E+00  0.00000000000E+00  0.14777669031E+04  0.14777669031E+04  0.00000000000E+00 0.  1.
         22   -1    0    0    0    0 -0.00000000000E+00 -0.00000000000E+00 -0.59952997085E+03  0.59952997085E+03  0.00000000000E+00 0.  1.
        -24    2    1    2    0    0  0.92952811497E+02  0.33046319612E+02 -0.36104150215E+03  0.38335389571E+03  0.82927430189E+02 0.  0.
         25    2    1    2    0    0 -0.96975953489E+02 -0.99424300405E+02 -0.18668648826E+03  0.26417483507E+03  0.12508785520E+03 0.  0.
         24    2    1    2    0    0  0.40231419916E+01  0.66377980793E+02  0.14259649227E+04  0.14297681432E+04  0.80241887748E+02 0.  0.
        -11    1    5    5    0    0 -0.10236843548E+02  0.82219374930E+02  0.11163747501E+04  0.11194451309E+04  0.00000000000E+00 0.  1.
         12    1    5    5    0    0  0.14259985539E+02 -0.15841394138E+02  0.30959017260E+03  0.31032301224E+03  0.00000000000E+00 0. -1.
         13    1    3    3    0    0  0.47271376463E+02 -0.42717068008E+00 -0.56857214941E+02  0.73942602053E+02  0.00000000000E+00 0. -1.
        -14    1    3    3    0    0  0.45681435034E+02  0.33473490292E+02 -0.30418428721E+03  0.30941129366E+03  0.00000000000E+00 0.  1.
          5    1    4    4  501    0 -0.55884297810E+02 -0.12563195108E+03 -0.14541457697E+03  0.20017320867E+03  0.41800000000E+01 0. -1.
         -5    1    4    4    0  501 -0.41091655679E+02  0.26207650673E+02 -0.41271911293E+02  0.64001626401E+02  0.41800000000E+01 0. -1.
</event>
<event>
11    1  0.1078607E-008  0.1565679E+03  0.7561462E-02  0.1090350E+00
         22   -1    0    0    0    0  0.00000000000E+00  0.00000000000E+00  0.53711888468E+03  0.53711888468E+03  0.00000000000E+00 0.  1.
         22   -1    0    0    0    0 -0.00000000000E+00 -0.00000000000E+00 -0.34399653763E+03  0.34399653763E+03  0.00000000000E+00 0.  1.
         24    2    1    2    0    0  0.15376555765E+02  0.10123345756E+03 -0.24458850809E+03  0.27709380620E+03  0.80453637277E+02 0.  0.
         25    2    1    2    0    0 -0.15297830736E+02 -0.61047752275E+02 -0.16819031408E+02  0.14103596354E+03  0.12508961393E+03 0.  0.
        -24    2    1    2    0    0 -0.78725028487E-01 -0.40185705283E+02  0.45452988655E+03  0.46298565256E+03  0.78379841820E+02 0.  0.
        -13    1    3    3    0    0  0.10911404354E+02  0.89069427926E+02 -0.24796570216E+03  0.26370326350E+03  0.00000000000E+00 0.  1.
         14    1    3    3    0    0  0.44651514107E+01  0.12164029631E+02  0.33771940698E+01  0.13390542699E+02  0.00000000000E+00 0. -1.
         11    1    5    5    0    0  0.32910403306E+02 -0.31904080422E+01  0.10858030657E+03  0.11350311151E+03  0.00000000000E+00 0. -1.
        -12    1    5    5    0    0 -0.32989128335E+02 -0.36995297241E+02  0.34594957998E+03  0.34948254105E+03  0.00000000000E+00 0.  1.
          5    1    4    4  501    0 -0.19420950431E+02 -0.99081517271E+02 -0.17436699550E+02  0.10254672726E+03  0.41800000000E+01 0. -1.
         -5    1    4    4    0  501  0.41231196948E+01  0.38033764996E+02  0.61766814261E+00  0.38489236284E+02  0.41800000000E+01 0. -1.
</event>
<event>
11    1  0.1078607E-008  0.8504477E+03  0.7561462E-02  0.8835922E-01
         22   -1    0    0    0    0  0.00000000000E+00  0.00000000000E+00  0.18132298589E+04  0.18132298589E+04  0.00000000000E+00 0.  1.
         22   -1    0    0    0    0 -0.00000000000E+00 -0.00000000000E+00 -0.91071447716E+03  0.91071447716E+03  0.00000000000E+00 0.  1.
         24    2    1    2    0    0 -0.88455782279E+03 -0.63870928613E+00 -0.21950838774E+03  0.91494797502E+03  0.80640652872E+02 0.  0.
         25    2    1    2    0    0  0.78032773586E+03 -0.95002308090E+02  0.13332783424E+03  0.80706768215E+03  0.12508044726E+03 0.  0.
        -24    2    1    2    0    0  0.10423008693E+03  0.95641017376E+02  0.98869593527E+03  0.10019286789E+04  0.79563245124E+02 0.  0.
        -11    1    3    3    0    0 -0.78279927833E+03  0.11044885273E+02 -0.16972689390E+03  0.80106424097E+03  0.00000000000E+00 0.  1.
         12    1    3    3    0    0 -0.10175854446E+03 -0.11683594559E+02 -0.49781493842E+02  0.11388373405E+03  0.00000000000E+00 0. -1.
         11    1    5    5    0    0  0.29999799640E+02  0.78682987704E+02  0.59593948566E+03  0.60185951110E+03  0.00000000000E+00 0. -1.
        -12    1    5    5    0    0  0.74230287287E+02  0.16958029672E+02  0.39275644961E+03  0.40006916781E+03  0.00000000000E+00 0.  1.
          5    1    4    4  501    0  0.17289522869E+03 -0.31900542132E+02  0.82464485700E+02  0.19423765982E+03  0.41800000000E+01 0. -1.
         -5    1    4    4    0  501  0.60743250718E+03 -0.63101765958E+02  0.50863348544E+02  0.61283002233E+03  0.41800000000E+01 0. -1.
</event>
<event>
11    1  0.1078607E-008  0.1443204E+03  0.7561462E-02  0.1102828E+00
         22   -1    0    0    0    0  0.00000000000E+00  0.00000000000E+00  0.11495935546E+04  0.11495935546E+04  0.00000000000E+00 0. -1.
         22   -1    0    0    0    0 -0.00000000000E+00 -0.00000000000E+00 -0.10713834526E+03  0.10713834526E+03  0.00000000000E+00 0.  1.
        -24    2    1    2    0    0 -0.59625039351E+02  0.38657361366E+02 -0.53502263477E+02  0.12040088566E+03  0.81143971832E+02 0.  0.
         25    2    1    2    0    0  0.51134790060E+02 -0.68705982575E+02  0.30616720185E+03  0.34164489655E+03  0.12509037155E+03 0.  0.
         24    2    1    2    0    0  0.84902492903E+01  0.30048621208E+02  0.78979027101E+03  0.79468611770E+03  0.82355021104E+02 0.  0.
        -11    1    5    5    0    0  0.27010763177E+01  0.39077978115E+02  0.15726580206E+03  0.16207071507E+03  0.00000000000E+00 0.  1.
         12    1    5    5    0    0  0.57891729727E+01 -0.90293569070E+01  0.63252446895E+03  0.63261540262E+03  0.00000000000E+00 0. -1.
         11    1    3    3    0    0 -0.20352441588E+02 -0.24183668350E+02 -0.54319111076E+01  0.32071441373E+02  0.00000000000E+00 0. -1.
        -12    1    3    3    0    0 -0.39272597763E+02  0.62841029716E+02 -0.48070352369E+02  0.88329444285E+02  0.00000000000E+00 0.  1.
          5    1    4    4  501    0  0.74202500985E+02 -0.13303626788E+02  0.91088561484E+02  0.11831143677E+03  0.41800000000E+01 0.  1.
         -5    1    4    4    0  501 -0.23067710925E+02 -0.55402355787E+02  0.21507864037E+03  0.22333345978E+03  0.41800000000E+01 0.  1.
</event>
<event>
11    1  0.1078607E-008  0.1292461E+03  0.7561462E-02  0.1120199E+00
         22   -1    0    0    0    0  0.00000000000E+00  0.00000000000E+00  0.15000532064E+04  0.15000532064E+04  0.00000000000E+00 0. -1.
         22   -1    0    0    0    0 -0.00000000000E+00 -0.00000000000E+00 -0.54281064788E+03  0.54281064788E+03  0.00000000000E+00 0.  1.
         24    2    1    2    0    0  0.11272475774E+02 -0.30645791090E+02 -0.51315516925E+03  0.51991266653E+03  0.76907215964E+02 0.  0.
         25    2    1    2    0    0 -0.22026309342E+02  0.19605370065E+02  0.13975070047E+03  0.18985975800E+03  0.12508773156E+03 0.  0.
        -24    2    1    2    0    0  0.10753833568E+02  0.11040421025E+02  0.13306470273E+04  0.13330914297E+04  0.79206773690E+02 0.  0.
        -11    1    3    3    0    0 -0.43903606520E+01 -0.73568238035E+01 -0.45751026746E+03  0.45759047516E+03  0.00000000000E+00 0.  1.
         12    1    3    3    0    0  0.15662836426E+02 -0.23288967286E+02 -0.55644901790E+02  0.62322191372E+02  0.00000000000E+00 0. -1.
         11    1    5    5    0    0  0.18154695959E+01  0.27641421159E+01  0.13014616098E+04  0.13014658114E+04  0.00000000000E+00 0. -1.
        -12    1    5    5    0    0  0.89383639721E+01  0.82762789087E+01  0.29185417507E+02  0.31625618383E+02  0.00000000000E+00 0.  1.
          5    1    4    4  501    0 -0.39609546922E+02 -0.37602950531E+02  0.24660793386E+02  0.60071001544E+02  0.41800000000E+01 0. -1.
         -5    1    4    4    0  501  0.17583237581E+02  0.57208320596E+02  0.11508990709E+03  0.12978875646E+03  0.41800000000E+01 0. -1.
</event>
<event>
11    1  0.1078607E-008  0.1251599E+03  0.7561462E-02  0.1125363E+00
         22   -1    0    0    0    0  0.00000000000E+00  0.00000000000E+00  0.12268867582E+04  0.12268867582E+04  0.00000000000E+00 0.  1.
         22   -1    0    0    0    0 -0.00000000000E+00 -0.00000000000E+00 -0.29559702690E+03  0.29559702690E+03  0.00000000000E+00 0. -1.
        -24    2    1    2    0    0 -0.68036815042E+01  0.80252234862E+01 -0.27138813286E+03  0.28288631819E+03  0.79135681381E+02 0.  0.
         25    2    1    2    0    0  0.90902496794E+01 -0.42810454431E+01  0.21710231841E+03  0.25076251169E+03  0.12508981021E+03 0.  0.
         24    2    1    2    0    0 -0.22865681752E+01 -0.37441780431E+01  0.98557554571E+03  0.98883495519E+03  0.80100967699E+02 0.  0.
        -13    1    5    5    0    0  0.17584005935E+02  0.21315935067E+02  0.80328431656E+03  0.80375945380E+03  0.00000000000E+00 0.  1.
         14    1    5    5    0    0 -0.19870574111E+02 -0.25060113110E+02  0.18229122916E+03  0.18507550138E+03  0.00000000000E+00 0. -1.
         13    1    3    3    0    0  0.33161913567E+02  0.81145875870E+01 -0.17896462987E+03  0.18219192570E+03  0.00000000000E+00 0. -1.
        -14    1    3    3    0    0 -0.39965595071E+02 -0.89364100813E-01 -0.92423502991E+02  0.10069439250E+03  0.00000000000E+00 0.  1.
          5    1    4    4  501    0 -0.42962563740E+02  0.29417902416E+02  0.49326528782E+02  0.71845484948E+02  0.41800000000E+01 0. -1.
         -5    1    4    4    0  501  0.52052813419E+02 -0.33698947859E+02  0.16777578963E+03  0.17891702674E+03  0.41800000000E+01 0. -1.
</event>
<event>
11    1  0.1078607E-008  0.2677531E+03  0.7561462E-02  0.1014845E+00
         22   -1    0    0    0    0  0.00000000000E+00  0.00000000000E+00  0.13963372393E+04  0.13963372393E+04  0.00000000000E+00 0.  1.
         22   -1    0    0    0    0 -0.00000000000E+00 -0.00000000000E+00 -0.16133341708E+04  0.16133341708E+04  0.00000000000E+00 0.  1.
         24    2    1    2    0    0 -0.20938322944E+02 -0.96525071983E+02 -0.13415601247E+04  0.13475832333E+04  0.80258954282E+02 0.  0.
         25    2    1    2    0    0 -0.95217065295E+02 -0.11453010165E+03 -0.22005323641E+03  0.29370064958E+03  0.12511279312E+03 0.  0.
        -24    2    1    2    0    0  0.11615538824E+03  0.21105517363E+03  0.13446164297E+04  0.13683875272E+04  0.80341279184E+02 0.  0.
        -13    1    3    3    0    0 -0.23846316350E+02 -0.86755833692E-01 -0.48900993177E+03  0.48959102085E+03  0.00000000000E+00 0.  1.
         14    1    3    3    0    0  0.29079934066E+01 -0.96438316149E+02 -0.85255019292E+03  0.85799221249E+03  0.00000000000E+00 0. -1.
         11    1    5    5    0    0  0.67316955103E+02  0.18519022020E+03  0.98081588066E+03  0.10004133055E+04  0.00000000000E+00 0. -1.
        -12    1    5    5    0    0  0.48838433135E+02  0.25864953431E+02  0.36380054901E+03  0.36797422169E+03  0.00000000000E+00 0.  1.
          5    1    4    4  501    0 -0.10862779150E+03 -0.10664503207E+03 -0.22919812875E+03  0.27517706041E+03  0.41800000000E+01 0.  1.
         -5    1    4    4    0  501  0.13410726208E+02 -0.78850695790E+01  0.91448923448E+01  0.18523589169E+02  0.41800000000E+01 0.  1.
</event>
<event>
11    1  0.1078607E-008  0.1936220E+03  0.7561462E-02  0.1059128E+00
         22   -1    0    0    0    0  0.00000000000E+00  0.00000000000E+00  0.84662546042E+03  0.84662546042E+03  0.00000000000E+00 0.  1.
         22   -1    0    0    0    0 -0.00000000000E+00 -0.00000000000E+00 -0.50499962396E+03  0.50499962396E+03  0.00000000000E+00 0. -1.
        -24    2    1    2    0    0  0.85863699547E+02 -0.72428588896E+02 -0.41346627095E+03  0.44216724426E+03  0.10926591094E+03 0.  0.
         25    2    1    2    0    0 -0.20305229179E+03 -0.94092484134E+01  0.14837560024E+03  0.28103484901E+03  0.12508597226E+03 0.  0.
         24    2    1    2    0    0  0.11718859224E+03  0.81837837309E+02  0.60671650718E+03  0.62842299111E+03  0.79874513506E+02 0.  0.
        -11    1    5    5    0    0  0.11106865139E+03  0.63804524868E+02  0.58775014112E+03  0.60154591770E+03  0.00000000000E+00 0.  1.
         12    1    5    5    0    0  0.61199408542E+01  0.18033312442E+02  0.18966366056E+02  0.26877073409E+02  0.00000000000E+00 0. -1.
         11    1    3    3    0    0  0.94314605940E+02 -0.36985802197E+02 -0.18598801048E+03  0.21178936352E+03  0.00000000000E+00 0. -1.
        -12    1    3    3    0    0 -0.84509063930E+01 -0.35442786699E+02 -0.22747826047E+03  0.23037788074E+03  0.00000000000E+00 0.  1.
          5    1    4    4  501    0  0.43695961652E+01  0.35950992592E+01  0.51006375573E+02  0.51489230510E+02  0.41800000000E+01 0.  1.
         -5    1    4    4    0  501 -0.20742188796E+03 -0.13004347673E+02  0.97369224663E+02  0.22954561850E+03  0.41800000000E+01 0.  1.
</event>
<event>
11    1  0.1078607E-008  0.1827443E+03  0.7561462E-02  0.1067444E+00
         22   -1    0    0    0    0  0.00000000000E+00  0.00000000000E+00  0.21698853842E+03  0.21698853842E+03  0.00000000000E+00 0. -1.
         22   -1    0    0    0    0 -0.00000000000E+00 -0.00000000000E+00 -0.29010797575E+04  0.29010797575E+04  0.00000000000E+00 0. -1.
        -24    2    1    2    0    0 -0.29042603777E+02 -0.10280804663E+02 -0.27185050319E+04  0.27198666146E+04  0.80346904532E+02 0.  0.
         25    2    1    2    0    0  0.36694696676E+02  0.14061785305E+03 -0.79459148180E+02  0.20756016453E+03  0.12509030461E+03 0.  0.
         24    2    1    2    0    0 -0.76520928987E+01 -0.13033704839E+03  0.11387296098E+03  0.19064151680E+03  0.79566550616E+02 0.  0.
        -11    1    5    5    0    0  0.34162623052E+01 -0.80772564933E+02  0.19025209515E+02  0.83053216019E+02  0.00000000000E+00 0.  1.
         12    1    5    5    0    0 -0.11068355204E+02 -0.49564483453E+02  0.94847751460E+02  0.10758830078E+03  0.00000000000E+00 0. -1.
         11    1    3    3    0    0 -0.29753562532E+02 -0.42653519404E+02 -0.14040546867E+04  0.14050174947E+04  0.00000000000E+00 0. -1.
        -12    1    3    3    0    0  0.71095875500E+00  0.32372714741E+02 -0.13144503452E+04  0.13148491199E+04  0.00000000000E+00 0.  1.
          5    1    4    4  501    0 -0.34170874001E+02  0.36245536538E+00 -0.11445617228E+02  0.36280222679E+02  0.41800000000E+01 0.  1.
         -5    1    4    4    0  501  0.70865570677E+02  0.14025539768E+03 -0.68013530952E+02  0.17127994185E+03  0.41800000000E+01 0.  1.
</event>
<event>
11    1  0.1078607E-008  0.1316310E+03  0.7561462E-02  0.1117281E+00
         22   -1    0    0    0    0  0.00000000000E+00  0.00000000000E+00  0.20204858639E+04  0.20204858639E+04  0.00000000000E+00 0.  1.
         22   -1    0    0    0    0 -0.00000000000E+00 -0.00000000000E+00 -0.30602243203E+03  0.30602243203E+03  0.00000000000E+00 0. -1.
        -24    2    1    2    0    0  0.40599246306E+02  0.31975464359E+01 -0.27579072802E+03  0.28894817795E+03  0.75973684752E+02 0.  0.
         25    2    1    2    0    0 -0.16314107835E+02 -0.37364988083E+02  0.16932073477E+03  0.21442776591E+03  0.12508982021E+03 0.  0.
         24    2    1    2    0    0 -0.24285138471E+02  0.34167441647E+02  0.18209334251E+04  0.18231323520E+04  0.79093946864E+02 0.  0.
        -11    1    5    5    0    0 -0.44180560960E+02 -0.43107847862E+01  0.11034167874E+04  0.11043093369E+04  0.00000000000E+00 0.  1.
         12    1    5    5    0    0  0.19895422489E+02  0.38478226434E+02  0.71751663768E+03  0.71882301514E+03  0.00000000000E+00 0. -1.
         11    1    3    3    0    0 -0.15953076943E+02 -0.12056863843E+02 -0.13479075745E+03  0.13626597860E+03  0.00000000000E+00 0. -1.
        -12    1    3    3    0    0  0.56552323248E+02  0.15254410279E+02 -0.14099997057E+03  0.15268219935E+03  0.00000000000E+00 0.  1.
          5    1    4    4  501    0 -0.35685873642E+02 -0.77204844204E+02  0.12777213583E+03  0.15354888681E+03  0.41800000000E+01 0. -1.
         -5    1    4    4    0  501  0.19371765807E+02  0.39839856120E+02  0.41548598939E+02  0.60878879096E+02  0.41800000000E+01 0. -1.
</event>
<event>
11    1  0.1078607E-008  0.1529425E+03  0.7561462E-02  0.1093909E+00
         22   -1    0    0    0    0  0.00000000000E+00  0.00000000000E+00  0.21647312209E+03  0.21647312209E+03  0.00000000000E+00 0.  1.
         22   -1    0    0    0    0 -0.00000000000E+00 -0.00000000000E+00 -0.15401281644E+04  0.15401281644E+04  0.00000000000E+00 0.  1.
         24    2    1    2    0    0  0.16492814274E+02  0.20909123934E+02 -0.11067829192E+04  0.11100216981E+04  0.80439639231E+02 0.  0.
         25    2    1    2    0    0 -0.84395373427E+02 -0.75189047201E+02 -0.39672423369E+03  0.43106024949E+03  0.12508736632E+03 0.  0.
        -24    2    1    2    0    0  0.67902559152E+02  0.54279923267E+02  0.17985211058E+03  0.21551933895E+03  0.80899543708E+02 0.  0.
        -11    1    3    3    0    0  0.14239590332E+02  0.15235263898E+02 -0.11021768431E+04  0.11023741074E+04  0.00000000000E+00 0.  1.
         12    1    3    3    0    0  0.22532239427E+01  0.56738600362E+01 -0.46060760790E+01  0.76475906462E+01  0.00000000000E+00 0. -1.
         13    1    5    5    0    0  0.46953991208E+02 -0.24773963190E+01  0.12613399845E+03  0.13461277929E+03  0.00000000000E+00 0. -1.
        -14    1    5    5    0    0  0.20948567944E+02  0.56757319586E+02  0.53718112132E+02  0.80906559663E+02  0.00000000000E+00 0.  1.
          5    1    4    4  501    0 -0.95974803909E+02 -0.10040084779E+03 -0.30547286677E+03  0.33559296470E+03  0.41800000000E+01 0.  1.
         -5    1    4    4    0  501  0.11579430482E+02  0.25211800589E+02 -0.91251366920E+02  0.95467284784E+02  0.41800000000E+01 0.  1.
</event>
<event>
11    1  0.1078607E-008  0.2120229E+03  0.7561462E-02  0.1046333E+00
         22   -1    0    0    0    0  0.00000000000E+00  0.00000000000E+00  0.31926874278E+03  0.31926874278E+03  0.00000000000E+00 0. -1.
         22   -1    0    0    0    0 -0.00000000000E+00 -0.00000000000E+00 -0.22964779187E+04  0.22964779187E+04  0.00000000000E+00 0. -1.
         24    2    1    2    0    0  0.38972487149E+02  0.16124955865E+03 -0.18222044069E+04  0.18318464407E+04  0.87819171757E+02 0.  0.
         25    2    1    2    0    0 -0.45685925193E+01 -0.21124111826E+03 -0.42771464547E+03  0.49318441922E+03  0.12508945330E+03 0.  0.
        -24    2    1    2    0    0 -0.34403894629E+02  0.49991559616E+02  0.27270987639E+03  0.29071580160E+03  0.80387913381E+02 0.  0.
        -13    1    3    3    0    0  0.94349571285E+01  0.14013953367E+02 -0.41296645560E+02  0.44618631081E+02  0.00000000000E+00 0.  1.
         14    1    3    3    0    0  0.29537530020E+02  0.14723560528E+03 -0.17809077613E+04  0.17872278096E+04  0.00000000000E+00 0. -1.
         11    1    5    5    0    0  0.95904517798E+01 -0.14871978675E+02  0.92847223909E+02  0.94518566973E+02  0.00000000000E+00 0. -1.
        -12    1    5    5    0    0 -0.43994346409E+02  0.64863538292E+02  0.17986265248E+03  0.19619723462E+03  0.00000000000E+00 0.  1.
          5    1    4    4  501    0  0.31732225503E+02 -0.91622723082E+02 -0.29618343565E+03  0.31167893332E+03  0.41800000000E+01 0. -1.
         -5    1    4    4    0  501 -0.36300818022E+02 -0.11961839518E+03 -0.13153120982E+03  0.18150548590E+03  0.41800000000E+01 0. -1.
</event>
<event>
11    1  0.1078607E-008  0.3068285E+03  0.7561462E-02  0.9973420E-01
         22   -1    0    0    0    0  0.00000000000E+00  0.00000000000E+00  0.11364792295E+04  0.11364792295E+04  0.00000000000E+00 0.  1.
         22   -1    0    0    0    0 -0.00000000000E+00 -0.00000000000E+00 -0.26778882782E+03  0.26778882782E+03  0.00000000000E+00 0. -1.
         24    2    1    2    0    0 -0.23781105629E+02  0.11864859895E+03 -0.11777929378E+03  0.18858956633E+03  0.83970420182E+02 0.  0.
         25    2    1    2    0    0 -0.19927612804E+03  0.85571171333E+02  0.90327869466E+02  0.26615550592E+03  0.12508488621E+03 0.  0.
        -24    2    1    2    0    0  0.22305723367E+03 -0.20421977028E+03  0.89614182604E+03  0.94952298510E+03  0.84044528674E+02 0.  0.
        -11    1    3    3    0    0 -0.46317270462E+02  0.11547593259E+03 -0.10216621254E+03  0.16099042063E+03  0.00000000000E+00 0.  1.
         12    1    3    3    0    0  0.22536164833E+02  0.31726663612E+01 -0.15613081248E+02  0.27599145699E+02  0.00000000000E+00 0. -1.
         11    1    5    5    0    0  0.61778405170E+02 -0.11024706357E+03  0.39649783251E+03  0.41615083510E+03  0.00000000000E+00 0. -1.
        -12    1    5    5    0    0  0.16127882850E+03 -0.93972706711E+02  0.49964399353E+03  0.53337215000E+03  0.00000000000E+00 0.  1.
          5    1    4    4  501    0 -0.20917401211E+03  0.77692887491E+02  0.57112484493E+02  0.23036766351E+03  0.41800000000E+01 0. -1.
         -5    1    4    4    0  501  0.98978840650E+01  0.78782838411E+01  0.33215384974E+02  0.35787842408E+02  0.41800000000E+01 0. -1.
</event>
<event>
11    1  0.1078607E-008  0.1429662E+03  0.7561462E-02  0.1104291E+00
         22   -1    0    0    0    0  0.00000000000E+00  0.00000000000E+00  0.13460729121E+04  0.13460729121E+04  0.00000000000E+00 0. -1.
         22   -1    0    0    0    0 -0.00000000000E+00 -0.00000000000E+00 -0.72124248619E+03  0.72124248619E+03  0.00000000000E+00 0. -1.
        -24    2    1    2    0    0 -0.44827529627E+01  0.68813542165E+02 -0.59670059276E+03  0.60595762639E+03  0.79860183534E+02 0.  0.
         25    2    1    2    0    0 -0.48406395413E+02 -0.73584077348E+02 -0.68570548818E+02  0.16765286367E+03  0.12509103475E+03 0.  0.
         24    2    1    2    0    0  0.52889148376E+02  0.47705351825E+01  0.12901015675E+04  0.12937049083E+04  0.80562492131E+02 0.  0.
        -11    1    5    5    0    0  0.18889027589E+02 -0.24536463042E+02  0.17626351945E+03  0.17896273821E+03  0.00000000000E+00 0.  1.
         12    1    5    5    0    0  0.34000120787E+02  0.29306998224E+02  0.11138380481E+04  0.11147421701E+04  0.00000000000E+00 0. -1.
         11    1    3    3    0    0 -0.30889129487E+02  0.38904228468E+02 -0.16238635482E+03  0.16981462111E+03  0.00000000000E+00 0. -1.
        -12    1    3    3    0    0  0.26406376524E+02  0.29909313697E+02 -0.43431423794E+03  0.43614300527E+03  0.00000000000E+00 0.  1.
          5    1    4    4  501    0 -0.86188529584E+02 -0.58697944322E+02 -0.71841076219E+02  0.12669855537E+03  0.41800000000E+01 0.  1.
         -5    1    4    4    0  501  0.37782134171E+02 -0.14886133026E+02  0.32705274011E+01  0.40954308301E+02  0.41800000000E+01 0.  1.
</event>
<event>
11    1  0.1078607E-008  0.1848418E+03  0.7561462E-02  0.1065792E+00
         22   -1    0    0    0    0  0.00000000000E+00  0.00000000000E+00  0.21049798807E+03  0.21049798807E+03  0.00000000000E+00 0.  1.
         22   -1    0    0    0    0 -0.00000000000E+00 -0.00000000000E+00 -0.80058336749E+03  0.80058336749E+03  0.00000000000E+00 0. -1.
        -24    2    1    2    0    0 -0.14785520155E+03  0.15042654146E+02 -0.60949550121E+03  0.63249132306E+03  0.80455364548E+02 0.  0.
         25    2    1    2    0    0  0.95041007123E+02  0.31117223179E+02 -0.12165059053E+03  0.20111677054E+03  0.12509202454E+03 0.  0.
         24    2    1    2    0    0  0.52814194429E+02 -0.46159877325E+02  0.14106071231E+03  0.17747326196E+03  0.81722461680E+02 0.  0.
        -11    1    5    5    0    0  0.68703043573E+02 -0.12436470346E+02  0.82818143910E+02  0.10832183045E+03  0.00000000000E+00 0.  1.
         12    1    5    5    0    0 -0.15888849144E+02 -0.33723406979E+02  0.58242568403E+02  0.69151431508E+02  0.00000000000E+00 0. -1.
         11    1    3    3    0    0 -0.14502394734E+03  0.25822910591E+02 -0.46981030077E+03  0.49236214997E+03  0.00000000000E+00 0. -1.
        -12    1    3    3    0    0 -0.28312542089E+01 -0.10780256445E+02 -0.13968520044E+03  0.14012917309E+03  0.00000000000E+00 0.  1.
          5    1    4    4  501    0 -0.18948787548E+01 -0.39017336747E+02 -0.40883954229E+02  0.56700204989E+02  0.41800000000E+01 0.  1.
         -5    1    4    4    0  501  0.96935885878E+02  0.70134559927E+02 -0.80766636300E+02  0.14441656555E+03  0.41800000000E+01 0.  1.
</event>
<event>
11    1  0.1078607E-008  0.1392626E+03  0.7561462E-02  0.1108385E+00
         22   -1    0    0    0    0  0.00000000000E+00  0.00000000000E+00  0.62359108822E+03  0.62359108822E+03  0.00000000000E+00 0.  1.
         22   -1    0    0    0    0 -0.00000000000E+00 -0.00000000000E+00 -0.55078387399E+03  0.55078387399E+03  0.00000000000E+00 0.  1.
        -24    2    1    2    0    0  0.38413106042E+01  0.37116808716E+02 -0.51889301405E+03  0.52630687039E+03  0.79727966442E+02 0.  0.
         25    2    1    2    0    0  0.52292316435E+02 -0.32967689393E+01  0.18331935971E+03  0.22803358905E+03  0.12509186642E+03 0.  0.
         24    2    1    2    0    0 -0.56133627039E+02 -0.33820039777E+02  0.40838086856E+03  0.42003450277E+03  0.73207038826E+02 0.  0.
        -11    1    5    5    0    0 -0.37308956892E+02 -0.30082996970E+02  0.39165637466E+03  0.39457782601E+03  0.00000000000E+00 0.  1.
         12    1    5    5    0    0 -0.18824670148E+02 -0.37370428068E+01  0.16724493904E+02  0.25456676756E+02  0.00000000000E+00 0. -1.
         11    1    3    3    0    0 -0.26031889309E+02 -0.12725044954E+02 -0.21077053832E+03  0.21275292208E+03  0.00000000000E+00 0. -1.
        -12    1    3    3    0    0  0.29873199913E+02  0.49841853670E+02 -0.30812247573E+03  0.31355394830E+03  0.00000000000E+00 0.  1.
          5    1    4    4  501    0  0.93182158090E+02 -0.10340848337E+02  0.13032456641E+03  0.16059829620E+03  0.41800000000E+01 0.  1.
         -5    1    4    4    0  501 -0.40889841655E+02  0.70440793979E+01  0.52994793300E+02  0.67435292852E+02  0.41800000000E+01 0.  1.
</event>
<event>
11    1  0.1078607E-008  0.1353700E+03  0.7561462E-02  0.1112842E+00
         22   -1    0    0    0    0  0.00000000000E+00  0.00000000000E+00  0.65392218972E+03  0.65392218972E+03  0.00000000000E+00 0.  1.
         22   -1    0    0    0    0 -0.00000000000E+00 -0.00000000000E+00 -0.27324060398E+03  0.27324060398E+03  0.00000000000E+00 0.  1.
        -24    2    1    2    0    0  0.71651202085E+01 -0.14438107523E+02 -0.22344854498E+03  0.23779518280E+03  0.79733925111E+02 0.  0.
         25    2    1    2    0    0 -0.25125744394E+02 -0.35331229223E+02  0.76241093187E+02  0.15276035368E+03  0.12507366860E+03 0.  0.
         24    2    1    2    0    0  0.17960624186E+02  0.49769336746E+02  0.52788903753E+03  0.53660725721E+03  0.80504295834E+02 0.  0.
        -11    1    5    5    0    0  0.23649936436E+02 -0.10268673162E+02  0.29182237346E+03  0.29295914868E+03  0.00000000000E+00 0.  1.
         12    1    5    5    0    0 -0.56893122500E+01  0.60038009909E+02  0.23606666407E+03  0.24364810853E+03  0.00000000000E+00 0. -1.
         13    1    3    3    0    0 -0.18428533305E+02 -0.39641160160E+02 -0.98055230852E+02  0.10735856145E+03  0.00000000000E+00 0. -1.
        -14    1    3    3    0    0  0.25593653514E+02  0.25203052636E+02 -0.12539331412E+03  0.13043662135E+03  0.00000000000E+00 0.  1.
          5    1    4    4  501    0 -0.18443422931E+02  0.24128328177E+01  0.10369112208E+03  0.10542913644E+03  0.41800000000E+01 0.  1.
         -5    1    4    4    0  501 -0.66823214636E+01 -0.37744062040E+02 -0.27450028894E+02  0.47331217244E+02  0.41800000000E+01 0.  1.
</event>
<event>
11    1  0.1078607E-008  0.1273372E+03  0.7561462E-02  0.1122585E+00
         22   -1    0    0    0    0  0.00000000000E+00  0.00000000000E+00  0.23712359118E+03  0.23712359118E+03  0.00000000000E+00 0.  1.
         22   -1    0    0    0    0 -0.00000000000E+00 -0.00000000000E+00 -0.10150094175E+04  0.10150094175E+04  0.00000000000E+00 0.  1.
         24    2    1    2    0    0  0.19641822671E+02 -0.19058893753E+01 -0.79579903594E+03  0.79977314712E+03  0.77146274256E+02 0.  0.
         25    2    1    2    0    0 -0.27159216262E+02  0.24167056471E+02 -0.18874918154E+03  0.22933760506E+03  0.12509122238E+03 0.  0.
        -24    2    1    2    0    0  0.75173935906E+01 -0.22261167095E+02  0.20666239113E+03  0.22302225654E+03  0.80482993468E+02 0.  0.
        -13    1    3    3    0    0 -0.14405523769E+02  0.29541298217E+02 -0.37110173705E+03  0.37255430028E+03  0.00000000000E+00 0.  1.
         14    1    3    3    0    0  0.34047346440E+02 -0.31447187592E+02 -0.42469729889E+03  0.42721884683E+03  0.00000000000E+00 0. -1.
         11    1    5    5    0    0  0.12734512943E+02  0.94662522077E+01  0.21673487116E+01  0.16014841591E+02  0.00000000000E+00 0. -1.
        -12    1    5    5    0    0 -0.52171193521E+01 -0.31727419303E+02  0.20449504242E+03  0.20700741495E+03  0.00000000000E+00 0.  1.
          5    1    4    4  501    0 -0.53689651739E+01  0.84040279273E+01  0.17895257176E+02  0.20908517447E+02  0.41800000000E+01 0.  1.
         -5    1    4    4    0  501 -0.21790251088E+02  0.15763028543E+02 -0.20664443872E+03  0.20842908762E+03  0.41800000000E+01 0.  1.
</event>
<event>
11    1  0.1078607E-008  0.2142061E+03  0.7561462E-02  0.1044909E+00
         22   -1    0    0    0    0  0.00000000000E+00  0.00000000000E+00  0.79852251906E+03  0.79852251906E+03  0.00000000000E+00 0. -1.
         22   -1    0    0    0    0 -0.00000000000E+00 -0.00000000000E+00 -0.22435021709E+03  0.22435021709E+03  0.00000000000E+00 0.  1.
        -24    2    1    2    0    0 -0.15444471376E+03 -0.64034751059E+02 -0.12334392334E+03  0.22286830315E+03  0.80640797199E+02 0.  0.
         25    2    1    2    0    0  0.19597586604E+03  0.11410040840E+03  0.33631332982E+03  0.42447651161E+03  0.12509280487E+03 0.  0.
         24    2    1    2    0    0 -0.41531152282E+02 -0.50065657339E+02  0.36120289550E+03  0.37552792139E+03  0.79512774899E+02 0.  0.
        -13    1    5    5    0    0  0.10844666965E+02 -0.49163807552E+02  0.17815713201E+03  0.18513414180E+03  0.00000000000E+00 0.  1.
         14    1    5    5    0    0 -0.52375819247E+02 -0.90184978723E+00  0.18304576349E+03  0.19039377959E+03  0.00000000000E+00 0. -1.
         11    1    3    3    0    0 -0.36924164742E+02  0.63997006678E+01  0.15059749093E+01  0.37504907291E+02  0.00000000000E+00 0. -1.
        -12    1    3    3    0    0 -0.11752054902E+03 -0.70434451727E+02 -0.12484989825E+03  0.18536339586E+03  0.00000000000E+00 0.  1.
          5    1    4    4  501    0  0.13268624351E+03  0.13566009948E+03  0.27145846540E+03  0.33123476968E+03  0.41800000000E+01 0. -1.
         -5    1    4    4    0  501  0.63289622533E+02 -0.21559691082E+02  0.64854864414E+02  0.93241741929E+02  0.41800000000E+01 0. -1.
</event>
<event>
11    1  0.1078607E-008  0.1438140E+03  0.7561462E-02  0.1103373E+00
         22   -1    0    0    0    0  0.00000000000E+00  0.00000000000E+00  0.13103389294E+04  0.13103389294E+04  0.00000000000E+00 0.  1.
         22   -1    0    0    0    0 -0.00000000000E+00 -0.00000000000E+00 -0.55113498381E+03  0.55113498381E+03  0.00000000000E+00 0. -1.
        -24    2    1    2    0    0 -0.78351219976E+02  0.16012075706E+02 -0.41171674957E+03  0.42712820333E+03  0.80824006122E+02 0.  0.
         25    2    1    2    0    0  0.23446054815E+02 -0.36337200926E+02 -0.95959675931E+02  0.16347816613E+03  0.12508693672E+03 0.  0.
         24    2    1    2    0    0  0.54905165161E+02  0.20325125220E+02  0.12668803711E+04  0.12708675437E+04  0.81797012300E+02 0.  0.
        -13    1    5    5    0    0  0.27077502180E+02 -0.50324568453E+01  0.10736799826E+04  0.10740331567E+04  0.00000000000E+00 0.  1.
         14    1    5    5    0    0  0.27827662981E+02  0.25357582065E+02  0.19320038852E+03  0.19683438703E+03  0.00000000000E+00 0. -1.
         11    1    3    3    0    0 -0.68103668566E+02 -0.84227664138E+01 -0.37833875124E+03  0.38451172070E+03  0.00000000000E+00 0. -1.
        -12    1    3    3    0    0 -0.10247551410E+02  0.24434842120E+02 -0.33377998324E+02  0.42616482627E+02  0.00000000000E+00 0.  1.
          5    1    4    4  501    0 -0.16657118424E+02 -0.48780788070E+02 -0.10787541250E+03  0.11963110758E+03  0.41800000000E+01 0. -1.
         -5    1    4    4    0  501  0.40103173239E+02  0.12443587144E+02  0.11915736572E+02  0.43847058543E+02  0.41800000000E+01 0. -1.
</event>
<event>
11    1  0.1078607E-008  0.1520108E+03  0.7561462E-02  0.1094842E+00
         22   -1    0    0    0    0  0.00000000000E+00  0.00000000000E+00  0.17564372362E+04  0.17564372362E+04  0.00000000000E+00 0.  1.
         22   -1    0    0    0    0 -0.00000000000E+00 -0.00000000000E+00 -0.45506850436E+03  0.45506850436E+03  0.00000000000E+00 0.  1.
        -24    2    1    2    0    0 -0.83974922229E+02 -0.21559262798E+02 -0.43768958645E+03  0.45325105312E+03  0.79672791455E+02 0.  0.
         25    2    1    2    0    0  0.64366127374E+02 -0.12219056821E+02  0.63354307762E+03  0.64908901792E+03  0.12508964100E+03 0.  0.
         24    2    1    2    0    0  0.19608794855E+02  0.33778319619E+02  0.11055152407E+04  0.11091656695E+04  0.80987995299E+02 0.  0.
        -11    1    5    5    0    0 -0.29129101837E+02  0.28527098419E+02  0.53096449612E+03  0.53252755427E+03  0.00000000000E+00 0.  1.
         12    1    5    5    0    0  0.48737896692E+02  0.52512211998E+01  0.57455074455E+03  0.57663811525E+03  0.00000000000E+00 0. -1.
         13    1    3    3    0    0  0.14806141482E+02 -0.73297236338E+01 -0.41083600965E+02  0.44281022373E+02  0.00000000000E+00 0. -1.
        -14    1    3    3    0    0 -0.98781063711E+02 -0.14229539164E+02 -0.39660598548E+03  0.40897003075E+03  0.00000000000E+00 0.  1.
          5    1    4    4  501    0  0.78106430442E+02 -0.10055243874E+02  0.19551989490E+03  0.21082510312E+03  0.41800000000E+01 0. -1.
         -5    1    4    4    0  501 -0.13740303068E+02 -0.21638129467E+01  0.43802318272E+03  0.43826391480E+03  0.41800000000E+01 0. -1.
</event>
<event>
11    1  0.1078607E-008  0.1789167E+03  0.7561462E-02  0.1070522E+00
         22   -1    0    0    0    0  0.00000000000E+00  0.00000000000E+00  0.45709350869E+03  0.45709350869E+03  0.00000000000E+00 0. -1.
         22   -1    0    0    0    0 -0.00000000000E+00 -0.00000000000E+00 -0.12781431267E+04  0.12781431267E+04  0.00000000000E+00 0.  1.
        -24    2    1    2    0    0 -0.41728681792E+02  0.17684452245E+02 -0.11830307995E+04  0.11863768116E+04  0.76642310041E+02 0.  0.
         25    2    1    2    0    0  0.66831717775E+02 -0.13832247212E+03  0.50307579354E+02  0.20439787261E+03  0.12509217799E+03 0.  0.
         24    2    1    2    0    0 -0.25103035983E+02  0.12063801987E+03  0.31167360214E+03  0.34446195122E+03  0.79560714623E+02 0.  0.
        -11    1    5    5    0    0  0.32260726158E+01 -0.97676183592E+01  0.46244973115E+02  0.47375219803E+02  0.00000000000E+00 0.  1.
         12    1    5    5    0    0 -0.28329108599E+02  0.13040563823E+03  0.26542862903E+03  0.29708673142E+03  0.00000000000E+00 0. -1.
         13    1    3    3    0    0  0.26007956689E+01 -0.21942064621E+02 -0.14807862232E+03  0.14971805745E+03  0.00000000000E+00 0. -1.
        -14    1    3    3    0    0 -0.44329477461E+02  0.39626516866E+02 -0.10349521772E+04  0.10366587542E+04  0.00000000000E+00 0.  1.
          5    1    4    4  501    0  0.66610253597E+02 -0.31328829808E+02 -0.19888721409E+02  0.76363964674E+02  0.41800000000E+01 0.  1.
         -5    1    4    4    0  501  0.22146417803E+00 -0.10699364231E+03  0.70196300763E+02  0.12803390794E+03  0.41800000000E+01 0.  1.
</event>
<event>
11    1  0.1078607E-008  0.1405396E+03  0.7561462E-02  0.1106957E+00
         22   -1    0    0    0    0  0.00000000000E+00  0.00000000000E+00  0.15018862913E+04  0.15018862913E+04  0.00000000000E+00 0. -1.
         22   -1    0    0    0    0 -0.00000000000E+00 -0.00000000000E+00 -0.32457707873E+03  0.32457707873E+03  0.00000000000E+00 0. -1.
         24    2    1    2    0    0  0.56356911239E+02 -0.37123054310E+02 -0.26053517574E+03  0.28022116003E+03  0.78045487539E+02 0.  0.
         25    2    1    2    0    0 -0.40506605258E+02  0.25576331191E+01  0.29082854891E+02  0.13468753709E+03  0.12509034192E+03 0.  0.
        -24    2    1    2    0    0 -0.15850305981E+02  0.34565421191E+02  0.14087615334E+04  0.14115546729E+04  0.80196857798E+02 0.  0.
        -13    1    3    3    0    0  0.52699788038E+02 -0.39116784532E+02 -0.99887334820E+02  0.11951932960E+03  0.00000000000E+00 0.  1.
         14    1    3    3    0    0  0.36571232014E+01  0.19937302221E+01 -0.16064784092E+03  0.16070183043E+03  0.00000000000E+00 0. -1.
         13    1    5    5    0    0 -0.11456043303E+02 -0.14179381431E+02  0.95272419728E+03  0.95289857376E+03  0.00000000000E+00 0. -1.
        -14    1    5    5    0    0 -0.43942626786E+01  0.48744802622E+02  0.45603733610E+03  0.45865609910E+03  0.00000000000E+00 0.  1.
          5    1    4    4  501    0 -0.30846031484E+02 -0.50665272986E+02 -0.18759389344E+02  0.62352503026E+02  0.41800000000E+01 0.  1.
         -5    1    4    4    0  501 -0.96605737742E+01  0.53222906105E+02  0.47842244235E+02  0.72335034066E+02  0.41800000000E+01 0.  1.
</event>
<event>
11    1  0.1078607E-008  0.1490543E+03  0.7561462E-02  0.1097849E+00
         22   -1    0    0    0    0  0.00000000000E+00  0.00000000000E+00  0.12262782204E+04  0.12262782204E+04  0.00000000000E+00 0. -1.
         22   -1    0    0    0    0 -0.00000000000E+00 -0.00000000000E+00 -0.33596811804E+03  0.33596811804E+03  0.00000000000E+00 0.  1.
        -24    2    1    2    0    0  0.50540563705E+02 -0.62269619481E+02 -0.29820790611E+03  0.31794460715E+03  0.75689919121E+02 0.  0.
         25    2    1    2    0    0 -0.44630150979E+02  0.97177993537E+02  0.23629440057E+03  0.28795497370E+03  0.12509040864E+03 0.  0.
         24    2    1    2    0    0 -0.59104127259E+01 -0.34908374056E+02  0.95222360787E+03  0.95634675757E+03  0.81337529869E+02 0.  0.
        -11    1    5    5    0    0  0.55001885554E+01  0.59724111677E+01  0.88169925713E+01  0.11985871988E+02  0.00000000000E+00 0.  1.
         12    1    5    5    0    0 -0.11410601281E+02 -0.40880785223E+02  0.94340661530E+03  0.94436088558E+03  0.00000000000E+00 0. -1.
         11    1    3    3    0    0  0.39837585240E+02 -0.25590925030E+02 -0.58738840406E+02  0.75446537455E+02  0.00000000000E+00 0. -1.
        -12    1    3    3    0    0  0.10702978465E+02 -0.36678694451E+02 -0.23946906571E+03  0.24249806969E+03  0.00000000000E+00 0.  1.
          5    1    4    4  501    0  0.29614265159E+02 -0.10529739544E+02  0.65561120862E+02  0.72825909431E+02  0.41800000000E+01 0.  1.
         -5    1    4    4    0  501 -0.74244416139E+02  0.10770773308E+03  0.17073327971E+03  0.21512906427E+03  0.41800000000E+01 0.  1.
</event>
<event>
11    1  0.1078607E-008  0.1567297E+03  0.7561462E-02  0.1090194E+00
         22   -1    0    0    0    0  0.00000000000E+00  0.00000000000E+00  0.80449612917E+03  0.80449612917E+03  0.00000000000E+00 0. -1.
         22   -1    0    0    0    0 -0.00000000000E+00 -0.00000000000E+00 -0.28800678513E+03  0.28800678513E+03  0.00000000000E+00 0.  1.
         24    2    1    2    0    0 -0.25879896982E+02 -0.30437107881E+02 -0.19060321103E+03  0.21071235858E+03  0.80460719610E+02 0.  0.
         25    2    1    2    0    0  0.96057077712E+01  0.12185825881E+03  0.11240772447E+02  0.17525643556E+03  0.12508700322E+03 0.  0.
        -24    2    1    2    0    0  0.16274189211E+02 -0.91421150932E+02  0.69585178262E+03  0.70653412017E+03  0.79737591572E+02 0.  0.
        -13    1    3    3    0    0 -0.32488349762E+01 -0.37144608909E+02 -0.18169783043E+03  0.18548417313E+03  0.00000000000E+00 0.  1.
         14    1    3    3    0    0 -0.22631062006E+02  0.67075010275E+01 -0.89053806035E+01  0.25228185453E+02  0.00000000000E+00 0. -1.
         11    1    5    5    0    0 -0.72058371431E+01 -0.97786365905E+02  0.56215298722E+03  0.57064006035E+03  0.00000000000E+00 0. -1.
        -12    1    5    5    0    0  0.23480026354E+02  0.63652149731E+01  0.13369879540E+03  0.13589405981E+03  0.00000000000E+00 0.  1.
          5    1    4    4  501    0 -0.70452307428E+01 -0.23206991231E+02 -0.11935210052E+02  0.27351807202E+02  0.41800000000E+01 0.  1.
         -5    1    4    4    0  501  0.16650938514E+02  0.14506525004E+03  0.23175982499E+02  0.14790462835E+03  0.41800000000E+01 0.  1.
</event>
<event>
11    1  0.1078607E-008  0.1810718E+03  0.7561462E-02  0.1068779E+00
         22   -1    0    0    0    0  0.00000000000E+00  0.00000000000E+00  0.10178381986E+03  0.10178381986E+03  0.00000000000E+00 0. -1.
         22   -1    0    0    0    0 -0.00000000000E+00 -0.00000000000E+00 -0.19796739123E+04  0.19796739123E+04  0.00000000000E+00 0.  1.
        -24    2    1    2    0    0  0.12160573462E+03 -0.19553073015E+02 -0.96557584934E+03  0.97650424107E+03  0.77804464257E+02 0.  0.
         25    2    1    2    0    0 -0.14890109756E+03 -0.95813311546E+02 -0.93622270033E+03  0.96099605474E+03  0.12509494431E+03 0.  0.
         24    2    1    2    0    0  0.27295362938E+02  0.11536638456E+03  0.23908457204E+02  0.14395743637E+03  0.78087704770E+02 0.  0.
        -11    1    5    5    0    0  0.13329953094E+02 -0.28529121612E+01 -0.13491420673E+02  0.19179290630E+02  0.00000000000E+00 0.  1.
         12    1    5    5    0    0  0.13965409845E+02  0.11821929672E+03  0.37399877877E+02  0.12477814574E+03  0.00000000000E+00 0. -1.
         13    1    3    3    0    0  0.21260616060E+02 -0.13128290857E+02 -0.55197409743E+02  0.60589766945E+02  0.00000000000E+00 0. -1.
        -14    1    3    3    0    0  0.10034511856E+03 -0.64247821590E+01 -0.91037843959E+03  0.91591447413E+03  0.00000000000E+00 0.  1.
          5    1    4    4  501    0 -0.15779241499E+03 -0.65118373793E+02 -0.61832204016E+03  0.64146587328E+03  0.41800000000E+01 0.  1.
         -5    1    4    4    0  501  0.88913174269E+01 -0.30694937753E+02 -0.31790066017E+03  0.31953018146E+03  0.41800000000E+01 0.  1.
</event>
<event>
11    1  0.1078607E-008  0.1848829E+03  0.7561462E-02  0.1065760E+00
         22   -1    0    0    0    0  0.00000000000E+00  0.00000000000E+00  0.66154242946E+03  0.66154242946E+03  0.00000000000E+00 0. -1.
         22   -1    0    0    0    0 -0.00000000000E+00 -0.00000000000E+00 -0.74931983662E+02  0.74931983662E+02  0.00000000000E+00 0.  1.
        -24    2    1    2    0    0  0.13747422097E+03  0.31640615560E+02  0.11134637554E+03  0.19656938815E+03  0.79631771477E+02 0.  0.
         25    2    1    2    0    0 -0.12309052760E+03 -0.18445338373E+02  0.35231215042E+03  0.39403452572E+03  0.12509135714E+03 0.  0.
         24    2    1    2    0    0 -0.14383693370E+02 -0.13195277188E+02  0.12295191984E+03  0.14587049925E+03  0.76026455816E+02 0.  0.
        -13    1    5    5    0    0 -0.85577827506E+01  0.26732891403E+02  0.17787799191E+02  0.33230843029E+02  0.00000000000E+00 0.  1.
         14    1    5    5    0    0 -0.58259106189E+01 -0.39928168591E+02  0.10516412065E+03  0.11263965622E+03  0.00000000000E+00 0. -1.
         11    1    3    3    0    0  0.97305163777E+02  0.53608498741E+02  0.54991031346E+02  0.12396039514E+03  0.00000000000E+00 0. -1.
        -12    1    3    3    0    0  0.40169057195E+02 -0.21967883181E+02  0.56355344189E+02  0.72608993011E+02  0.00000000000E+00 0.  1.
          5    1    4    4  501    0 -0.10951285843E+03 -0.43299221282E+02  0.15525556569E+03  0.19490934253E+03  0.41800000000E+01 0.  1.
         -5    1    4    4    0  501 -0.13577669168E+02  0.24853882909E+02  0.19705658473E+03  0.19912518319E+03  0.41800000000E+01 0.  1.
</event>
<event>
11    1  0.1078607E-008  0.1476538E+03  0.7561462E-02  0.1099301E+00
         22   -1    0    0    0    0  0.00000000000E+00  0.00000000000E+00  0.30165233799E+03  0.30165233799E+03  0.00000000000E+00 0.  1.
         22   -1    0    0    0    0 -0.00000000000E+00 -0.00000000000E+00 -0.19184585094E+04  0.19184585094E+04  0.00000000000E+00 0. -1.
         24    2    1    2    0    0  0.45924954437E+02  0.67516150399E+02 -0.16769468132E+04  0.16808702233E+04  0.80663258190E+02 0.  0.
         25    2    1    2    0    0 -0.24847496082E+02 -0.40002257987E+02 -0.21347683205E+03  0.25186838988E+03  0.12509096408E+03 0.  0.
        -24    2    1    2    0    0 -0.21077458354E+02 -0.27513892411E+02  0.27361747386E+03  0.28737223420E+03  0.80715583751E+02 0.  0.
        -13    1    3    3    0    0  0.27058322653E+02  0.34916022972E+02 -0.28404970106E+03  0.28746393540E+03  0.00000000000E+00 0.  1.
         14    1    3    3    0    0  0.18866631784E+02  0.32600127427E+02 -0.13928971122E+04  0.13934062879E+04  0.00000000000E+00 0. -1.
         13    1    5    5    0    0  0.27850386932E+02 -0.26950537705E+02  0.11248869204E+03  0.11897765072E+03  0.00000000000E+00 0. -1.
        -14    1    5    5    0    0 -0.48927845286E+02 -0.56335470617E+00  0.16112878182E+03  0.16839458347E+03  0.00000000000E+00 0.  1.
          5    1    4    4  501    0 -0.21106109543E+02 -0.20882714413E+00 -0.21047231503E+03  0.21156932495E+03  0.41800000000E+01 0.  1.
         -5    1    4    4    0  501 -0.37413865392E+01 -0.39793430843E+02 -0.30045170196E+01  0.40299064927E+02  0.41800000000E+01 0.  1.
</event>
<event>
11    1  0.1078607E-008  0.1912370E+03  0.7561462E-02  0.1060899E+00
         22   -1    0    0    0    0  0.00000000000E+00  0.00000000000E+00  0.29888302053E+03  0.29888302053E+03  0.00000000000E+00 0. -1.
         22   -1    0    0    0    0 -0.00000000000E+00 -0.00000000000E+00 -0.63408406535E+03  0.63408406535E+03  0.00000000000E+00 0.  1.
         24    2    1    2    0    0  0.10603120405E+03 -0.13739202364E+02 -0.40545290395E+03  0.42696214349E+03  0.80456402691E+02 0.  0.
         25    2    1    2    0    0 -0.23578141090E+03  0.30559375168E+01 -0.92961615273E+02  0.28265119554E+03  0.12509046305E+03 0.  0.
        -24    2    1    2    0    0  0.12975020684E+03  0.10683264847E+02  0.16321347440E+03  0.22335374686E+03  0.79366300687E+02 0.  0.
        -11    1    3    3    0    0  0.11471564794E+03 -0.27058691400E+02 -0.36069410346E+03  0.37946289533E+03  0.00000000000E+00 0.  1.
         12    1    3    3    0    0 -0.86844438890E+01  0.13319489037E+02 -0.44758800497E+02  0.47499248160E+02  0.00000000000E+00 0. -1.
         11    1    5    5    0    0  0.10267192643E+03 -0.14092531061E+02  0.75347420026E+02  0.12813023692E+03  0.00000000000E+00 0. -1.
        -12    1    5    5    0    0  0.27078280413E+02  0.24775795908E+02  0.87866054376E+02  0.95223509937E+02  0.00000000000E+00 0.  1.
          5    1    4    4  501    0 -0.19200187392E+03 -0.13312901905E+02 -0.12158044513E+03  0.22768669259E+03  0.41800000000E+01 0. -1.
         -5    1    4    4    0  501 -0.43779536976E+02  0.16368839422E+02  0.28618829853E+02  0.54964502945E+02  0.41800000000E+01 0. -1.
</event>
<event>
11    1  0.1078607E-008  0.1515344E+03  0.7561462E-02  0.1095321E+00
         22   -1    0    0    0    0  0.00000000000E+00  0.00000000000E+00  0.43693997179E+03  0.43693997179E+03  0.00000000000E+00 0.  1.
         22   -1    0    0    0    0 -0.00000000000E+00 -0.00000000000E+00 -0.26637872550E+03  0.26637872550E+03  0.00000000000E+00 0. -1.
        -24    2    1    2    0    0  0.85459133095E+02 -0.13993618619E+01 -0.13216554713E+03  0.17683876689E+03  0.80616350615E+02 0.  0.
         25    2    1    2    0    0 -0.85661029979E+02  0.11351550602E+01 -0.51207838805E+02  0.16002802909E+03  0.12509047407E+03 0.  0.
         24    2    1    2    0    0  0.20189688395E+00  0.26420680167E+00  0.35393463223E+03  0.36645190131E+03  0.94958735869E+02 0.  0.
        -13    1    5    5    0    0  0.40782418145E+02  0.20260805742E+02  0.12372549885E+03  0.13183969412E+03  0.00000000000E+00 0.  1.
         14    1    5    5    0    0 -0.40580521261E+02 -0.19996598940E+02  0.23020913337E+03  0.23461220719E+03  0.00000000000E+00 0. -1.
         11    1    3    3    0    0  0.53408749690E+02  0.19472316766E+02 -0.12582300786E+03  0.13806916734E+03  0.00000000000E+00 0. -1.
        -12    1    3    3    0    0  0.32050383405E+02 -0.20871678627E+02 -0.63425392679E+01  0.38769599553E+02  0.00000000000E+00 0.  1.
          5    1    4    4  501    0 -0.58887498232E+02  0.59983152579E+02 -0.43631780132E+02  0.94799370667E+02  0.41800000000E+01 0. -1.
         -5    1    4    4    0  501 -0.26773531747E+02 -0.58847997519E+02 -0.75760586730E+01  0.65228658419E+02  0.41800000000E+01 0. -1.
</event>
<event>
11    1  0.1078607E-008  0.1678395E+03  0.7561462E-02  0.1079927E+00
         22   -1    0    0    0    0  0.00000000000E+00  0.00000000000E+00  0.24912636677E+03  0.24912636677E+03  0.00000000000E+00 0.  1.
         22   -1    0    0    0    0 -0.00000000000E+00 -0.00000000000E+00 -0.70292806343E+03  0.70292806343E+03  0.00000000000E+00 0. -1.
        -24    2    1    2    0    0 -0.10464511270E+03  0.45249118526E+02 -0.59894400342E+03  0.61502966198E+03  0.80805219756E+02 0.  0.
         25    2    1    2    0    0  0.80412006330E+02 -0.49179802083E+02 -0.16418466729E+02  0.15748879747E+03  0.12509361128E+03 0.  0.
         24    2    1    2    0    0  0.24233106373E+02  0.39306835577E+01  0.16156077350E+03  0.17953597075E+03  0.74354472240E+02 0.  0.
        -13    1    5    5    0    0  0.47115856178E+02  0.52129483002E+01  0.14096821083E+03  0.14872496494E+03  0.00000000000E+00 0.  1.
         14    1    5    5    0    0 -0.22882749805E+02 -0.12822647425E+01  0.20592562670E+02  0.30811005807E+02  0.00000000000E+00 0. -1.
         13    1    3    3    0    0 -0.40188083177E+02  0.61314187377E+02 -0.31545825228E+03  0.32386481830E+03  0.00000000000E+00 0. -1.
        -14    1    3    3    0    0 -0.64457029526E+02 -0.16065068852E+02 -0.28348575115E+03  0.29116484368E+03  0.00000000000E+00 0.  1.
          5    1    4    4  501    0 -0.10106427029E+02 -0.27998062100E+02  0.38954059343E+02  0.49202870729E+02  0.41800000000E+01 0. -1.
         -5    1    4    4    0  501  0.90518433358E+02 -0.21181739983E+02 -0.55372526072E+02  0.10828592674E+03  0.41800000000E+01 0. -1.
</event>
<event>
11    1  0.1078607E-008  0.1337658E+03  0.7561462E-02  0.1114727E+00
         22   -1    0    0    0    0  0.00000000000E+00  0.00000000000E+00  0.30832203161E+04  0.30832203161E+04  0.00000000000E+00 0.  1.
         22   -1    0    0    0    0 -0.00000000000E+00 -0.00000000000E+00 -0.52703615196E+03  0.52703615196E+03  0.00000000000E+00 0.  1.
        -24    2    1    2    0    0  0.37593150462E+02  0.28884805605E+02 -0.51813952949E+03  0.52657628009E+03  0.81033510185E+02 0.  0.
         25    2    1    2    0    0 -0.28275744303E+02 -0.43002656171E+02  0.12049027095E+04  0.12124704532E+04  0.12508123067E+03 0.  0.
         24    2    1    2    0    0 -0.93174061596E+01  0.14117850566E+02  0.18694209841E+04  0.18712097348E+04  0.80030794080E+02 0.  0.
        -11    1    5    5    0    0 -0.14831552650E+02  0.43457686447E+02  0.14503632932E+04  0.14510900136E+04  0.00000000000E+00 0.  1.
         12    1    5    5    0    0  0.55141464907E+01 -0.29339835881E+02  0.41905769090E+03  0.42011972113E+03  0.00000000000E+00 0. -1.
         13    1    3    3    0    0 -0.11086796651E+02 -0.14799511072E+02 -0.41032155973E+02  0.45006448558E+02  0.00000000000E+00 0. -1.
        -14    1    3    3    0    0  0.48679947113E+02  0.43684316678E+02 -0.47710737352E+03  0.48156983153E+03  0.00000000000E+00 0.  1.
          5    1    4    4  501    0 -0.35403418556E+02 -0.67076251731E+02  0.39902433800E+03  0.40619025137E+03  0.41800000000E+01 0. -1.
         -5    1    4    4    0  501  0.71276742530E+01  0.24073595560E+02  0.80587837152E+03  0.80628020181E+03  0.41800000000E+01 0. -1.
</event>
<event>
11    1  0.1078607E-008  0.1609270E+03  0.7561462E-02  0.1086209E+00
         22   -1    0    0    0    0  0.00000000000E+00  0.00000000000E+00  0.26327207015E+04  0.26327207015E+04  0.00000000000E+00 0.  1.
         22   -1    0    0    0    0 -0.00000000000E+00 -0.00000000000E+00 -0.12268103248E+03  0.12268103248E+03  0.00000000000E+00 0.  1.
        -24    2    1    2    0    0 -0.78432648385E+01 -0.32243902930E+02 -0.91125924187E+02  0.12688475754E+03  0.81820667062E+02 0.  0.
         25    2    1    2    0    0 -0.69971347795E+02  0.93463383541E+02  0.62118550455E+03  0.64432210262E+03  0.12509255488E+03 0.  0.
         24    2    1    2    0    0  0.77814612633E+02 -0.61219480611E+02  0.19799800887E+04  0.19841948739E+04  0.83097575558E+02 0.  0.
        -13    1    5    5    0    0  0.30569394859E+02 -0.42430394238E+02  0.15968143227E+04  0.15976704314E+04  0.00000000000E+00 0.  1.
         14    1    5    5    0    0  0.47245217775E+02 -0.18789086372E+02  0.38316576598E+03  0.38652444242E+03  0.00000000000E+00 0. -1.
         13    1    3    3    0    0  0.13941615085E+02 -0.12578717064E+02  0.10217592207E+02  0.21377369919E+02  0.00000000000E+00 0. -1.
        -14    1    3    3    0    0 -0.21784879923E+02 -0.19665185866E+02 -0.10134351639E+03  0.10550738762E+03  0.00000000000E+00 0.  1.
          5    1    4    4  501    0 -0.93465202244E+02  0.10298032720E+03  0.44415600921E+03  0.46543820722E+03  0.41800000000E+01 0. -1.
         -5    1    4    4    0  501  0.23493854449E+02 -0.95169436614E+01  0.17702949534E+03  0.17888389540E+03  0.41800000000E+01 0. -1.
</event>
<event>
11    1  0.1078607E-008  0.1356462E+03  0.7561462E-02  0.1112520E+00
         22   -1    0    0    0    0  0.00000000000E+00  0.00000000000E+00  0.19700182384E+03  0.19700182384E+03  0.00000000000E+00 0.  1.
         22   -1    0    0    0    0 -0.00000000000E+00 -0.00000000000E+00 -0.12036370846E+04  0.12036370846E+04  0.00000000000E+00 0. -1.
        -24    2    1    2    0    0  0.18934318252E+02 -0.44941533870E+00 -0.67395070831E+03  0.67901344834E+03  0.80566714083E+02 0.  0.
         25    2    1    2    0    0  0.57725232918E+01 -0.46062193328E+02 -0.50715788861E+03  0.52441511828E+03  0.12508814744E+03 0.  0.
         24    2    1    2    0    0 -0.24706841544E+02  0.46511608667E+02  0.17447333619E+03  0.19721034178E+03  0.75347303226E+02 0.  0.
        -13    1    5    5    0    0 -0.17381663459E+02 -0.15383083897E+02  0.85389626256E+02  0.88488133481E+02  0.00000000000E+00 0.  1.
         14    1    5    5    0    0 -0.73251780850E+01  0.61894692564E+02  0.89083709930E+02  0.10872220829E+03  0.00000000000E+00 0. -1.
         11    1    3    3    0    0  0.18809231043E+02 -0.12421217458E+02 -0.66097102682E+03  0.66135525409E+03  0.00000000000E+00 0. -1.
        -12    1    3    3    0    0  0.12508720943E+00  0.11971802119E+02 -0.12979681493E+02  0.17658194258E+02  0.00000000000E+00 0.  1.
          5    1    4    4  501    0 -0.40387613507E+02  0.20077677363E+02 -0.27271344589E+03  0.27644957664E+03  0.41800000000E+01 0. -1.
         -5    1    4    4    0  501  0.46160136799E+02 -0.66139870691E+02 -0.23444444271E+03  0.24796554165E+03  0.41800000000E+01 0. -1.
</event>
<event>
11    1  0.1078607E-008  0.1301901E+03  0.7561462E-02  0.1119036E+00
         22   -1    0    0    0    0  0.00000000000E+00  0.00000000000E+00  0.87488483745E+03  0.87488483745E+03  0.00000000000E+00 0. -1.
         22   -1    0    0    0    0 -0.00000000000E+00 -0.00000000000E+00 -0.55203530652E+03  0.55203530652E+03  0.00000000000E+00 0. -1.
        -24    2    1    2    0    0 -0.10456980397E+00 -0.27068621852E+02 -0.45307799361E+03  0.46020602169E+03  0.76007847505E+02 0.  0.
         25    2    1    2    0    0  0.25094339472E+02  0.52277647484E+02 -0.41251941284E+02  0.14391988420E+03  0.12509409302E+03 0.  0.
         24    2    1    2    0    0 -0.24989769668E+02 -0.25209025632E+02  0.81717946582E+03  0.82279423808E+03  0.89152090836E+02 0.  0.
        -11    1    5    5    0    0 -0.35383526821E+02 -0.41661096987E+02  0.28128154407E+03  0.28654309974E+03  0.00000000000E+00 0.  1.
         12    1    5    5    0    0  0.10393757153E+02  0.16452071355E+02  0.53589792175E+03  0.53625113834E+03  0.00000000000E+00 0. -1.
         11    1    3    3    0    0  0.14740405900E+02 -0.20679169937E+02 -0.43583047445E+03  0.43656970818E+03  0.00000000000E+00 0. -1.
        -12    1    3    3    0    0 -0.14844975704E+02 -0.63894519144E+01 -0.17247519155E+02  0.23636313512E+02  0.00000000000E+00 0.  1.
          5    1    4    4  501    0 -0.45767846049E+02 -0.24672872701E+01 -0.26387842314E+02  0.53052557529E+02  0.41800000000E+01 0.  1.
         -5    1    4    4    0  501  0.70862185521E+02  0.54744934754E+02 -0.14864098970E+02  0.90867326670E+02  0.41800000000E+01 0.  1.
</event>
<event>
11    1  0.1078607E-008  0.6848888E+03  0.7561462E-02  0.9054874E-01
         22   -1    0    0    0    0  0.00000000000E+00  0.00000000000E+00  0.69827462331E+03  0.69827462331E+03  0.00000000000E+00 0.  1.
         22   -1    0    0    0    0 -0.00000000000E+00 -0.00000000000E+00 -0.13159699388E+04  0.13159699388E+04  0.00000000000E+00 0.  1.
        -24    2    1    2    0    0  0.20238968695E+03 -0.43742422468E+03 -0.60993553443E+03  0.78160328269E+03  0.81122115493E+02 0.  0.
         25    2    1    2    0    0 -0.31102052867E+01  0.78188215624E+03  0.13296670698E+03  0.80291808380E+03  0.12509166439E+03 0.  0.
         24    2    1    2    0    0 -0.19927948166E+03 -0.34445793156E+03 -0.14072648801E+03  0.42972319561E+03  0.80588473079E+02 0.  0.
        -13    1    5    5    0    0 -0.83326406590E+02 -0.18407879420E+03 -0.10805865657E+03  0.22913962068E+03  0.00000000000E+00 0.  1.
         14    1    5    5    0    0 -0.11595307507E+03 -0.16037913736E+03 -0.32667831446E+02  0.20058357493E+03  0.00000000000E+00 0. -1.
         13    1    3    3    0    0  0.68349764296E+02 -0.19315016798E+03 -0.31584062004E+03  0.37647572955E+03  0.00000000000E+00 0. -1.
        -14    1    3    3    0    0  0.13403992265E+03 -0.24427405670E+03 -0.29409491439E+03  0.40512755314E+03  0.00000000000E+00 0.  1.
          5    1    4    4  501    0 -0.27458874964E+01  0.78590012350E+03  0.13084635583E+03  0.79673382334E+03  0.41800000000E+01 0. -1.
         -5    1    4    4    0  501 -0.36431779030E+00 -0.40179672636E+01  0.21203511514E+01  0.61842604561E+01  0.41800000000E+01 0. -1.
</event>
<event>
11    1  0.1078607E-008  0.1818027E+03  0.7561462E-02  0.1068194E+00
         22   -1    0    0    0    0  0.00000000000E+00  0.00000000000E+00  0.27162163869E+03  0.27162163869E+03  0.00000000000E+00 0.  1.
         22   -1    0    0    0    0 -0.00000000000E+00 -0.00000000000E+00 -0.26746033541E+04  0.26746033541E+04  0.00000000000E+00 0.  1.
         24    2    1    2    0    0 -0.70865275672E+02  0.23323398798E+02 -0.19548990036E+04  0.19571962614E+04  0.58491223539E+02 0.  0.
         25    2    1    2    0    0  0.16392974745E+03 -0.11350268425E+03 -0.67360579320E+03  0.71354607671E+03  0.12508963795E+03 0.  0.
        -24    2    1    2    0    0 -0.93064471781E+02  0.90179285451E+02  0.22552308132E+03  0.27548265473E+03  0.90756451090E+02 0.  0.
        -11    1    3    3    0    0 -0.73678700030E+02  0.34891001320E+02 -0.15722243012E+04  0.15743364272E+04  0.00000000000E+00 0.  1.
         12    1    3    3    0    0  0.28134243581E+01 -0.11567602522E+02 -0.38267470235E+03  0.38285983415E+03  0.00000000000E+00 0. -1.
         11    1    5    5    0    0 -0.53306380609E+02  0.17525556278E+01  0.41862005774E+02  0.67801690187E+02  0.00000000000E+00 0. -1.
        -12    1    5    5    0    0 -0.39758091173E+02  0.88426729823E+02  0.18366107555E+03  0.20768096454E+03  0.00000000000E+00 0.  1.
          5    1    4    4  501    0  0.17545685070E+02  0.22149713280E+02 -0.15966499404E+03  0.16220001105E+03  0.41800000000E+01 0.  1.
         -5    1    4    4    0  501  0.14638406238E+03 -0.13565239753E+03 -0.51394079916E+03  0.55134606566E+03  0.41800000000E+01 0.  1.
</event>
<event>
11    1  0.1078607E-008  0.1425012E+03  0.7561462E-02  0.1104797E+00
         22   -1    0    0    0    0  0.00000000000E+00  0.00000000000E+00  0.12738124736E+03  0.12738124736E+03  0.00000000000E+00 0. -1.
         22   -1    0    0    0    0 -0.00000000000E+00 -0.00000000000E+00 -0.19193064752E+04  0.19193064752E+04  0.00000000000E+00 0.  1.
         24    2    1    2    0    0  0.52032848749E+02 -0.26362253475E+02 -0.12890861515E+04  0.12929313253E+04  0.80783166619E+02 0.  0.
         25    2    1    2    0    0 -0.85926017758E+02 -0.32708297341E+02 -0.59403171708E+03  0.61398229998E+03  0.12508984988E+03 0.  0.
        -24    2    1    2    0    0  0.33893169009E+02  0.59070550817E+02  0.91192640806E+02  0.13977409729E+03  0.81133369560E+02 0.  0.
        -13    1    3    3    0    0 -0.18858318298E+02  0.84334231109E+01 -0.27569781406E+03  0.27647069189E+03  0.00000000000E+00 0.  1.
         14    1    3    3    0    0  0.70891167047E+02 -0.34795676586E+02 -0.10133883375E+04  0.10164606334E+04  0.00000000000E+00 0. -1.
         13    1    5    5    0    0  0.17261623724E+02 -0.12192805874E+01  0.72444682808E+02  0.74482765563E+02  0.00000000000E+00 0. -1.
        -14    1    5    5    0    0  0.16631545285E+02  0.60289831404E+02  0.18747957998E+02  0.65291331725E+02  0.00000000000E+00 0.  1.
          5    1    4    4  501    0 -0.10916403518E+03 -0.53568958585E+02 -0.50786185368E+03  0.52223323786E+03  0.41800000000E+01 0.  1.
         -5    1    4    4    0  501  0.23238017419E+02  0.20860661243E+02 -0.86169863399E+02  0.91749062117E+02  0.41800000000E+01 0.  1.
</event>
<event>
11    1  0.1078607E-008  0.2165383E+03  0.7561462E-02  0.1043408E+00
         22   -1    0    0    0    0  0.00000000000E+00  0.00000000000E+00  0.49532655988E+03  0.49532655988E+03  0.00000000000E+00 0.  1.
         22   -1    0    0    0    0 -0.00000000000E+00 -0.00000000000E+00 -0.22891513712E+04  0.22891513712E+04  0.00000000000E+00 0. -1.
        -24    2    1    2    0    0 -0.15929887290E+03 -0.70127200886E+02 -0.20726262784E+04  0.20814891844E+04  0.80768681773E+02 0.  0.
         25    2    1    2    0    0  0.19397996791E+03  0.12473900786E+03 -0.12026857594E+03  0.28861968022E+03  0.12509492962E+03 0.  0.
         24    2    1    2    0    0 -0.34681095015E+02 -0.54611806971E+02  0.39907004297E+03  0.41436906644E+03  0.90882320691E+02 0.  0.
        -13    1    5    5    0    0 -0.37633498644E+02 -0.78727841274E+02  0.31226814354E+03  0.32423100820E+03  0.00000000000E+00 0.  1.
         14    1    5    5    0    0  0.29524036286E+01  0.24116034303E+02  0.86801899436E+02  0.90138058241E+02  0.00000000000E+00 0. -1.
         11    1    3    3    0    0 -0.12582810637E+03 -0.30634541718E+02 -0.11209638565E+04  0.11284197602E+04  0.00000000000E+00 0. -1.
        -12    1    3    3    0    0 -0.33470766528E+02 -0.39492659168E+02 -0.95166242184E+03  0.95306942427E+03  0.00000000000E+00 0.  1.
          5    1    4    4  501    0  0.94482985765E+02 -0.70565182372E+01 -0.62684568559E+02  0.11368226152E+03  0.41800000000E+01 0.  1.
         -5    1    4    4    0  501  0.99496982148E+02  0.13179552609E+03 -0.57584007383E+02  0.17493741870E+03  0.41800000000E+01 0.  1.
</event>
<event>
11    1  0.1078607E-008  0.1457328E+03  0.7561462E-02  0.1101320E+00
         22   -1    0    0    0    0  0.00000000000E+00  0.00000000000E+00  0.16616167249E+03  0.16616167249E+03  0.00000000000E+00 0.  1.
         22   -1    0    0    0    0 -0.00000000000E+00 -0.00000000000E+00 -0.45894722743E+03  0.45894722743E+03  0.00000000000E+00 0. -1.
         24    2    1    2    0    0 -0.61044869823E+02 -0.53956396693E+02 -0.35771056821E+03  0.37547965574E+03  0.79939679663E+02 0.  0.
         25    2    1    2    0    0  0.28452012979E+02  0.14191660784E+02 -0.13187276667E+02  0.12974169164E+03  0.12509229395E+03 0.  0.
        -24    2    1    2    0    0  0.32592856845E+02  0.39764735909E+02  0.78112289941E+02  0.11988755255E+03  0.75019776570E+02 0.  0.
        -11    1    3    3    0    0  0.17007204005E+02  0.25700882133E+01 -0.41923675012E+02  0.45314951926E+02  0.00000000000E+00 0.  1.
         12    1    3    3    0    0 -0.78052073829E+02 -0.56526484906E+02 -0.31578689320E+03  0.33016470381E+03  0.00000000000E+00 0. -1.
         13    1    5    5    0    0  0.16805579241E+02  0.23216007195E+02 -0.88281117583E+01  0.29989098702E+02  0.00000000000E+00 0. -1.
        -14    1    5    5    0    0  0.15787277604E+02  0.16548728714E+02  0.86940401699E+02  0.89898453845E+02  0.00000000000E+00 0.  1.
          5    1    4    4  501    0 -0.38670900214E+02  0.33796987445E+02  0.15848445504E+02  0.53910300579E+02  0.41800000000E+01 0. -1.
         -5    1    4    4    0  501  0.67122913192E+02 -0.19605326661E+02 -0.29035722171E+02  0.75831391065E+02  0.41800000000E+01 0. -1.
</event>
<event>
11    1  0.1078607E-008  0.1858395E+03  0.7561462E-02  0.1065015E+00
         22   -1    0    0    0    0  0.00000000000E+00  0.00000000000E+00  0.30406777075E+03  0.30406777075E+03  0.00000000000E+00 0.  1.
         22   -1    0    0    0    0 -0.00000000000E+00 -0.00000000000E+00 -0.10133537803E+04  0.10133537803E+04  0.00000000000E+00 0. -1.
         24    2    1    2    0    0  0.45588051380E+02  0.87869841380E+02 -0.78189622567E+03  0.79224273413E+03  0.80544786404E+02 0.  0.
         25    2    1    2    0    0 -0.13005038030E+03 -0.18188199973E+03 -0.11828348447E+03  0.28218996620E+03  0.12508409604E+03 0.  0.
        -24    2    1    2    0    0  0.84462328921E+02  0.94012158350E+02  0.19089370054E+03  0.24298885076E+03  0.81430987734E+02 0.  0.
        -11    1    3    3    0    0  0.20535423377E+02  0.13421223357E+02 -0.45705030773E+02  0.51872754772E+02  0.00000000000E+00 0.  1.
         12    1    3    3    0    0  0.25052628003E+02  0.74448618023E+02 -0.73619119490E+03  0.74036997936E+03  0.00000000000E+00 0. -1.
         11    1    5    5    0    0  0.96216174787E+02  0.67796962419E+02  0.17265565889E+03  0.20895922317E+03  0.00000000000E+00 0. -1.
        -12    1    5    5    0    0 -0.11753845865E+02  0.26215195931E+02  0.18238041656E+02  0.34029627589E+02  0.00000000000E+00 0.  1.
          5    1    4    4  501    0 -0.14879421697E+03 -0.11941894772E+03 -0.89629760449E+02  0.21083541077E+03  0.41800000000E+01 0.  1.
         -5    1    4    4    0  501  0.18743836666E+02 -0.62463052014E+02 -0.28653724019E+02  0.71354555426E+02  0.41800000000E+01 0.  1.
</event>
<event>
11    1  0.1078607E-008  0.1326033E+03  0.7561462E-02  0.1116111E+00
         22   -1    0    0    0    0  0.00000000000E+00  0.00000000000E+00  0.28354258809E+03  0.28354258809E+03  0.00000000000E+00 0.  1.
         22   -1    0    0    0    0 -0.00000000000E+00 -0.00000000000E+00 -0.14785754563E+04  0.14785754563E+04  0.00000000000E+00 0. -1.
        -24    2    1    2    0    0  0.19105483997E+02 -0.42986924552E+02 -0.11540426524E+04  0.11579732641E+04  0.82914062106E+02 0.  0.
         25    2    1    2    0    0  0.90442745959E+01  0.29299115835E+02 -0.30250381362E+03  0.32877962099E+03  0.12508894768E+03 0.  0.
         24    2    1    2    0    0 -0.28149758593E+02  0.13687808717E+02  0.26151359775E+03  0.27536515931E+03  0.80354490480E+02 0.  0.
        -11    1    5    5    0    0 -0.13598974727E+02  0.78898883439E+01  0.25902930788E+03  0.25950600146E+03  0.00000000000E+00 0.  1.
         12    1    5    5    0    0 -0.14550783866E+02  0.57979203726E+01  0.24842898684E+01  0.15859157856E+02  0.00000000000E+00 0. -1.
         13    1    3    3    0    0  0.48231457995E+02 -0.45168793629E+02 -0.81596601089E+03  0.81863729721E+03  0.00000000000E+00 0. -1.
        -14    1    3    3    0    0 -0.29125973998E+02  0.21818690772E+01 -0.33807664149E+03  0.33933596690E+03  0.00000000000E+00 0.  1.
          5    1    4    4  501    0 -0.35830954280E+02 -0.98910537366E+00 -0.20312815793E+02  0.41411574463E+02  0.41800000000E+01 0. -1.
         -5    1    4    4    0  501  0.44875228876E+02  0.30288221209E+02 -0.28219099782E+03  0.28736804652E+03  0.41800000000E+01 0. -1.
</event>
<event>
11    1  0.1078607E-008  0.1401218E+03  0.7561462E-02  0.1107422E+00
         22   -1    0    0    0    0  0.00000000000E+00  0.00000000000E+00  0.79957408556E+02  0.79957408556E+02  0.00000000000E+00 0.  1.
         22   -1    0    0    0    0 -0.00000000000E+00 -0.00000000000E+00 -0.10151418879E+04  0.10151418879E+04  0.00000000000E+00 0.  1.
         24    2    1    2    0    0  0.20232898519E+02  0.34902561843E+02 -0.74524614208E+03  0.75073246805E+03  0.81116381211E+02 0.  0.
         25    2    1    2    0    0 -0.13583332382E+02 -0.91516266271E+02 -0.18991049140E+03  0.24550591749E+03  0.12508967531E+03 0.  0.
        -24    2    1    2    0    0 -0.66495661369E+01  0.56613704428E+02 -0.27845861200E-01  0.98860910906E+02  0.80772214721E+02 0.  0.
        -13    1    3    3    0    0  0.16807594843E+02  0.61369854221E+02 -0.55088477290E+03  0.55454737153E+03  0.00000000000E+00 0.  1.
         14    1    3    3    0    0  0.34253036758E+01 -0.26467292378E+02 -0.19436136918E+03  0.19618509653E+03  0.00000000000E+00 0. -1.
         11    1    5    5    0    0  0.31431352026E+02  0.74514162380E+01  0.13848018267E+02  0.35145712456E+02  0.00000000000E+00 0. -1.
        -12    1    5    5    0    0 -0.38080918163E+02  0.49162288190E+02 -0.13875864128E+02  0.63715198450E+02  0.00000000000E+00 0.  1.
          5    1    4    4  501    0 -0.35849264934E+02  0.20335034347E+02 -0.48218385235E+02  0.63570185565E+02  0.41800000000E+01 0. -1.
         -5    1    4    4    0  501  0.22265932552E+02 -0.11185130062E+03 -0.14169210617E+03  0.18193573193E+03  0.41800000000E+01 0. -1.
</event>
<event>
11    1  0.1078607E-008  0.1588994E+03  0.7561462E-02  0.1088117E+00
         22   -1    0    0    0    0  0.00000000000E+00  0.00000000000E+00  0.42007346682E+03  0.42007346682E+03  0.00000000000E+00 0.  1.
         22   -1    0    0    0    0 -0.00000000000E+00 -0.00000000000E+00 -0.54196893975E+03  0.54196893975E+03  0.00000000000E+00 0.  1.
        -24    2    1    2    0    0  0.65145536194E+02  0.44370580871E+02 -0.23336121505E+03  0.25891700802E+03  0.79798941221E+02 0.  0.
         25    2    1    2    0    0 -0.11004426347E+03 -0.97871814394E+02 -0.25585960797E+03  0.32062440315E+03  0.12508891609E+03 0.  0.
         24    2    1    2    0    0  0.44898727274E+02  0.53501233523E+02  0.36732535009E+03  0.38250099540E+03  0.80627668739E+02 0.  0.
        -13    1    5    5    0    0  0.28115260458E+02  0.38304599617E+02  0.35192609969E+03  0.35511926146E+03  0.00000000000E+00 0.  1.
         14    1    5    5    0    0  0.16783466816E+02  0.15196633907E+02  0.15399250402E+02  0.27381733937E+02  0.00000000000E+00 0. -1.
         13    1    3    3    0    0 -0.41279902950E+01  0.42411812387E+02 -0.97363255084E+02  0.10627984557E+03  0.00000000000E+00 0. -1.
        -14    1    3    3    0    0  0.69273526489E+02  0.19587684840E+01 -0.13599795997E+03  0.15263716245E+03  0.00000000000E+00 0.  1.
          5    1    4    4  501    0 -0.11149048975E+03 -0.61148410822E+02 -0.25340964468E+03  0.28355454126E+03  0.41800000000E+01 0. -1.
         -5    1    4    4    0  501  0.14462262830E+01 -0.36723403572E+02 -0.24499632897E+01  0.37069861890E+02  0.41800000000E+01 0. -1.
</event>
<event>
11    1  0.1078607E-008  0.2001978E+03  0.7561462E-02  0.1054384E+00
         22   -1    0    0    0    0  0.00000000000E+00  0.00000000000E+00  0.13820382235E+04  0.13820382235E+04  0.00000000000E+00 0.  1.
         22   -1    0    0    0    0 -0.00000000000E+00 -0.00000000000E+00 -0.97972735513E+03  0.97972735513E+03  0.00000000000E+00 0.  1.
         24    2    1    2    0    0 -0.76457803621E+02 -0.36405865260E+02 -0.90530725899E+03  0.91280118530E+03  0.80334226469E+02 0.  0.
         25    2    1    2    0    0  0.18120937156E+03 -0.76217666351E+02  0.14717084568E+03  0.27559532101E+03  0.12509018403E+03 0.  0.
        -24    2    1    2    0    0 -0.10475156794E+03  0.11262353161E+03  0.11604472817E+04  0.11733690723E+04  0.80623417350E+02 0.  0.
        -11    1    3    3    0    0 -0.86900146950E+02 -0.14871169668E+02 -0.79811220139E+03  0.80296691914E+03  0.00000000000E+00 0.  1.
         12    1    3    3    0    0  0.10442343330E+02 -0.21534695592E+02 -0.10719505760E+03  0.10983426616E+03  0.00000000000E+00 0. -1.
         11    1    5    5    0    0 -0.28190671243E+02  0.75339358059E+02  0.38859899027E+03  0.39683738239E+03  0.00000000000E+00 0. -1.
        -12    1    5    5    0    0 -0.76560896697E+02  0.37284173551E+02  0.77184829141E+03  0.77653168992E+03  0.00000000000E+00 0.  1.
          5    1    4    4  501    0  0.13330339267E+00 -0.35203129443E+02  0.61703431058E+02  0.71162236451E+02  0.41800000000E+01 0. -1.
         -5    1    4    4    0  501  0.18107606817E+03 -0.41014536908E+02  0.85467414622E+02  0.20443308456E+03  0.41800000000E+01 0. -1.
</event>
<event>
11    1  0.1078607E-008  0.1302961E+03  0.7561462E-02  0.1118906E+00
         22   -1    0    0    0    0  0.00000000000E+00  0.00000000000E+00  0.66294476903E+03  0.66294476903E+03  0.00000000000E+00 0.  1.
         22   -1    0    0    0    0 -0.00000000000E+00 -0.00000000000E+00 -0.35285712226E+03  0.35285712226E+03  0.00000000000E+00 0.  1.
         24    2    1    2    0    0  0.31022398158E+02  0.15457206544E+02 -0.23830805139E+03  0.25362634694E+03  0.79588203155E+02 0.  0.
         25    2    1    2    0    0 -0.59988955690E+02 -0.35846633523E+02 -0.54219165317E+02  0.15320723749E+03  0.12509629807E+03 0.  0.
        -24    2    1    2    0    0  0.28966557532E+02  0.20389426978E+02  0.60261486348E+03  0.60896830686E+03  0.80267894494E+02 0.  0.
        -13    1    3    3    0    0  0.24642662458E+02 -0.78793369571E+01 -0.22406184945E+03  0.22555056449E+03  0.00000000000E+00 0.  1.
         14    1    3    3    0    0  0.63797357004E+01  0.23336543501E+02 -0.14246201942E+02  0.28075782446E+02  0.00000000000E+00 0. -1.
         11    1    5    5    0    0 -0.23002744455E+02 -0.12154573613E+02  0.15397690906E+03  0.15615936871E+03  0.00000000000E+00 0. -1.
        -12    1    5    5    0    0  0.51969301987E+02  0.32544000591E+02  0.44863795441E+03  0.45280893814E+03  0.00000000000E+00 0.  1.
          5    1    4    4  501    0 -0.46312966467E+02 -0.78272401479E+02 -0.12292498114E+02  0.91869677295E+02  0.41800000000E+01 0. -1.
         -5    1    4    4    0  501 -0.13675989223E+02  0.42425767957E+02 -0.41926667203E+02  0.61337560195E+02  0.41800000000E+01 0. -1.
</event>
<event>
11    1  0.1078607E-008  0.2143188E+03  0.7561462E-02  0.1044836E+00
         22   -1    0    0    0    0  0.00000000000E+00  0.00000000000E+00  0.77567379446E+02  0.77567379446E+02  0.00000000000E+00 0. -1.
         22   -1    0    0    0    0 -0.00000000000E+00 -0.00000000000E+00 -0.18038358236E+04  0.18038358236E+04  0.00000000000E+00 0.  1.
         24    2    1    2    0    0 -0.22751660066E+02  0.27263447436E+02 -0.10248857048E+04  0.10284496806E+04  0.77827398395E+02 0.  0.
         25    2    1    2    0    0  0.17276113349E+03 -0.10111122927E+03 -0.59164413700E+03  0.63699249656E+03  0.12508703327E+03 0.  0.
        -24    2    1    2    0    0 -0.15000947343E+03  0.73847781831E+02 -0.10973860226E+03  0.21596102583E+03  0.81487832551E+02 0.  0.
        -13    1    3    3    0    0 -0.39038775618E+02  0.13407837094E+02 -0.94021238842E+03  0.94111802205E+03  0.00000000000E+00 0.  1.
         14    1    3    3    0    0  0.16287115552E+02  0.13855610342E+02 -0.84673316430E+02  0.87331658556E+02  0.00000000000E+00 0. -1.
         11    1    5    5    0    0 -0.15751486663E+03  0.63822868534E+02 -0.89288382147E+02  0.19198100673E+03  0.00000000000E+00 0. -1.
        -12    1    5    5    0    0  0.75053932022E+01  0.10024913297E+02 -0.20450220112E+02  0.23980019107E+02  0.00000000000E+00 0.  1.
          5    1    4    4  501    0  0.16855489065E+03 -0.10509352392E+03 -0.41399797698E+03  0.45920278448E+03  0.41800000000E+01 0.  1.
         -5    1    4    4    0  501  0.42062428470E+01  0.39822946565E+01 -0.17764616002E+03  0.17778971208E+03  0.41800000000E+01 0.  1.
</event>
<event>
11    1  0.1078607E-008  0.2063298E+03  0.7561462E-02  0.1050136E+00
         22   -1    0    0    0    0  0.00000000000E+00  0.00000000000E+00  0.86568120918E+03  0.86568120918E+03  0.00000000000E+00 0. -1.
         22   -1    0    0    0    0 -0.00000000000E+00 -0.00000000000E+00 -0.14368393054E+04  0.14368393054E+04  0.00000000000E+00 0. -1.
        -24    2    1    2    0    0 -0.16241243671E+03 -0.16598253564E+02 -0.13514931205E+04  0.13640334636E+04  0.86025192009E+02 0.  0.
         25    2    1    2    0    0  0.18148837037E+03  0.59236445436E+02  0.95517108313E+02  0.24742258507E+03  0.12508969811E+03 0.  0.
         24    2    1    2    0    0 -0.19075933661E+02 -0.42638191872E+02  0.68481791592E+03  0.69106446589E+03  0.80078782480E+02 0.  0.
        -11    1    5    5    0    0 -0.51270097721E+01  0.20316212625E+02  0.75806291251E+02  0.78648766792E+02  0.00000000000E+00 0.  1.
         12    1    5    5    0    0 -0.13948923889E+02 -0.62954404498E+02  0.60901162466E+03  0.61241569910E+03  0.00000000000E+00 0. -1.
         11    1    3    3    0    0 -0.14580673397E+03 -0.11437493312E+02 -0.13198369445E+04  0.13279156524E+04  0.00000000000E+00 0. -1.
        -12    1    3    3    0    0 -0.16605702735E+02 -0.51607602514E+01 -0.31656175978E+02  0.36117811219E+02  0.00000000000E+00 0.  1.
          5    1    4    4  501    0  0.13201766437E+03  0.96285312920E+02  0.51303896882E+02  0.17131575358E+03  0.41800000000E+01 0. -1.
         -5    1    4    4    0  501  0.49470705997E+02 -0.37048867484E+02  0.44213211432E+02  0.76106831486E+02  0.41800000000E+01 0. -1.
</event>
<event>
11    1  0.1078607E-008  0.1284806E+03  0.7561462E-02  0.1121150E+00
         22   -1    0    0    0    0  0.00000000000E+00  0.00000000000E+00  0.75923224569E+03  0.75923224569E+03  0.00000000000E+00 0.  1.
         22   -1    0    0    0    0 -0.00000000000E+00 -0.00000000000E+00 -0.27080974883E+03  0.27080974883E+03  0.00000000000E+00 0.  1.
         24    2    1    2    0    0  0.21514733311E+02 -0.22971994769E+02 -0.23088386639E+03  0.24955688229E+03  0.89334659809E+02 0.  0.
         25    2    1    2    0    0  0.77445191124E+01  0.14272595747E+01  0.11642089230E+03  0.17106942007E+03  0.12509559413E+03 0.  0.
        -24    2    1    2    0    0 -0.29259252423E+02  0.21544735195E+02  0.60288547095E+03  0.60941569216E+03  0.81217703124E+02 0.  0.
        -13    1    3    3    0    0 -0.21919067302E+02  0.33365116175E+01 -0.16445140682E+03  0.16593927512E+03  0.00000000000E+00 0.  1.
         14    1    3    3    0    0  0.43433800612E+02 -0.26308506387E+02 -0.66432459571E+02  0.83617607169E+02  0.00000000000E+00 0. -1.
         11    1    5    5    0    0  0.23282080896E+02 -0.12339085052E+02  0.16546962174E+03  0.16755448078E+03  0.00000000000E+00 0. -1.
        -12    1    5    5    0    0 -0.52541333319E+02  0.33883820246E+02  0.43741584922E+03  0.44186121139E+03  0.00000000000E+00 0.  1.
          5    1    4    4  501    0  0.47245397464E+02 -0.14752720302E+02  0.11812677469E+03  0.12814514285E+03  0.41800000000E+01 0.  1.
         -5    1    4    4    0  501 -0.39500878351E+02  0.16179979876E+02 -0.17058823923E+01  0.42924277211E+02  0.41800000000E+01 0.  1.
</event>
<event>
11    1  0.1078607E-008  0.1723022E+03  0.7561462E-02  0.1076045E+00
         22   -1    0    0    0    0  0.00000000000E+00  0.00000000000E+00  0.12052275168E+03  0.12052275168E+03  0.00000000000E+00 0.  1.
         22   -1    0    0    0    0 -0.00000000000E+00 -0.00000000000E+00 -0.21258424582E+04  0.21258424582E+04  0.00000000000E+00 0.  1.
        -24    2    1    2    0    0  0.77543898687E+00 -0.63229499820E+01 -0.84097293659E+03  0.84475522260E+03  0.79594755035E+02 0.  0.
         25    2    1    2    0    0 -0.59377689895E+02  0.10907076886E+03 -0.12308654082E+04  0.12434222056E+04  0.12508791166E+03 0.  0.
         24    2    1    2    0    0  0.58602250908E+02 -0.10274781888E+03  0.66518638284E+02  0.15818778165E+03  0.81285342642E+02 0.  0.
        -13    1    5    5    0    0  0.18039694701E+02 -0.93599660888E+02  0.67153550712E+02  0.11660157150E+03  0.00000000000E+00 0.  1.
         14    1    5    5    0    0  0.40562556207E+02 -0.91481579877E+01 -0.63491242865E+00  0.41586210147E+02  0.00000000000E+00 0. -1.
         11    1    3    3    0    0 -0.38492567231E+02 -0.11105701817E+02 -0.39120885852E+03  0.39325486053E+03  0.00000000000E+00 0. -1.
        -12    1    3    3    0    0  0.39268006218E+02  0.47827518347E+01 -0.44976407806E+03  0.45150036206E+03  0.00000000000E+00 0.  1.
          5    1    4    4  501    0  0.22598725999E+02  0.57978266637E+02 -0.77014046614E+03  0.77266162827E+03  0.41800000000E+01 0.  1.
         -5    1    4    4    0  501 -0.81976415894E+02  0.51092502221E+02 -0.46072494205E+03  0.47076057733E+03  0.41800000000E+01 0.  1.
</event>
<event>
11    1  0.1078607E-008  0.2410396E+03  0.7561462E-02  0.1028784E+00
         22   -1    0    0    0    0  0.00000000000E+00  0.00000000000E+00  0.13346407322E+03  0.13346407322E+03  0.00000000000E+00 0. -1.
         22   -1    0    0    0    0 -0.00000000000E+00 -0.00000000000E+00 -0.60628025681E+03  0.60628025681E+03  0.00000000000E+00 0. -1.
        -24    2    1    2    0    0  0.14244417329E+03 -0.17173237070E+03 -0.26437711940E+03  0.35512544182E+03  0.80227604452E+02 0.  0.
         25    2    1    2    0    0 -0.11852311734E+03  0.14421007103E+03 -0.19375497505E+03  0.29670308048E+03  0.12508978249E+03 0.  0.
         24    2    1    2    0    0 -0.23921055953E+02  0.27522299675E+02 -0.14684089143E+02  0.87915807718E+02  0.78637604715E+02 0.  0.
        -13    1    5    5    0    0  0.11464711577E+02  0.20329613550E+02  0.25041331267E+02  0.34231580014E+02  0.00000000000E+00 0.  1.
         14    1    5    5    0    0 -0.35385767531E+02  0.71926861254E+01 -0.39725420410E+02  0.53684227704E+02  0.00000000000E+00 0. -1.
         13    1    3    3    0    0  0.12048465368E+03 -0.15610395691E+03 -0.18161111899E+03  0.26808132288E+03  0.00000000000E+00 0. -1.
        -14    1    3    3    0    0  0.21959519611E+02 -0.15628413792E+02 -0.82766000404E+02  0.87044118940E+02  0.00000000000E+00 0.  1.
          5    1    4    4  501    0 -0.77908651033E+02  0.54296984647E+01 -0.86523474651E+02  0.11663200074E+03  0.41800000000E+01 0. -1.
         -5    1    4    4    0  501 -0.40614466302E+02  0.13878037257E+03 -0.10723150040E+03  0.18007107974E+03  0.41800000000E+01 0. -1.
</event>
<event>
11    1  0.1078607E-008  0.2906980E+03  0.7561462E-02  0.1004207E+00
         22   -1    0    0    0    0  0.00000000000E+00  0.00000000000E+00  0.15527101417E+03  0.15527101417E+03  0.00000000000E+00 0. -1.
         22   -1    0    0    0    0 -0.00000000000E+00 -0.00000000000E+00 -0.16191833065E+04  0.16191833065E+04  0.00000000000E+00 0.  1.
         24    2    1    2    0    0 -0.10867890380E+02  0.44070619498E+01 -0.33282506073E+03  0.34213209419E+03  0.78385684885E+02 0.  0.
         25    2    1    2    0    0  0.15939292806E+02 -0.26624928047E+03 -0.11198142953E+04  0.11579178904E+04  0.12508814678E+03 0.  0.
        -24    2    1    2    0    0 -0.50714024259E+01  0.26184221852E+03 -0.11272936237E+02  0.27440433605E+03  0.81139349442E+02 0.  0.
        -13    1    3    3    0    0 -0.36194107178E+02 -0.21140931733E+02 -0.21023332172E+03  0.21437117798E+03  0.00000000000E+00 0.  1.
         14    1    3    3    0    0  0.25326216798E+02  0.25547993683E+02 -0.12259173900E+03  0.12776091621E+03  0.00000000000E+00 0. -1.
         11    1    5    5    0    0  0.40317653120E+01  0.15544506407E+03  0.32735203254E+02  0.15890568463E+03  0.00000000000E+00 0. -1.
        -12    1    5    5    0    0 -0.91031677379E+01  0.10639715445E+03 -0.44008139492E+02  0.11549865142E+03  0.00000000000E+00 0.  1.
          5    1    4    4  501    0 -0.36193980547E+02 -0.12883187437E+03 -0.71029658884E+03  0.72280451894E+03  0.41800000000E+01 0. -1.
         -5    1    4    4    0  501  0.52133273353E+02 -0.13741740610E+03 -0.40951770649E+03  0.43511337145E+03  0.41800000000E+01 0. -1.
</event>
<event>
11    1  0.1078607E-008  0.1524151E+03  0.7561462E-02  0.1094436E+00
         22   -1    0    0    0    0  0.00000000000E+00  0.00000000000E+00  0.84770260604E+03  0.84770260604E+03  0.00000000000E+00 0.  1.
         22   -1    0    0    0    0 -0.00000000000E+00 -0.00000000000E+00 -0.51705332930E+03  0.51705332930E+03  0.00000000000E+00 0.  1.
        -24    2    1    2    0    0 -0.68355322934E+02  0.42299113563E+02 -0.35705044060E+03  0.37458007933E+03  0.79771884275E+02 0.  0.
         25    2    1    2    0    0  0.14126712404E+03 -0.21500844337E+02 -0.86530409592E+02  0.20869680758E+03  0.12509260197E+03 0.  0.
         24    2    1    2    0    0 -0.72911801105E+02 -0.20798269227E+02  0.77423012693E+03  0.78147904843E+03  0.74353984071E+02 0.  0.
        -11    1    5    5    0    0 -0.37651400316E+02  0.15483474112E+01  0.63520307061E+03  0.63631986157E+03  0.00000000000E+00 0.  1.
         12    1    5    5    0    0 -0.35260400789E+02 -0.22346616638E+02  0.13902705632E+03  0.14515918685E+03  0.00000000000E+00 0. -1.
         13    1    3    3    0    0 -0.26200512539E+02  0.40947939909E+02 -0.74887328197E+02  0.89282207436E+02  0.00000000000E+00 0. -1.
        -14    1    3    3    0    0 -0.42154810395E+02  0.13511736540E+01 -0.28216311240E+03  0.28529787190E+03  0.00000000000E+00 0.  1.
          5    1    4    4  501    0 -0.20866603707E+02 -0.10860048565E+02 -0.25856987997E+02  0.35205284169E+02  0.41800000000E+01 0.  1.
         -5    1    4    4    0  501  0.16213372775E+03 -0.10640795772E+02 -0.60673421594E+02  0.17349152341E+03  0.41800000000E+01 0.  1.
</event>
<event>
11    1  0.1078607E-008  0.2192370E+03  0.7561462E-02  0.1041696E+00
         22   -1    0    0    0    0  0.00000000000E+00  0.00000000000E+00  0.41025400069E+04  0.41025400069E+04  0.00000000000E+00 0.  1.
         22   -1    0    0    0    0 -0.00000000000E+00 -0.00000000000E+00 -0.16578488545E+03  0.16578488545E+03  0.00000000000E+00 0.  1.
        -24    2    1    2    0    0 -0.92114451742E+02  0.15618819789E+03 -0.56813511488E+02  0.20577607949E+03  0.78969579077E+02 0.  0.
         25    2    1    2    0    0  0.20387008575E+03 -0.70767991824E+02  0.44431046967E+03  0.50953919288E+03  0.12508906864E+03 0.  0.
         24    2    1    2    0    0 -0.11175563401E+03 -0.85420206070E+02  0.35492581633E+04  0.35530096200E+04  0.82812540338E+02 0.  0.
        -11    1    5    5    0    0 -0.85281054412E+02 -0.31522407281E+02  0.27483498178E+04  0.27498533127E+04  0.00000000000E+00 0.  1.
         12    1    5    5    0    0 -0.26474579596E+02 -0.53897798789E+02  0.80090834543E+03  0.80315630724E+03  0.00000000000E+00 0. -1.
         11    1    3    3    0    0  0.97848977517E+01  0.35659677713E+02 -0.25368359419E+02  0.44843176718E+02  0.00000000000E+00 0. -1.
        -12    1    3    3    0    0 -0.10189934949E+03  0.12052852018E+03 -0.31445152069E+02  0.16093290277E+03  0.00000000000E+00 0.  1.
          5    1    4    4  501    0  0.56747138558E+02  0.36114665307E+02  0.11252106986E+03  0.13116009434E+03  0.41800000000E+01 0. -1.
         -5    1    4    4    0  501  0.14712294719E+03 -0.10688265713E+03  0.33178939981E+03  0.37837909854E+03  0.41800000000E+01 0. -1.
</event>
<event>
11    1  0.1078607E-008  0.1480168E+03  0.7561462E-02  0.1098923E+00
         22   -1    0    0    0    0  0.00000000000E+00  0.00000000000E+00  0.99446821442E+02  0.99446821442E+02  0.00000000000E+00 0.  1.
         22   -1    0    0    0    0 -0.00000000000E+00 -0.00000000000E+00 -0.20125528558E+04  0.20125528558E+04  0.00000000000E+00 0. -1.
        -24    2    1    2    0    0 -0.45751732547E+02 -0.64432954426E+02 -0.15746349541E+04  0.15787680354E+04  0.82392017112E+02 0.  0.
         25    2    1    2    0    0 -0.22251074926E+02  0.10935815754E+02 -0.38282655241E+03  0.40350733989E+03  0.12508917504E+03 0.  0.
         24    2    1    2    0    0  0.68002807473E+02  0.53497138671E+02  0.44355472078E+02  0.12972430196E+03  0.85875846117E+02 0.  0.
        -11    1    5    5    0    0  0.73007024103E+02  0.43340432402E+02  0.99326908871E+00  0.84908216521E+02  0.00000000000E+00 0.  1.
         12    1    5    5    0    0 -0.50042166299E+01  0.10156706269E+02  0.43362202989E+02  0.44816085442E+02  0.00000000000E+00 0. -1.
         11    1    3    3    0    0 -0.65433607467E+02 -0.35542315809E+02 -0.12596859167E+04  0.12618848687E+04  0.00000000000E+00 0. -1.
        -12    1    3    3    0    0  0.19681874920E+02 -0.28890638617E+02 -0.31494903740E+03  0.31688316673E+03  0.00000000000E+00 0.  1.
          5    1    4    4  501    0 -0.56657401231E+02  0.26916119442E+02 -0.34156106859E+03  0.34729810621E+03  0.41800000000E+01 0. -1.
         -5    1    4    4    0  501  0.34406326305E+02 -0.15980303688E+02 -0.41265483817E+02  0.56209233676E+02  0.41800000000E+01 0. -1.
</event>
<event>
11    1  0.1078607E-008  0.1456325E+03  0.7561462E-02  0.1101427E+00
         22   -1    0    0    0    0  0.00000000000E+00  0.00000000000E+00  0.30695355879E+03  0.30695355879E+03  0.00000000000E+00 0. -1.
         22   -1    0    0    0    0 -0.00000000000E+00 -0.00000000000E+00 -0.18400754632E+04  0.18400754632E+04  0.00000000000E+00 0. -1.
        -24    2    1    2    0    0 -0.14927376824E+02 -0.12444594764E+02 -0.16636183090E+04  0.16656302198E+04  0.79501298604E+02 0.  0.
         25    2    1    2    0    0  0.62782591423E+02 -0.44729228954E+02 -0.13141877993E+03  0.19713249964E+03  0.12509184221E+03 0.  0.
         24    2    1    2    0    0 -0.47855214599E+02  0.57173823717E+02  0.26191518457E+03  0.28426630252E+03  0.81540168976E+02 0.  0.
        -11    1    5    5    0    0  0.20310003701E+02 -0.17505015533E+01  0.48596801421E+02  0.52699237323E+02  0.00000000000E+00 0.  1.
         12    1    5    5    0    0 -0.68165218299E+02  0.58924325271E+02  0.21331838315E+03  0.23156706520E+03  0.00000000000E+00 0. -1.
         11    1    3    3    0    0  0.14047279472E+02 -0.14343232540E+02 -0.14393463270E+04  0.14394863332E+04  0.00000000000E+00 0. -1.
        -12    1    3    3    0    0 -0.28974656296E+02  0.18986377759E+01 -0.22427198202E+03  0.22614388661E+03  0.00000000000E+00 0.  1.
          5    1    4    4  501    0  0.30728099855E+02 -0.83067213439E+02 -0.50796848889E+02  0.10218693814E+03  0.41800000000E+01 0.  1.
         -5    1    4    4    0  501  0.32054491568E+02  0.38337984486E+02 -0.80621931039E+02  0.94945561500E+02  0.41800000000E+01 0.  1.
</event>
<event>
11    1  0.1078607E-008  0.1460426E+03  0.7561462E-02  0.1100992E+00
         22   -1    0    0    0    0  0.00000000000E+00  0.00000000000E+00  0.43239355769E+03  0.43239355769E+03  0.00000000000E+00 0.  1.
         22   -1    0    0    0    0 -0.00000000000E+00 -0.00000000000E+00 -0.51081024800E+03  0.51081024800E+03  0.00000000000E+00 0.  1.
        -24    2    1    2    0    0 -0.28591351301E+02  0.45759622450E+02 -0.34434155324E+03  0.35763149748E+03  0.80111012246E+02 0.  0.
         25    2    1    2    0    0 -0.31461204463E+02 -0.90851465587E+02 -0.11099090902E+03  0.19289996947E+03  0.12509044789E+03 0.  0.
         24    2    1    2    0    0  0.60052555764E+02  0.45091843137E+02  0.37691577195E+03  0.39267233873E+03  0.80538703064E+02 0.  0.
        -11    1    5    5    0    0  0.62436100315E+02  0.52499251028E+02  0.20577048692E+03  0.22135024570E+03  0.00000000000E+00 0.  1.
         12    1    5    5    0    0 -0.23835445508E+01 -0.74074078904E+01  0.17114528503E+03  0.17132209304E+03  0.00000000000E+00 0. -1.
         11    1    3    3    0    0 -0.53855304976E+02  0.14140866284E+02 -0.18242849629E+03  0.19073676686E+03  0.00000000000E+00 0. -1.
        -12    1    3    3    0    0  0.25263953674E+02  0.31618756166E+02 -0.16191305695E+03  0.16689473062E+03  0.00000000000E+00 0.  1.
          5    1    4    4  501    0 -0.72345601318E+02 -0.31969169661E+02 -0.85884370916E+02  0.11683112345E+03  0.41800000000E+01 0.  1.
         -5    1    4    4    0  501  0.40884396855E+02 -0.58882295927E+02 -0.25106538101E+02  0.76068846023E+02  0.41800000000E+01 0.  1.
</event>
<event>
11    1  0.1078607E-008  0.1399769E+03  0.7561462E-02  0.1107584E+00
         22   -1    0    0    0    0  0.00000000000E+00  0.00000000000E+00  0.26405964658E+03  0.26405964658E+03  0.00000000000E+00 0. -1.
         22   -1    0    0    0    0 -0.00000000000E+00 -0.00000000000E+00 -0.52614348286E+03  0.52614348286E+03  0.00000000000E+00 0. -1.
         24    2    1    2    0    0  0.50039231329E+02 -0.35426924822E+02 -0.42371392737E+03  0.43537819043E+03  0.79130807985E+02 0.  0.
         25    2    1    2    0    0 -0.83140634276E+02  0.20050821670E+02 -0.19819374952E+02  0.15281959210E+03  0.12508644846E+03 0.  0.
        -24    2    1    2    0    0  0.33101402946E+02  0.15376103153E+02  0.18144946605E+03  0.20200534691E+03  0.80932836511E+02 0.  0.
        -13    1    3    3    0    0 -0.62458958105E+01  0.18224486970E+02 -0.13534658380E+03  0.13671079286E+03  0.00000000000E+00 0.  1.
         14    1    3    3    0    0  0.56285127140E+02 -0.53651411792E+02 -0.28836734358E+03  0.29866739756E+03  0.00000000000E+00 0. -1.
         13    1    5    5    0    0  0.46277048348E+02  0.20041813515E+02  0.18113519074E+03  0.18802445803E+03  0.00000000000E+00 0. -1.
        -14    1    5    5    0    0 -0.13175645402E+02 -0.46657103624E+01  0.31427530890E+00  0.13980888881E+02  0.00000000000E+00 0.  1.
          5    1    4    4  501    0  0.26598398302E+02 -0.84237087224E+01 -0.27122265432E+02  0.39134682099E+02  0.41800000000E+01 0. -1.
         -5    1    4    4    0  501 -0.10973903258E+03  0.28474530392E+02  0.73028904798E+01  0.11368491000E+03  0.41800000000E+01 0. -1.
</event>
<event>
11    1  0.1078607E-008  0.1297264E+03  0.7561462E-02  0.1119606E+00
         22   -1    0    0    0    0  0.00000000000E+00  0.00000000000E+00  0.13139699768E+04  0.13139699768E+04  0.00000000000E+00 0.  1.
         22   -1    0    0    0    0 -0.00000000000E+00 -0.00000000000E+00 -0.69003161527E+03  0.69003161527E+03  0.00000000000E+00 0.  1.
         24    2    1    2    0    0  0.29770825288E+02  0.28726258140E+02 -0.48023824668E+03  0.48902772348E+03  0.82509640752E+02 0.  0.
         25    2    1    2    0    0 -0.10766421569E+02  0.66831206178E+01 -0.18446788877E+03  0.22324050286E+03  0.12508932887E+03 0.  0.
        -24    2    1    2    0    0 -0.19004403720E+02 -0.35409378758E+02  0.12886444970E+04  0.12917333657E+04  0.79721120703E+02 0.  0.
        -13    1    3    3    0    0  0.99128875360E+01  0.18537138417E+02 -0.45439323223E+03  0.45487921510E+03  0.00000000000E+00 0.  1.
         14    1    3    3    0    0  0.19857937752E+02  0.10189119723E+02 -0.25845014451E+02  0.34148508379E+02  0.00000000000E+00 0. -1.
         13    1    5    5    0    0  0.52070525906E+01  0.17422047933E+02  0.98079967815E+02  0.99751296921E+02  0.00000000000E+00 0. -1.
        -14    1    5    5    0    0 -0.24211456310E+02 -0.52831426691E+02  0.11905645291E+04  0.11919820688E+04  0.00000000000E+00 0.  1.
          5    1    4    4  501    0  0.48635070725E+02 -0.26578699958E+02 -0.63679313285E+02  0.84524107427E+02  0.41800000000E+01 0.  1.
         -5    1    4    4    0  501 -0.59401492294E+02  0.33261820575E+02 -0.12078857549E+03  0.13871639544E+03  0.41800000000E+01 0.  1.
</event>
<event>
11    1  0.1078607E-008  0.1530130E+03  0.7561462E-02  0.1093839E+00
         22   -1    0    0    0    0  0.00000000000E+00  0.00000000000E+00  0.73887452626E+03  0.73887452626E+03  0.00000000000E+00 0.  1.
         22   -1    0    0    0    0 -0.00000000000E+00 -0.00000000000E+00 -0.29100317482E+03  0.29100317482E+03  0.00000000000E+00 0.  1.
        -24    2    1    2    0    0 -0.74077629987E+02 -0.43594275651E+02 -0.22686245317E+03  0.25671292855E+03  0.83946404858E+02 0.  0.
         25    2    1    2    0    0  0.87016029112E+02  0.69443724253E+02  0.10716333589E+03  0.19881120618E+03  0.12509074699E+03 0.  0.
         24    2    1    2    0    0 -0.12938399125E+02 -0.25849448602E+02  0.56757046872E+03  0.57435356636E+03  0.83127528876E+02 0.  0.
        -13    1    5    5    0    0 -0.46085479254E+02 -0.22348915144E+02  0.41726207941E+03  0.42039384905E+03  0.00000000000E+00 0.  1.
         14    1    5    5    0    0  0.33147080129E+02 -0.35005334582E+01  0.15030838931E+03  0.15395971731E+03  0.00000000000E+00 0. -1.
         11    1    3    3    0    0 -0.59470721988E+02  0.13560213002E+02 -0.12188017528E+03  0.13629168455E+03  0.00000000000E+00 0. -1.
        -12    1    3    3    0    0 -0.14606907999E+02 -0.57154488652E+02 -0.10498227789E+03  0.12042124399E+03  0.00000000000E+00 0.  1.
          5    1    4    4  501    0  0.82681442568E+02 -0.90231202023E+01  0.80217053635E+02  0.11562822206E+03  0.41800000000E+01 0.  1.
         -5    1    4    4    0  501  0.43345865441E+01  0.78466844455E+02  0.26946282253E+02  0.83182984116E+02  0.41800000000E+01 0.  1.
</event>
<event>
11    1  0.1078607E-008  0.1500724E+03  0.7561462E-02  0.1096805E+00
         22   -1    0    0    0    0  0.00000000000E+00  0.00000000000E+00  0.21981857987E+04  0.21981857987E+04  0.00000000000E+00 0. -1.
         22   -1    0    0    0    0 -0.00000000000E+00 -0.00000000000E+00 -0.13883391830E+03  0.13883391830E+03  0.00000000000E+00 0. -1.
         24    2    1    2    0    0  0.72846422483E+02  0.39840483772E+02 -0.10125763604E+03  0.15341134340E+03  0.79925377766E+02 0.  0.
         25    2    1    2    0    0 -0.81009862823E+02 -0.19540014251E+02  0.52919745404E+03  0.55012810447E+03  0.12508627398E+03 0.  0.
        -24    2    1    2    0    0  0.81634403403E+01 -0.20300469521E+02  0.16314120624E+04  0.16334802691E+04  0.79206827063E+02 0.  0.
        -11    1    3    3    0    0  0.57404791356E+02  0.10434293799E+02 -0.13936460177E+02  0.59986744202E+02  0.00000000000E+00 0.  1.
         12    1    3    3    0    0  0.15441631127E+02  0.29406189973E+02 -0.87321175868E+02  0.93424599199E+02  0.00000000000E+00 0. -1.
         11    1    5    5    0    0 -0.22789966903E+02 -0.21887717446E+02  0.13494403396E+04  0.13498102403E+04  0.00000000000E+00 0. -1.
        -12    1    5    5    0    0  0.30953407244E+02  0.15872479250E+01  0.28197172279E+03  0.28367002878E+03  0.00000000000E+00 0.  1.
          5    1    4    4  501    0 -0.11438468246E+03 -0.20257427415E+02  0.39243115321E+03  0.40928462145E+03  0.41800000000E+01 0. -1.
         -5    1    4    4    0  501  0.33374819634E+02  0.71741316357E+00  0.13676630083E+03  0.14084348302E+03  0.41800000000E+01 0. -1.
</event>
<event>
11    1  0.1078607E-008  0.1404469E+03  0.7561462E-02  0.1107060E+00
         22   -1    0    0    0    0  0.00000000000E+00  0.00000000000E+00  0.42728292658E+03  0.42728292658E+03  0.00000000000E+00 0.  1.
         22   -1    0    0    0    0 -0.00000000000E+00 -0.00000000000E+00 -0.19317612418E+03  0.19317612418E+03  0.00000000000E+00 0.  1.
        -24    2    1    2    0    0 -0.69239782818E+01 -0.28827655593E+02 -0.11400968034E+03  0.14220305790E+03  0.79652540847E+02 0.  0.
         25    2    1    2    0    0  0.69713226982E+02  0.20142245576E+02  0.35058302445E+02  0.14880098188E+03  0.12508798329E+03 0.  0.
         24    2    1    2    0    0 -0.62789248700E+02  0.86854100168E+01  0.31305818029E+03  0.32945501098E+03  0.80729510768E+02 0.  0.
        -13    1    5    5    0    0 -0.69136109117E+02 -0.20259482004E+01  0.30855975981E+03  0.31621674754E+03  0.00000000000E+00 0.  1.
         14    1    5    5    0    0  0.63468604175E+01  0.10711358217E+02  0.44984204858E+01  0.13238263439E+02  0.00000000000E+00 0. -1.
         13    1    3    3    0    0 -0.32959778005E+02 -0.33965942403E+02 -0.35025192616E+02  0.58879506853E+02  0.00000000000E+00 0. -1.
        -14    1    3    3    0    0  0.26035799723E+02  0.51382868103E+01 -0.78984487723E+02  0.83323551049E+02  0.00000000000E+00 0.  1.
          5    1    4    4  501    0  0.13545653996E+02 -0.36185393527E+02 -0.27422524098E+02  0.47564006085E+02  0.41800000000E+01 0. -1.
         -5    1    4    4    0  501  0.56167572986E+02  0.56327639103E+02  0.62480826543E+02  0.10123697579E+03  0.41800000000E+01 0. -1.
</event>
<event>
11    1  0.1078607E-008  0.2598304E+03  0.7561462E-02  0.1018789E+00
         22   -1    0    0    0    0  0.00000000000E+00  0.00000000000E+00  0.95120246515E+03  0.95120246515E+03  0.00000000000E+00 0. -1.
         22   -1    0    0    0    0 -0.00000000000E+00 -0.00000000000E+00 -0.15199241970E+03  0.15199241970E+03  0.00000000000E+00 0. -1.
         24    2    1    2    0    0 -0.14564896249E+03 -0.17208971672E+02  0.27300153916E+02  0.16974207883E+03  0.80977193959E+02 0.  0.
         25    2    1    2    0    0  0.13662193541E+03 -0.21152982174E+03  0.38324369806E+03  0.47532516158E+03  0.12509140019E+03 0.  0.
        -24    2    1    2    0    0  0.90270270770E+01  0.22873879341E+03  0.38866619347E+03  0.45812764445E+03  0.80103719206E+02 0.  0.
        -13    1    3    3    0    0 -0.96954300519E+02  0.21046524674E+02  0.39215567272E+02  0.10668155092E+03  0.00000000000E+00 0.  1.
         14    1    3    3    0    0 -0.48694661972E+02 -0.38255496346E+02 -0.11915413356E+02  0.63060527913E+02  0.00000000000E+00 0. -1.
         13    1    5    5    0    0 -0.45997582268E+01  0.97380973179E+02  0.94947774445E+02  0.13608560389E+03  0.00000000000E+00 0. -1.
        -14    1    5    5    0    0  0.13626785304E+02  0.13135782023E+03  0.29371841902E+03  0.32204204056E+03  0.00000000000E+00 0.  1.
          5    1    4    4  501    0  0.61806445244E+01 -0.12020751689E+03  0.18913881130E+03  0.22422981475E+03  0.41800000000E+01 0. -1.
         -5    1    4    4    0  501  0.13044129089E+03 -0.91322304852E+02  0.19410488676E+03  0.25109534682E+03  0.41800000000E+01 0. -1.
</event>
<event>
11    1  0.1078607E-008  0.1556655E+03  0.7561462E-02  0.1091226E+00
         22   -1    0    0    0    0  0.00000000000E+00  0.00000000000E+00  0.26288819907E+03  0.26288819907E+03  0.00000000000E+00 0. -1.
         22   -1    0    0    0    0 -0.00000000000E+00 -0.00000000000E+00 -0.87948404667E+03  0.87948404667E+03  0.00000000000E+00 0.  1.
        -24    2    1    2    0    0  0.31571840173E+02  0.89337337137E+02 -0.73035062722E+03  0.74072331850E+03  0.79253107109E+02 0.  0.
         25    2    1    2    0    0 -0.10475332467E+03 -0.26385863985E+02 -0.69561495088E+02  0.17931754139E+03  0.12508599523E+03 0.  0.
         24    2    1    2    0    0  0.73181484498E+02 -0.62951473152E+02  0.18331627470E+03  0.22233138585E+03  0.80671995863E+02 0.  0.
        -13    1    5    5    0    0  0.61313234569E+02 -0.40920686759E+01  0.12149186122E+03  0.13614819170E+03  0.00000000000E+00 0.  1.
         14    1    5    5    0    0  0.11868249928E+02 -0.58859404476E+02  0.61824413485E+02  0.86183194152E+02  0.00000000000E+00 0. -1.
         13    1    3    3    0    0  0.26398054599E+02  0.66958566280E+02 -0.25903550842E+03  0.26884884509E+03  0.00000000000E+00 0. -1.
        -14    1    3    3    0    0  0.51737855748E+01  0.22378770857E+02 -0.47131511880E+03  0.47187447340E+03  0.00000000000E+00 0.  1.
          5    1    4    4  501    0 -0.10642317359E+03  0.21801306195E+02 -0.72759327768E+02  0.13081506414E+03  0.41800000000E+01 0.  1.
         -5    1    4    4    0  501  0.16698489186E+01 -0.48187170180E+02  0.31978326799E+01  0.48502477248E+02  0.41800000000E+01 0.  1.
</event>
<event>
11    1  0.1078607E-008  0.1892025E+03  0.7561462E-02  0.1062433E+00
         22   -1    0    0    0    0  0.00000000000E+00  0.00000000000E+00  0.82009035896E+03  0.82009035896E+03  0.00000000000E+00 0. -1.
         22   -1    0    0    0    0 -0.00000000000E+00 -0.00000000000E+00 -0.17749207576E+03  0.17749207576E+03  0.00000000000E+00 0.  1.
        -24    2    1    2    0    0 -0.85400179948E+02  0.92388719041E+02 -0.77775709175E+02  0.16874009208E+03  0.81211400655E+02 0.  0.
         25    2    1    2    0    0  0.78693205872E+02  0.72543190968E+02  0.12805655489E+03  0.20857066543E+03  0.12509238994E+03 0.  0.
         24    2    1    2    0    0  0.67069740761E+01 -0.16493191001E+03  0.59231743750E+03  0.62027167721E+03  0.81544394968E+02 0.  0.
        -11    1    5    5    0    0  0.38250022713E+02 -0.10001652971E+03  0.28134649619E+03  0.30103524938E+03  0.00000000000E+00 0.  1.
         12    1    5    5    0    0 -0.31543048637E+02 -0.64915380295E+02  0.31097094131E+03  0.31923642783E+03  0.00000000000E+00 0. -1.
         13    1    3    3    0    0 -0.35234072273E+01 -0.48679224861E+00 -0.38763445065E+02  0.38926289811E+02  0.00000000000E+00 0. -1.
        -14    1    3    3    0    0 -0.81876772721E+02  0.92875511289E+02 -0.39012264110E+02  0.12981380227E+03  0.00000000000E+00 0.  1.
          5    1    4    4  501    0  0.85754533852E+01 -0.45244412046E+01  0.10004180836E+03  0.10059743928E+03  0.41800000000E+01 0. -1.
         -5    1    4    4    0  501  0.70117752486E+02  0.77067632173E+02  0.28014746523E+02  0.10797322615E+03  0.41800000000E+01 0. -1.
</event>
<event>
11    1  0.1078607E-008  0.1514854E+03  0.7561462E-02  0.1095371E+00
         22   -1    0    0    0    0  0.00000000000E+00  0.00000000000E+00  0.60003924137E+03  0.60003924137E+03  0.00000000000E+00 0.  1.
         22   -1    0    0    0    0 -0.00000000000E+00 -0.00000000000E+00 -0.16084400116E+04  0.16084400116E+04  0.00000000000E+00 0. -1.
        -24    2    1    2    0    0  0.70998850285E+02 -0.45776592792E+02 -0.15082846191E+04  0.15128600146E+04  0.81771622342E+02 0.  0.
         25    2    1    2    0    0 -0.75511368893E+02  0.11023461595E+03 -0.21752464203E+01  0.18304620997E+03  0.12509015110E+03 0.  0.
         24    2    1    2    0    0  0.45125186079E+01 -0.64458023155E+02  0.50205909534E+03  0.51257302842E+03  0.80576514439E+02 0.  0.
        -11    1    5    5    0    0  0.16170272038E+02 -0.55149288590E+02  0.49008600881E+03  0.49344423977E+03  0.00000000000E+00 0.  1.
         12    1    5    5    0    0 -0.11657753430E+02 -0.93087345647E+01  0.11973086525E+02  0.19128788648E+02  0.00000000000E+00 0. -1.
         13    1    3    3    0    0  0.84937215542E+01  0.39253809842E+01 -0.80526669877E+03  0.80532105900E+03  0.00000000000E+00 0. -1.
        -14    1    3    3    0    0  0.62505128731E+02 -0.49701973776E+02 -0.70301792037E+03  0.70753895559E+03  0.00000000000E+00 0.  1.
          5    1    4    4  501    0  0.13125653587E+02 -0.20553394468E+02 -0.35180060419E+01  0.24991470000E+02  0.41800000000E+01 0. -1.
         -5    1    4    4    0  501 -0.88637022480E+02  0.13078801042E+03  0.13427596215E+01  0.15805473997E+03  0.41800000000E+01 0. -1.
</event>
<event>
11    1  0.1078607E-008  0.1433445E+03  0.7561462E-02  0.1103880E+00
         22   -1    0    0    0    0  0.00000000000E+00  0.00000000000E+00  0.17734409348E+03  0.17734409348E+03  0.00000000000E+00 0. -1.
         22   -1    0    0    0    0 -0.00000000000E+00 -0.00000000000E+00 -0.49551911192E+03  0.49551911192E+03  0.00000000000E+00 0.  1.
         24    2    1    2    0    0  0.92837329824E+01 -0.48740020917E+02 -0.33114015008E+03  0.34447256146E+03  0.80905928509E+02 0.  0.
         25    2    1    2    0    0 -0.38702087132E+02  0.10486231539E+03 -0.83991238957E+02  0.18760984872E+03  0.12509584477E+03 0.  0.
        -24    2    1    2    0    0  0.29418354149E+02 -0.56122294470E+02  0.96956370597E+02  0.14078079521E+03  0.80022140711E+02 0.  0.
        -13    1    3    3    0    0 -0.18581893271E+02 -0.59924981415E+02 -0.18719827007E+03  0.19743222247E+03  0.00000000000E+00 0.  1.
         14    1    3    3    0    0  0.27865626253E+02  0.11184960498E+02 -0.14394188001E+03  0.14704033899E+03  0.00000000000E+00 0. -1.
         11    1    5    5    0    0 -0.19167210281E+02 -0.17766540217E+02  0.67191957768E+02  0.72095707847E+02  0.00000000000E+00 0. -1.
        -12    1    5    5    0    0  0.48585564431E+02 -0.38355754253E+02  0.29764412829E+02  0.68685087365E+02  0.00000000000E+00 0.  1.
          5    1    4    4  501    0 -0.56848510612E+02 -0.39963535186E+01 -0.24585798795E+02  0.62206574432E+02  0.41800000000E+01 0. -1.
         -5    1    4    4    0  501  0.18146423480E+02  0.10885866890E+03 -0.59405440162E+02  0.12540327429E+03  0.41800000000E+01 0. -1.
</event>
<event>
11    1  0.1078607E-008  0.2558174E+03  0.7561462E-02  0.1020845E+00
         22   -1    0    0    0    0  0.00000000000E+00  0.00000000000E+00  0.40785141146E+03  0.40785141146E+03  0.00000000000E+00 0.  1.
         22   -1    0    0    0    0 -0.00000000000E+00 -0.00000000000E+00 -0.74312107192E+03  0.74312107192E+03  0.00000000000E+00 0.  1.
         24    2    1    2    0    0  0.56300790099E+02  0.31322100296E+02 -0.53373104646E+03  0.54337482021E+03  0.78971592046E+02 0.  0.
         25    2    1    2    0    0 -0.25251597442E+03 -0.10110435953E+03 -0.13568702321E+02  0.29968822412E+03  0.12507003295E+03 0.  0.
        -24    2    1    2    0    0  0.19621518432E+03  0.69782259237E+02  0.21203008832E+03  0.30790943905E+03  0.80507776264E+02 0.  0.
        -13    1    3    3    0    0  0.42057167231E+02 -0.21401884532E+02 -0.23458587681E+03  0.23928514282E+03  0.00000000000E+00 0.  1.
         14    1    3    3    0    0  0.14243622869E+02  0.52723984828E+02 -0.29914516965E+03  0.30408967739E+03  0.00000000000E+00 0. -1.
         13    1    5    5    0    0  0.42164236149E+02  0.31555627587E+02  0.10195223693E+03  0.11475120503E+03  0.00000000000E+00 0. -1.
        -14    1    5    5    0    0  0.15405094817E+03  0.38226631650E+02  0.11007785140E+03  0.19315823402E+03  0.00000000000E+00 0.  1.
          5    1    4    4  501    0 -0.20150845015E+03 -0.11755178585E+03 -0.44696764394E+02  0.23756967607E+03  0.41800000000E+01 0.  1.
         -5    1    4    4    0  501 -0.51007524269E+02  0.16447426318E+02  0.31128062072E+02  0.62118548059E+02  0.41800000000E+01 0.  1.
</event>
<event>
11    1  0.1078607E-008  0.1809573E+03  0.7561462E-02  0.1068871E+00
         22   -1    0    0    0    0  0.00000000000E+00  0.00000000000E+00  0.11471409955E+04  0.11471409955E+04  0.00000000000E+00 0. -1.
         22   -1    0    0    0    0 -0.00000000000E+00 -0.00000000000E+00 -0.11027898340E+03  0.11027898340E+03  0.00000000000E+00 0. -1.
         24    2    1    2    0    0 -0.20854300700E+02  0.12246003570E+03 -0.11058266873E+02  0.14781952737E+03  0.79353419619E+02 0.  0.
         25    2    1    2    0    0 -0.34829881647E+02 -0.18987514876E+03  0.52452093446E+03  0.57274401601E+03  0.12509118440E+03 0.  0.
        -24    2    1    2    0    0  0.55684182347E+02  0.67415113063E+02  0.52339934446E+03  0.53685643548E+03  0.81378331856E+02 0.  0.
        -13    1    3    3    0    0 -0.22464486053E+02  0.13993306393E+02  0.21999391075E+02  0.34415679059E+02  0.00000000000E+00 0.  1.
         14    1    3    3    0    0  0.16101853528E+01  0.10846672931E+03 -0.33057657948E+02  0.11340384831E+03  0.00000000000E+00 0. -1.
         11    1    5    5    0    0  0.66389009928E+02  0.34443667069E+02  0.24103802411E+03  0.25237510953E+03  0.00000000000E+00 0. -1.
        -12    1    5    5    0    0 -0.10704827581E+02  0.32971445994E+02  0.28236132035E+03  0.28448132595E+03  0.00000000000E+00 0.  1.
          5    1    4    4  501    0 -0.34753707418E+01  0.66282577526E+00  0.16103864430E+03  0.16113173151E+03  0.41800000000E+01 0. -1.
         -5    1    4    4    0  501 -0.31354510905E+02 -0.19053797454E+03  0.36348229016E+03  0.41161228450E+03  0.41800000000E+01 0. -1.
</event>
<event>
11    1  0.1078607E-008  0.1329181E+03  0.7561462E-02  0.1115735E+00
         22   -1    0    0    0    0  0.00000000000E+00  0.00000000000E+00  0.11133413792E+03  0.11133413792E+03  0.00000000000E+00 0. -1.
         22   -1    0    0    0    0 -0.00000000000E+00 -0.00000000000E+00 -0.74036397816E+03  0.74036397816E+03  0.00000000000E+00 0. -1.
        -24    2    1    2    0    0 -0.11340652726E+02  0.41832120588E+02 -0.60249135466E+03  0.60893321582E+03  0.76975919383E+02 0.  0.
         25    2    1    2    0    0 -0.29597329373E+02 -0.68922400266E+01 -0.57916552045E+02  0.14115617774E+03  0.12508890692E+03 0.  0.
         24    2    1    2    0    0  0.40937982099E+02 -0.34939880561E+02  0.31378066473E+02  0.10160872252E+03  0.80268523130E+02 0.  0.
        -13    1    5    5    0    0  0.33829021569E+02 -0.39678062239E+02 -0.15153808043E+02  0.54299072014E+02  0.00000000000E+00 0.  1.
         14    1    5    5    0    0  0.71089605303E+01  0.47381816776E+01  0.46531874516E+02  0.47309650511E+02  0.00000000000E+00 0. -1.
         11    1    3    3    0    0 -0.27517560785E+01  0.48331565391E+02 -0.59173242876E+03  0.59370933934E+03  0.00000000000E+00 0. -1.
        -12    1    3    3    0    0 -0.85888966476E+01 -0.64994448030E+01 -0.10758925902E+02  0.15223876476E+02  0.00000000000E+00 0.  1.
          5    1    4    4  501    0 -0.57408244657E+00 -0.42083116750E+02  0.23022580408E+02  0.48154230288E+02  0.41800000000E+01 0.  1.
         -5    1    4    4    0  501 -0.29023246926E+02  0.35190876723E+02 -0.80939132453E+02  0.93001947447E+02  0.41800000000E+01 0.  1.
</event>
<event>
11    1  0.1078607E-008  0.1357881E+03  0.7561462E-02  0.1112355E+00
         22   -1    0    0    0    0  0.00000000000E+00  0.00000000000E+00  0.12132149171E+04  0.12132149171E+04  0.00000000000E+00 0.  1.
         22   -1    0    0    0    0 -0.00000000000E+00 -0.00000000000E+00 -0.23451227560E+02  0.23451227560E+02  0.00000000000E+00 0.  1.
         24    2    1    2    0    0  0.52027222140E+02  0.10385557904E+02  0.37774125717E+03  0.38989526474E+03  0.80716593346E+02 0.  0.
         25    2    1    2    0    0 -0.50191961663E+02  0.38098475558E+02  0.38905004476E+03  0.41349417235E+03  0.12508703526E+03 0.  0.
        -24    2    1    2    0    0 -0.18352604776E+01 -0.48484033462E+02  0.42297238758E+03  0.43327670753E+03  0.80430062506E+02 0.  0.
        -13    1    3    3    0    0 -0.81842254315E+01  0.29465417399E+02  0.82803705639E+02  0.88270300984E+02  0.00000000000E+00 0.  1.
         14    1    3    3    0    0  0.60211447572E+02 -0.19079859495E+02  0.29493755154E+03  0.30162496376E+03  0.00000000000E+00 0. -1.
         11    1    5    5    0    0 -0.16044090223E+02  0.10882338603E+02  0.23147462953E+03  0.23228504524E+03  0.00000000000E+00 0. -1.
        -12    1    5    5    0    0  0.14208829746E+02 -0.59366372065E+02  0.19149775805E+03  0.20099166229E+03  0.00000000000E+00 0.  1.
          5    1    4    4  501    0  0.32149043489E+02 -0.15467997534E+01  0.20931419838E+03  0.21181562650E+03  0.41800000000E+01 0. -1.
         -5    1    4    4    0  501 -0.82341005152E+02  0.39645275312E+02  0.17973584637E+03  0.20167854585E+03  0.41800000000E+01 0. -1.
</event>
<event>
11    1  0.1078607E-008  0.2253997E+03  0.7561462E-02  0.1037887E+00
         22   -1    0    0    0    0  0.00000000000E+00  0.00000000000E+00  0.91978747573E+03  0.91978747573E+03  0.00000000000E+00 0.  1.
         22   -1    0    0    0    0 -0.00000000000E+00 -0.00000000000E+00 -0.59535208648E+03  0.59535208648E+03  0.00000000000E+00 0.  1.
         24    2    1    2    0    0 -0.14310854593E+02 -0.28628345421E+02 -0.53740905248E+03  0.54570220664E+03  0.89207768288E+02 0.  0.
         25    2    1    2    0    0 -0.16146417034E+03  0.96098495954E+02  0.34133092813E+03  0.40921856254E+03  0.12508968865E+03 0.  0.
        -24    2    1    2    0    0  0.17577502493E+03 -0.67470150532E+02  0.52051351361E+03  0.56021879303E+03  0.86381118373E+02 0.  0.
        -11    1    3    3    0    0 -0.32863176783E+02  0.11148346476E+00 -0.45876538110E+03  0.45994094807E+03  0.00000000000E+00 0.  1.
         12    1    3    3    0    0  0.18552322190E+02 -0.28739828886E+02 -0.78643671378E+02  0.85761258567E+02  0.00000000000E+00 0. -1.
         13    1    5    5    0    0  0.75941918822E+02 -0.64238638311E+02  0.18362784031E+03  0.20883716485E+03  0.00000000000E+00 0. -1.
        -14    1    5    5    0    0  0.99833106107E+02 -0.32315122208E+01  0.33688567330E+03  0.35138162818E+03  0.00000000000E+00 0.  1.
          5    1    4    4  501    0 -0.12668357790E+02  0.44885274140E+02  0.17095579267E+03  0.17725273079E+03  0.41800000000E+01 0.  1.
         -5    1    4    4    0  501 -0.14879581255E+03  0.51213221813E+02  0.17037513545E+03  0.23196583175E+03  0.41800000000E+01 0.  1.
</event>
<event>
11    1  0.1078607E-008  0.2364220E+03  0.7561462E-02  0.1031392E+00
         22   -1    0    0    0    0  0.00000000000E+00  0.00000000000E+00  0.46373014068E+03  0.46373014068E+03  0.00000000000E+00 0. -1.
         22   -1    0    0    0    0 -0.00000000000E+00 -0.00000000000E+00 -0.51490812852E+03  0.51490812852E+03  0.00000000000E+00 0. -1.
        -24    2    1    2    0    0 -0.32249252919E+02 -0.83239813983E+02 -0.24660823979E+03  0.27449284059E+03  0.81005028595E+02 0.  0.
         25    2    1    2    0    0  0.17637721251E+03  0.20852747802E+03 -0.12253124295E+03  0.32442885117E+03  0.12509014266E+03 0.  0.
         24    2    1    2    0    0 -0.14412795959E+03 -0.12528766404E+03  0.31796149490E+03  0.37971657744E+03  0.81334491123E+02 0.  0.
        -13    1    5    5    0    0 -0.75049514606E+01  0.37116401004E+01 -0.20484119546E+01  0.86195452430E+01  0.00000000000E+00 0.  1.
         14    1    5    5    0    0 -0.13662300813E+03 -0.12899930414E+03  0.32000990685E+03  0.37109703219E+03  0.00000000000E+00 0. -1.
         13    1    3    3    0    0  0.11353203740E+02 -0.88508028458E+00 -0.10086402324E+03  0.10150482642E+03  0.00000000000E+00 0. -1.
        -14    1    3    3    0    0 -0.43602456658E+02 -0.82354733698E+02 -0.14574421655E+03  0.17298801417E+03  0.00000000000E+00 0.  1.
          5    1    4    4  501    0  0.10815147602E+03  0.83526084324E+02 -0.30594573409E+00  0.13671471951E+03  0.41800000000E+01 0. -1.
         -5    1    4    4    0  501  0.68225736489E+02  0.12500139370E+03 -0.12222529722E+03  0.18771413166E+03  0.41800000000E+01 0. -1.
</event>
<event>
11    1  0.1078607E-008  0.1299937E+03  0.7561462E-02  0.1119277E+00
         22   -1    0    0    0    0  0.00000000000E+00  0.00000000000E+00  0.52383748758E+03  0.52383748758E+03  0.00000000000E+00 0. -1.
         22   -1    0    0    0    0 -0.00000000000E+00 -0.00000000000E+00 -0.10782869125E+04  0.10782869125E+04  0.00000000000E+00 0. -1.
         24    2    1    2    0    0  0.11334597417E+02 -0.38640901078E+02 -0.84928393010E+03  0.85339306127E+03  0.73313919296E+02 0.  0.
         25    2    1    2    0    0 -0.95579756868E+01  0.73297409656E+02 -0.19927061976E+03  0.24661652660E+03  0.12508823337E+03 0.  0.
        -24    2    1    2    0    0 -0.17766217305E+01 -0.34656508579E+02  0.49410512491E+03  0.50211481224E+03  0.82311483010E+02 0.  0.
        -13    1    3    3    0    0 -0.83077213985E+01  0.38638884626E+01 -0.13600224462E+02  0.16398596718E+02  0.00000000000E+00 0.  1.
         14    1    3    3    0    0  0.19642318816E+02 -0.42504789540E+02 -0.83568370564E+03  0.83699446456E+03  0.00000000000E+00 0. -1.
         11    1    5    5    0    0 -0.83364778699E+00 -0.60690583592E+02  0.39531764796E+03  0.39995010276E+03  0.00000000000E+00 0. -1.
        -12    1    5    5    0    0 -0.94297394355E+00  0.26034075013E+02  0.98787476953E+02  0.10216470949E+03  0.00000000000E+00 0.  1.
          5    1    4    4  501    0 -0.25003510958E+02 -0.26366172625E+02 -0.93551119459E+02  0.10044717503E+03  0.41800000000E+01 0.  1.
         -5    1    4    4    0  501  0.15445535272E+02  0.99663582282E+02 -0.10571950030E+03  0.14616935157E+03  0.41800000000E+01 0.  1.
</event>
<event>
11    1  0.1078607E-008  0.1513280E+03  0.7561462E-02  0.1095530E+00
         22   -1    0    0    0    0  0.00000000000E+00  0.00000000000E+00  0.26096905542E+04  0.26096905542E+04  0.00000000000E+00 0.  1.
         22   -1    0    0    0    0 -0.00000000000E+00 -0.00000000000E+00 -0.48126964622E+03  0.48126964622E+03  0.00000000000E+00 0. -1.
         24    2    1    2    0    0  0.38231998214E-01  0.68809498200E+02 -0.43313941782E+03  0.44621649978E+03  0.82247558668E+02 0.  0.
         25    2    1    2    0    0  0.63165126306E+02 -0.12357961107E+03  0.17694542303E+03  0.25732910708E+03  0.12508730218E+03 0.  0.
        -24    2    1    2    0    0 -0.63203358305E+02  0.54770112870E+02  0.23846149028E+04  0.23874145936E+04  0.79785821205E+02 0.  0.
        -11    1    3    3    0    0  0.26931600609E+02  0.71260028532E+02 -0.25814852680E+03  0.26915416524E+03  0.00000000000E+00 0.  1.
         12    1    3    3    0    0 -0.26893368611E+02 -0.24505303322E+01 -0.17499089102E+03  0.17706233454E+03  0.00000000000E+00 0. -1.
         13    1    5    5    0    0 -0.21222152308E+02  0.73194767748E+01  0.16271029246E+04  0.16272577798E+04  0.00000000000E+00 0. -1.
        -14    1    5    5    0    0 -0.41981205996E+02  0.47450636095E+02  0.75751197815E+03  0.76015681380E+03  0.00000000000E+00 0.  1.
          5    1    4    4  501    0 -0.30225222694E+02 -0.14817274572E+02  0.72081694773E+02  0.79664037269E+02  0.41800000000E+01 0.  1.
         -5    1    4    4    0  501  0.93390349001E+02 -0.10876233650E+03  0.10486372825E+03  0.17766506981E+03  0.41800000000E+01 0.  1.
</event>
<event>
11    1  0.1078607E-008  0.1342709E+03  0.7561462E-02  0.1114130E+00
         22   -1    0    0    0    0  0.00000000000E+00  0.00000000000E+00  0.19574923033E+04  0.19574923033E+04  0.00000000000E+00 0. -1.
         22   -1    0    0    0    0 -0.00000000000E+00 -0.00000000000E+00 -0.11484886268E+04  0.11484886268E+04  0.00000000000E+00 0. -1.
        -24    2    1    2    0    0 -0.61913695077E+01 -0.32124436941E+02 -0.11288954852E+04  0.11323671265E+04  0.82340635234E+02 0.  0.
         25    2    1    2    0    0 -0.27597910970E+02  0.65362080279E+02  0.29653189681E+03  0.32956364008E+03  0.12508869177E+03 0.  0.
         24    2    1    2    0    0  0.33789280477E+02 -0.33237643339E+02  0.16413672649E+04  0.16440501635E+04  0.81043108166E+02 0.  0.
        -11    1    5    5    0    0 -0.35685285064E+01  0.28257570516E+01  0.46416026616E+01  0.65010594432E+01  0.00000000000E+00 0.  1.
         12    1    5    5    0    0  0.37357808984E+02 -0.36063400390E+02  0.16367256622E+04  0.16375491040E+04  0.00000000000E+00 0. -1.
         13    1    3    3    0    0 -0.12211355524E+02 -0.14718739415E+02 -0.10791870174E+04  0.10793564643E+04  0.00000000000E+00 0. -1.
        -14    1    3    3    0    0  0.60199860166E+01 -0.17405697526E+02 -0.49708467760E+02  0.53010662183E+02  0.00000000000E+00 0.  1.
          5    1    4    4  501    0  0.60551487239E+00  0.96867956289E+02  0.16546370920E+03  0.19177976709E+03  0.41800000000E+01 0. -1.
         -5    1    4    4    0  501 -0.28203425842E+02 -0.31505876010E+02  0.13106818761E+03  0.13778387299E+03  0.41800000000E+01 0. -1.
</event>
<event>
11    1  0.1078607E-008  0.1671896E+03  0.7561462E-02  0.1080504E+00
         22   -1    0    0    0    0  0.00000000000E+00  0.00000000000E+00  0.50647661897E+03  0.50647661897E+03  0.00000000000E+00 0. -1.
         22   -1    0    0    0    0 -0.00000000000E+00 -0.00000000000E+00 -0.68450083069E+03  0.68450083069E+03  0.00000000000E+00 0. -1.
         24    2    1    2    0    0 -0.23928270943E+02 -0.76087238332E+02 -0.19566476231E+03  0.22596433784E+03  0.80083411392E+02 0.  0.
         25    2    1    2    0    0  0.99207251867E+02  0.15528215772E+03 -0.43590659343E+03  0.48950641125E+03  0.12508933260E+03 0.  0.
        -24    2    1    2    0    0 -0.75278980924E+02 -0.79194919384E+02  0.45354714402E+03  0.47550670057E+03  0.91993750943E+02 0.  0.
        -13    1    3    3    0    0 -0.25960560755E+01 -0.16427808238E+02 -0.14189103235E+03  0.14286244241E+03  0.00000000000E+00 0.  1.
         14    1    3    3    0    0 -0.21332214867E+02 -0.59659430094E+02 -0.53773729954E+02  0.83101895426E+02  0.00000000000E+00 0. -1.
         13    1    5    5    0    0 -0.52812351784E+02 -0.23780391146E+02  0.35896803093E+03  0.36361064167E+03  0.00000000000E+00 0. -1.
        -14    1    5    5    0    0 -0.22466629140E+02 -0.55414528239E+02  0.94579113085E+02  0.11189605890E+03  0.00000000000E+00 0.  1.
          5    1    4    4  501    0 -0.29253465094E+02  0.19813516212E+02 -0.81028963831E+02  0.88495796647E+02  0.41800000000E+01 0. -1.
         -5    1    4    4    0  501  0.12846071696E+03  0.13546864150E+03 -0.35487762960E+03  0.40101061461E+03  0.41800000000E+01 0. -1.
</event>
<event>
11    1  0.1078607E-008  0.5934485E+03  0.7561462E-02  0.9205977E-01
         22   -1    0    0    0    0  0.00000000000E+00  0.00000000000E+00  0.20094426088E+03  0.20094426088E+03  0.00000000000E+00 0.  1.
         22   -1    0    0    0    0 -0.00000000000E+00 -0.00000000000E+00 -0.33061278328E+04  0.33061278328E+04  0.00000000000E+00 0.  1.
        -24    2    1    2    0    0  0.53205547887E+03 -0.31491781686E+03 -0.21661332226E+04  0.22541149253E+04  0.81514994398E+02 0.  0.
         25    2    1    2    0    0 -0.44791153549E+03  0.26592802931E+03 -0.98289140962E+03  0.11194060874E+04  0.12510797313E+03 0.  0.
         24    2    1    2    0    0 -0.84143943378E+02  0.48989787551E+02  0.43841060391E+02  0.13355108094E+03  0.80210037735E+02 0.  0.
        -11    1    5    5    0    0 -0.40205344705E+02  0.66569406306E+02  0.18796547898E+02  0.80007910932E+02  0.00000000000E+00 0.  1.
         12    1    5    5    0    0 -0.43938598673E+02 -0.17579618755E+02  0.25044512493E+02  0.53543170012E+02  0.00000000000E+00 0. -1.
         13    1    3    3    0    0  0.16959612273E+03 -0.62515147124E+02 -0.69383289383E+03  0.71699028796E+03  0.00000000000E+00 0. -1.
        -14    1    3    3    0    0  0.36245935614E+03 -0.25240266974E+03 -0.14723003288E+04  0.15371246374E+04  0.00000000000E+00 0.  1.
          5    1    4    4  501    0 -0.80984887692E+01  0.22157253140E+01 -0.83931147594E+02  0.84453566506E+02  0.41800000000E+01 0. -1.
         -5    1    4    4    0  501 -0.43981304672E+03  0.26371230400E+03 -0.89896026203E+03  0.10349525209E+04  0.41800000000E+01 0. -1.
</event>
<event>
11    1  0.1078607E-008  0.6054982E+03  0.7561462E-02  0.9184474E-01
         22   -1    0    0    0    0  0.00000000000E+00  0.00000000000E+00  0.10525975371E+04  0.10525975371E+04  0.00000000000E+00 0. -1.
         22   -1    0    0    0    0 -0.00000000000E+00 -0.00000000000E+00 -0.66842824861E+03  0.66842824861E+03  0.00000000000E+00 0. -1.
         24    2    1    2    0    0 -0.21078408139E+02  0.25408337429E+02 -0.31457470799E+03  0.32893524937E+03  0.90284375563E+02 0.  0.
         25    2    1    2    0    0  0.59639645881E+03 -0.10335565641E+03  0.35519070152E+03  0.71286603924E+03  0.12508568132E+03 0.  0.
        -24    2    1    2    0    0 -0.57531805067E+03  0.77947318985E+02  0.34355329491E+03  0.67922449705E+03  0.79059515444E+02 0.  0.
        -11    1    3    3    0    0 -0.28147607238E+01  0.24662726034E+01  0.59732634989E+01  0.70487768665E+01  0.00000000000E+00 0.  1.
         12    1    3    3    0    0 -0.18263647416E+02  0.22942064826E+02 -0.32054797149E+03  0.32188647250E+03  0.00000000000E+00 0. -1.
         11    1    5    5    0    0 -0.54500996673E+03  0.60366175521E+02  0.30633893237E+03  0.62811104151E+03  0.00000000000E+00 0. -1.
        -12    1    5    5    0    0 -0.30308083940E+02  0.17581143464E+02  0.37214362542E+02  0.51113455538E+02  0.00000000000E+00 0.  1.
          5    1    4    4  501    0  0.17993390643E+02 -0.29576036258E+02  0.17130079805E+02  0.38851204121E+02  0.41800000000E+01 0. -1.
         -5    1    4    4    0  501  0.57840306816E+03 -0.73779620156E+02  0.33806062171E+03  0.67401483512E+03  0.41800000000E+01 0. -1.
</event>
<event>
11    1  0.1078607E-008  0.1386108E+03  0.7561462E-02  0.1109120E+00
         22   -1    0    0    0    0  0.00000000000E+00  0.00000000000E+00  0.21326848222E+03  0.21326848222E+03  0.00000000000E+00 0.  1.
         22   -1    0    0    0    0 -0.00000000000E+00 -0.00000000000E+00 -0.18440538843E+04  0.18440538843E+04  0.00000000000E+00 0. -1.
         24    2    1    2    0    0  0.92544712627E+02  0.64431144723E+02 -0.17290461928E+04  0.17345378583E+04  0.79403706677E+02 0.  0.
         25    2    1    2    0    0 -0.22102919662E+02  0.12388054215E+02 -0.37963771301E+02  0.13315695870E+03  0.12509006665E+03 0.  0.
        -24    2    1    2    0    0 -0.70441792966E+02 -0.76819198938E+02  0.13622456209E+03  0.18962754951E+03  0.80859388414E+02 0.  0.
        -11    1    3    3    0    0  0.18725506727E+02  0.13251920025E+02 -0.85048920571E+02  0.88088460520E+02  0.00000000000E+00 0.  1.
         12    1    3    3    0    0  0.73819205900E+02  0.51179224698E+02 -0.16439972723E+04  0.16464493978E+04  0.00000000000E+00 0. -1.
         13    1    5    5    0    0 -0.82484489155E+02 -0.37162785496E+02  0.93624932977E+02  0.13019366978E+03  0.00000000000E+00 0. -1.
        -14    1    5    5    0    0  0.12042696190E+02 -0.39656413441E+02  0.42599629109E+02  0.59433879722E+02  0.00000000000E+00 0.  1.
          5    1    4    4  501    0 -0.23330470886E+01 -0.53233068905E+02 -0.36048544098E+02  0.64468385007E+02  0.41800000000E+01 0. -1.
         -5    1    4    4    0  501 -0.19769872573E+02  0.65621123120E+02 -0.19152272028E+01  0.68688573695E+02  0.41800000000E+01 0. -1.
</event>
<event>
11    1  0.1078607E-008  0.1301519E+03  0.7561462E-02  0.1119082E+00
         22   -1    0    0    0    0  0.00000000000E+00  0.00000000000E+00  0.74146367657E+02  0.74146367657E+02  0.00000000000E+00 0.  1.
         22   -1    0    0    0    0 -0.00000000000E+00 -0.00000000000E+00 -0.13095790048E+04  0.13095790048E+04  0.00000000000E+00 0. -1.
         24    2    1    2    0    0  0.18645262361E+02  0.17516945276E+02 -0.77263954379E+03  0.77721917505E+03  0.80270120538E+02 0.  0.
         25    2    1    2    0    0 -0.23518335417E+02 -0.52022991148E+02 -0.49550224874E+03  0.51422522873E+03  0.12508238742E+03 0.  0.
        -24    2    1    2    0    0  0.48730730555E+01  0.34506045872E+02  0.32709155411E+02  0.92280968662E+02  0.78939687653E+02 0.  0.
        -13    1    3    3    0    0  0.23290839757E+02  0.47577698848E+02 -0.43538864709E+03  0.43859933272E+03  0.00000000000E+00 0.  1.
         14    1    3    3    0    0 -0.46455773955E+01 -0.30060753572E+02 -0.33725089670E+03  0.33861984233E+03  0.00000000000E+00 0. -1.
         11    1    5    5    0    0  0.37370985758E+02  0.17977263841E+02 -0.25664588135E+01  0.41549480172E+02  0.00000000000E+00 0. -1.
        -12    1    5    5    0    0 -0.32497912703E+02  0.16528782031E+02  0.35275614224E+02  0.50731488490E+02  0.00000000000E+00 0.  1.
          5    1    4    4  501    0  0.13435565051E+02 -0.75862857583E+02 -0.18277183347E+03  0.19839027970E+03  0.41800000000E+01 0. -1.
         -5    1    4    4    0  501 -0.36953900468E+02  0.23839866434E+02 -0.31273041527E+03  0.31583494903E+03  0.41800000000E+01 0. -1.
</event>
<event>
11    1  0.1078607E-008  0.1542664E+03  0.7561462E-02  0.1092597E+00
         22   -1    0    0    0    0  0.00000000000E+00  0.00000000000E+00  0.11557652351E+04  0.11557652351E+04  0.00000000000E+00 0.  1.
         22   -1    0    0    0    0 -0.00000000000E+00 -0.00000000000E+00 -0.41072097066E+03  0.41072097066E+03  0.00000000000E+00 0.  1.
         24    2    1    2    0    0 -0.13408269558E+02  0.42846666528E+02 -0.31661378870E+03  0.33025434388E+03  0.82510738278E+02 0.  0.
         25    2    1    2    0    0 -0.91810150240E+01 -0.12875373420E+03  0.12257762096E+02  0.18016350685E+03  0.12508725499E+03 0.  0.
        -24    2    1    2    0    0  0.22589284582E+02  0.85907067676E+02  0.10494002911E+04  0.10560683550E+04  0.78416194633E+02 0.  0.
        -13    1    3    3    0    0  0.40633501158E+01  0.21932132576E+02 -0.29399087559E+03  0.29483582581E+03  0.00000000000E+00 0.  1.
         14    1    3    3    0    0 -0.17471619674E+02  0.20914533952E+02 -0.22622913115E+02  0.35418518070E+02  0.00000000000E+00 0. -1.
         11    1    5    5    0    0 -0.12583929156E+02  0.47199405579E+02  0.23675408360E+03  0.24174084318E+03  0.00000000000E+00 0. -1.
        -12    1    5    5    0    0  0.35173213738E+02  0.38707662098E+02  0.81264620746E+03  0.81432751186E+03  0.00000000000E+00 0.  1.
          5    1    4    4  501    0  0.56721319580E+00 -0.14655669429E+03 -0.13346738021E+02  0.14722361967E+03  0.41800000000E+01 0.  1.
         -5    1    4    4    0  501 -0.97482282198E+01  0.17802960088E+02  0.25604500117E+02  0.32939887182E+02  0.41800000000E+01 0.  1.
</event>
<event>
11    1  0.1078607E-008  0.2399826E+03  0.7561462E-02  0.1029375E+00
         22   -1    0    0    0    0  0.00000000000E+00  0.00000000000E+00  0.36430617554E+04  0.36430617554E+04  0.00000000000E+00 0.  1.
         22   -1    0    0    0    0 -0.00000000000E+00 -0.00000000000E+00 -0.15147044562E+03  0.15147044562E+03  0.00000000000E+00 0.  1.
         24    2    1    2    0    0  0.20236076222E+02 -0.10013985383E+03 -0.68991739367E+02  0.14738872286E+03  0.80784196603E+02 0.  0.
         25    2    1    2    0    0  0.35350995787E+02  0.28891589510E+03  0.59639950117E+03  0.67532320252E+03  0.12508787120E+03 0.  0.
        -24    2    1    2    0    0 -0.55587072008E+02 -0.18877604127E+03  0.29641835479E+04  0.29718202756E+04  0.81273170713E+02 0.  0.
        -11    1    3    3    0    0  0.44890886324E+02 -0.39724542051E+02 -0.53446126507E+02  0.80310144781E+02  0.00000000000E+00 0.  1.
         12    1    3    3    0    0 -0.24654810103E+02 -0.60415311778E+02 -0.15545612860E+02  0.67078578083E+02  0.00000000000E+00 0. -1.
         13    1    5    5    0    0 -0.51620557520E+02 -0.44665420959E+02  0.10486035540E+04  0.10508230561E+04  0.00000000000E+00 0. -1.
        -14    1    5    5    0    0 -0.39665144885E+01 -0.14411062031E+03  0.19155799939E+04  0.19209972195E+04  0.00000000000E+00 0.  1.
          5    1    4    4  501    0  0.52073396442E+02  0.21643509339E+03  0.53249241487E+03  0.57716672856E+03  0.41800000000E+01 0. -1.
         -5    1    4    4    0  501 -0.16722400656E+02  0.72480801706E+02  0.63907086303E+02  0.98156473955E+02  0.41800000000E+01 0. -1.
</event>
<event>
11    1  0.1078607E-008  0.6460399E+03  0.7561462E-02  0.9115833E-01
         22   -1    0    0    0    0  0.00000000000E+00  0.00000000000E+00  0.15104488202E+04  0.15104488202E+04  0.00000000000E+00 0.  1.
         22   -1    0    0    0    0 -0.00000000000E+00 -0.00000000000E+00 -0.29012852435E+04  0.29012852435E+04  0.00000000000E+00 0. -1.
        -24    2    1    2    0    0  0.25741104503E+03 -0.44234436039E+03 -0.25494980242E+04  0.26014695262E+04  0.75990400457E+02 0.  0.
         25    2    1    2    0    0 -0.72930948064E+03  0.43388569300E+01  0.56933384802E+03  0.93364892768E+03  0.12509254746E+03 0.  0.
         24    2    1    2    0    0  0.47189843560E+03  0.43800550346E+03  0.58932775278E+03  0.87661560984E+03  0.81306657948E+02 0.  0.
        -13    1    5    5    0    0  0.35622780653E+03  0.27987818819E+03  0.40844374501E+03  0.60996421469E+03  0.00000000000E+00 0.  1.
         14    1    5    5    0    0  0.11567062908E+03  0.15812731527E+03  0.18088400777E+03  0.26665139515E+03  0.00000000000E+00 0. -1.
         13    1    3    3    0    0  0.11340883629E+03 -0.13504531621E+03 -0.77484088328E+03  0.79465539449E+03  0.00000000000E+00 0. -1.
        -14    1    3    3    0    0  0.14400220875E+03 -0.30729904419E+03 -0.17746571409E+04  0.18068141317E+04  0.00000000000E+00 0.  1.
          5    1    4    4  501    0 -0.23726475229E+03 -0.51098110691E+02  0.22051698090E+03  0.32794937240E+03  0.41800000000E+01 0.  1.
         -5    1    4    4    0  501 -0.49204472835E+03  0.55436967621E+02  0.34881686712E+03  0.60569955528E+03  0.41800000000E+01 0.  1.
</event>
<event>
11    1  0.1078607E-008  0.1543655E+03  0.7561462E-02  0.1092500E+00
         22   -1    0    0    0    0  0.00000000000E+00  0.00000000000E+00  0.76097568271E+02  0.76097568271E+02  0.00000000000E+00 0.  1.
         22   -1    0    0    0    0 -0.00000000000E+00 -0.00000000000E+00 -0.60683802402E+03  0.60683802402E+03  0.00000000000E+00 0. -1.
        -24    2    1    2    0    0 -0.10666896420E+03  0.28904592745E+02 -0.35146530611E+03  0.37706929265E+03  0.80247409015E+02 0.  0.
         25    2    1    2    0    0  0.49245406148E+02  0.11337420307E+02 -0.13027465753E+03  0.18754791047E+03  0.12509630371E+03 0.  0.
         24    2    1    2    0    0  0.57423558054E+02 -0.40242013051E+02 -0.49000492116E+02  0.11831838918E+03  0.81739270588E+02 0.  0.
        -13    1    5    5    0    0  0.43625714993E+02 -0.34192759242E+02  0.10953318781E+02  0.56500645886E+02  0.00000000000E+00 0.  1.
         14    1    5    5    0    0  0.13797843061E+02 -0.60492538092E+01 -0.59953810896E+02  0.61817743293E+02  0.00000000000E+00 0. -1.
         13    1    3    3    0    0 -0.42173796513E+02  0.20112092883E+02 -0.26366146979E+03  0.26776948304E+03  0.00000000000E+00 0. -1.
        -14    1    3    3    0    0 -0.64495167689E+02  0.87924998616E+01 -0.87803836316E+02  0.10929980961E+03  0.00000000000E+00 0.  1.
          5    1    4    4  501    0  0.89930355537E+02  0.21887806532E+02 -0.91290537693E+02  0.13006913390E+03  0.41800000000E+01 0. -1.
         -5    1    4    4    0  501 -0.40684949389E+02 -0.10550386225E+02 -0.38984119833E+02  0.57478776565E+02  0.41800000000E+01 0. -1.
</event>
<event>
11    1  0.1078607E-008  0.1321143E+03  0.7561462E-02  0.1116698E+00
         22   -1    0    0    0    0  0.00000000000E+00  0.00000000000E+00  0.32132211161E+03  0.32132211161E+03  0.00000000000E+00 0. -1.
         22   -1    0    0    0    0 -0.00000000000E+00 -0.00000000000E+00 -0.30779335692E+03  0.30779335692E+03  0.00000000000E+00 0.  1.
         24    2    1    2    0    0  0.45360611760E+02 -0.91593518072E+01 -0.24636498341E+03  0.26344047802E+03  0.81016674711E+02 0.  0.
         25    2    1    2    0    0 -0.43007104431E+01 -0.11500510065E+02  0.48558791706E+02  0.13474328064E+03  0.12508811927E+03 0.  0.
        -24    2    1    2    0    0 -0.41059901317E+02  0.20659861872E+02  0.21133494640E+03  0.23093170988E+03  0.80958320561E+02 0.  0.
        -11    1    3    3    0    0  0.62923340846E+02 -0.20824256934E+02 -0.13860156632E+03  0.15363395030E+03  0.00000000000E+00 0.  1.
         12    1    3    3    0    0 -0.17562729086E+02  0.11664905127E+02 -0.10776341710E+03  0.10980652771E+03  0.00000000000E+00 0. -1.
         13    1    5    5    0    0  0.49985468228E+01 -0.26622609212E+02  0.60954143845E+02  0.66701997298E+02  0.00000000000E+00 0. -1.
        -14    1    5    5    0    0 -0.46058448140E+02  0.47282471084E+02  0.15038080256E+03  0.16422971258E+03  0.00000000000E+00 0.  1.
          5    1    4    4  501    0  0.27623589944E+02 -0.32337656592E+02  0.76271144487E+02  0.87427379216E+02  0.41800000000E+01 0. -1.
         -5    1    4    4    0  501 -0.31924300387E+02  0.20837146527E+02 -0.27712352780E+02  0.47315901420E+02  0.41800000000E+01 0. -1.
</event>
<event>
11    1  0.1078607E-008  0.1892550E+03  0.7561462E-02  0.1062393E+00
         22   -1    0    0    0    0  0.00000000000E+00  0.00000000000E+00  0.17473340129E+04  0.17473340129E+04  0.00000000000E+00 0.  1.
         22   -1    0    0    0    0 -0.00000000000E+00 -0.00000000000E+00 -0.23030726229E+03  0.23030726229E+03  0.00000000000E+00 0. -1.
         24    2    1    2    0    0 -0.33147773165E+02  0.17357680572E+02 -0.10818918537E+03  0.14002646129E+03  0.80637746053E+02 0.  0.
         25    2    1    2    0    0 -0.94209596935E+02 -0.82061756486E+02 -0.25577281253E+02  0.17863765582E+03  0.12509050614E+03 0.  0.
        -24    2    1    2    0    0  0.12735737010E+03  0.64704075914E+02  0.16507932173E+04  0.16589771581E+04  0.81734006384E+02 0.  0.
        -13    1    3    3    0    0 -0.26619651193E+02 -0.85851417332E+01  0.62030190854E+00  0.27976691418E+02  0.00000000000E+00 0.  1.
         14    1    3    3    0    0 -0.65281219717E+01  0.25942822305E+02 -0.10880948728E+03  0.11204976987E+03  0.00000000000E+00 0. -1.
         13    1    5    5    0    0  0.31913079730E+02  0.24483996413E+01  0.12854987665E+03  0.13247456400E+03  0.00000000000E+00 0. -1.
        -14    1    5    5    0    0  0.95444290370E+02  0.62255676273E+02  0.15222433406E+04  0.15265025941E+04  0.00000000000E+00 0.  1.
          5    1    4    4  501    0 -0.20604720817E+02 -0.96424484694E+02  0.17662588639E+01  0.98705763959E+02  0.41800000000E+01 0. -1.
         -5    1    4    4    0  501 -0.73604876118E+02  0.14362728208E+02 -0.27343540117E+02  0.79931891859E+02  0.41800000000E+01 0. -1.
</event>
<event>
11    1  0.1078607E-008  0.1416611E+03  0.7561462E-02  0.1105718E+00
         22   -1    0    0    0    0  0.00000000000E+00  0.00000000000E+00  0.22916790105E+04  0.22916790105E+04  0.00000000000E+00 0. -1.
         22   -1    0    0    0    0 -0.00000000000E+00 -0.00000000000E+00 -0.40760306350E+03  0.40760306350E+03  0.00000000000E+00 0. -1.
         24    2    1    2    0    0  0.90763267495E+01  0.65862121918E+02 -0.36991329706E+03  0.38855983648E+03  0.98603754359E+02 0.  0.
         25    2    1    2    0    0  0.13933730855E+02 -0.68656536232E+02  0.15901721057E+03  0.21411015953E+03  0.12509523705E+03 0.  0.
        -24    2    1    2    0    0 -0.23010057604E+02  0.27944143145E+01  0.20949720335E+04  0.20966120780E+04  0.79605985670E+02 0.  0.
        -13    1    3    3    0    0 -0.24948185218E+02 -0.96760563561E+01 -0.38085532595E+02  0.46546168535E+02  0.00000000000E+00 0.  1.
         14    1    3    3    0    0  0.34024511968E+02  0.75538178274E+02 -0.33182776447E+03  0.34201366795E+03  0.00000000000E+00 0. -1.
         13    1    5    5    0    0 -0.11483232632E+02  0.32272502297E+02  0.17093698268E+04  0.17097130122E+04  0.00000000000E+00 0. -1.
        -14    1    5    5    0    0 -0.11526824972E+02 -0.29478087983E+02  0.38560220662E+03  0.38689906580E+03  0.00000000000E+00 0.  1.
          5    1    4    4  501    0  0.28303927089E+02 -0.69221735089E+02  0.24565638695E+02  0.78827050572E+02  0.41800000000E+01 0.  1.
         -5    1    4    4    0  501 -0.14370196235E+02  0.56519885682E+00  0.13445157187E+03  0.13528310896E+03  0.41800000000E+01 0.  1.
</event>
<event>
11    1  0.1078607E-008  0.2608047E+03  0.7561462E-02  0.1018296E+00
         22   -1    0    0    0    0  0.00000000000E+00  0.00000000000E+00  0.15697706529E+04  0.15697706529E+04  0.00000000000E+00 0.  1.
         22   -1    0    0    0    0 -0.00000000000E+00 -0.00000000000E+00 -0.31718766283E+04  0.31718766283E+04  0.00000000000E+00 0. -1.
         24    2    1    2    0    0  0.43992723682E+02  0.11063515728E+03 -0.28245461956E+04  0.28282046599E+04  0.80652894150E+02 0.  0.
         25    2    1    2    0    0 -0.26821409055E+03 -0.68340568704E+02 -0.26692617016E+03  0.40435930080E+03  0.12509049575E+03 0.  0.
        -24    2    1    2    0    0  0.22422136686E+03 -0.42294588574E+02  0.14893663904E+04  0.15090833204E+04  0.84001009592E+02 0.  0.
        -11    1    3    3    0    0  0.41979288774E+02  0.16847683788E+02 -0.12907786429E+04  0.12915709853E+04  0.00000000000E+00 0.  1.
         12    1    3    3    0    0  0.20134349078E+01  0.93787473490E+02 -0.15337675528E+04  0.15366336746E+04  0.00000000000E+00 0. -1.
         13    1    5    5    0    0  0.16951534591E+03 -0.23619072867E+02  0.84688345894E+03  0.86400515399E+03  0.00000000000E+00 0. -1.
        -14    1    5    5    0    0  0.54706020957E+02 -0.18675515708E+02  0.64248293145E+03  0.64507816644E+03  0.00000000000E+00 0.  1.
          5    1    4    4  501    0 -0.26955006972E+03 -0.83317263223E+02 -0.26740718820E+03  0.38874552491E+03  0.41800000000E+01 0. -1.
         -5    1    4    4    0  501  0.13359791790E+01  0.14976694519E+02  0.48101803722E+00  0.15613775886E+02  0.41800000000E+01 0. -1.
</event>
<event>
11    1  0.1078607E-008  0.1699257E+03  0.7561462E-02  0.1078096E+00
         22   -1    0    0    0    0  0.00000000000E+00  0.00000000000E+00  0.36758842094E+03  0.36758842094E+03  0.00000000000E+00 0. -1.
         22   -1    0    0    0    0 -0.00000000000E+00 -0.00000000000E+00 -0.58892269991E+03  0.58892269991E+03  0.00000000000E+00 0. -1.
        -24    2    1    2    0    0 -0.17232978348E+02  0.12040071402E+03 -0.38563478959E+03  0.41229452161E+03  0.80493938421E+02 0.  0.
         25    2    1    2    0    0  0.21249682395E+01 -0.98462041451E+02 -0.14996788282E+03  0.21871754512E+03  0.12509080529E+03 0.  0.
         24    2    1    2    0    0  0.15108010109E+02 -0.21938672573E+02  0.31426839344E+03  0.32549905413E+03  0.80470204434E+02 0.  0.
        -13    1    5    5    0    0  0.25220044497E+02  0.17150385729E+02  0.53161835585E+02  0.61289208983E+02  0.00000000000E+00 0.  1.
         14    1    5    5    0    0 -0.10112034388E+02 -0.39089058302E+02  0.26110655786E+03  0.26420984515E+03  0.00000000000E+00 0. -1.
         11    1    3    3    0    0 -0.38311816674E+02  0.22427668320E+02 -0.14445750756E+03  0.15112500486E+03  0.00000000000E+00 0. -1.
        -12    1    3    3    0    0  0.21078838326E+02  0.97973045703E+02 -0.24117728203E+03  0.26116951675E+03  0.00000000000E+00 0.  1.
          5    1    4    4  501    0  0.29734316388E+02 -0.32656592277E+02 -0.13960641941E+03  0.14648551918E+03  0.41800000000E+01 0.  1.
         -5    1    4    4    0  501 -0.27609348149E+02 -0.65805449174E+02 -0.10361463408E+02  0.72232025931E+02  0.41800000000E+01 0.  1.
</event>
<event>
11    1  0.1078607E-008  0.1943946E+03  0.7561462E-02  0.1058560E+00
         22   -1    0    0    0    0  0.00000000000E+00  0.00000000000E+00  0.66963992878E+03  0.66963992878E+03  0.00000000000E+00 0. -1.
         22   -1    0    0    0    0 -0.00000000000E+00 -0.00000000000E+00 -0.29891475195E+03  0.29891475195E+03  0.00000000000E+00 0.  1.
        -24    2    1    2    0    0  0.15411837555E+03  0.52371221856E+02 -0.18778199283E+03  0.25843590108E+03  0.70935319682E+02 0.  0.
         25    2    1    2    0    0 -0.11523385984E+03  0.85012921126E+01  0.32372087885E+02  0.17333878915E+03  0.12508904559E+03 0.  0.
         24    2    1    2    0    0 -0.38884515702E+02 -0.60872513968E+02  0.52613508177E+03  0.53677999050E+03  0.78084348088E+02 0.  0.
        -13    1    5    5    0    0 -0.31821720889E+02 -0.65582929671E+02  0.24740080922E+03  0.25791646513E+03  0.00000000000E+00 0.  1.
         14    1    5    5    0    0 -0.70627948132E+01  0.47104157024E+01  0.27873427256E+03  0.27886352537E+03  0.00000000000E+00 0. -1.
         13    1    3    3    0    0  0.69349503024E+02 -0.12592437139E+02 -0.67667880091E+02  0.97708060255E+02  0.00000000000E+00 0. -1.
        -14    1    3    3    0    0  0.84768872522E+02  0.64963658994E+02 -0.12011411274E+03  0.16072784083E+03  0.00000000000E+00 0.  1.
          5    1    4    4  501    0 -0.43095429690E+02 -0.21903243634E+02  0.70957802619E+02  0.85961911881E+02  0.41800000000E+01 0.  1.
         -5    1    4    4    0  501 -0.72138430154E+02  0.30404535746E+02 -0.38585714734E+02  0.87376877265E+02  0.41800000000E+01 0.  1.
</event>
<event>
11    1  0.1078607E-008  0.1407983E+03  0.7561462E-02  0.1106670E+00
         22   -1    0    0    0    0  0.00000000000E+00  0.00000000000E+00  0.44990289483E+03  0.44990289483E+03  0.00000000000E+00 0. -1.
         22   -1    0    0    0    0 -0.00000000000E+00 -0.00000000000E+00 -0.13441544967E+04  0.13441544967E+04  0.00000000000E+00 0.  1.
         24    2    1    2    0    0 -0.53150120688E+01  0.53139711932E+02 -0.12481429494E+04  0.12517516618E+04  0.78545033896E+02 0.  0.
         25    2    1    2    0    0  0.67545270477E+02 -0.33295340750E+02 -0.26419831353E+02  0.14837926224E+03  0.12508978654E+03 0.  0.
        -24    2    1    2    0    0 -0.62230258408E+02 -0.19844371182E+02  0.38031117883E+03  0.39392646753E+03  0.79215307546E+02 0.  0.
        -13    1    3    3    0    0  0.16226609297E+02 -0.90267647194E+00 -0.75709338186E+03  0.75726779050E+03  0.00000000000E+00 0.  1.
         14    1    3    3    0    0 -0.21541621365E+02  0.54042388404E+02 -0.49104956750E+03  0.49448387126E+03  0.00000000000E+00 0. -1.
         13    1    5    5    0    0 -0.62873307788E+02 -0.53097196962E+01  0.37170582158E+03  0.37702316077E+03  0.00000000000E+00 0. -1.
        -14    1    5    5    0    0  0.64304937961E+00 -0.14534651485E+02  0.86053572503E+01  0.16903306769E+02  0.00000000000E+00 0.  1.
          5    1    4    4  501    0 -0.34115619093E+02  0.21717096495E+01 -0.21326351736E+02  0.40507745769E+02  0.41800000000E+01 0. -1.
         -5    1    4    4    0  501  0.10166088957E+03 -0.35467050400E+02 -0.50934796171E+01  0.10787151648E+03  0.41800000000E+01 0. -1.
</event>
<event>
11    1  0.1078607E-008  0.3935076E+03  0.7561462E-02  0.9669111E-01
         22   -1    0    0    0    0  0.00000000000E+00  0.00000000000E+00  0.93072963884E+03  0.93072963884E+03  0.00000000000E+00 0.  1.
         22   -1    0    0    0    0 -0.00000000000E+00 -0.00000000000E+00 -0.26546981596E+04  0.26546981596E+04  0.00000000000E+00 0.  1.
        -24    2    1    2    0    0 -0.36031348510E+03 -0.52866744522E+01 -0.19736688672E+04  0.20079546771E+04  0.81605339709E+02 0.  0.
         25    2    1    2    0    0  0.43042204508E+03 -0.49065293216E+02 -0.58227243436E+03  0.73645040190E+03  0.12508983474E+03 0.  0.
         24    2    1    2    0    0 -0.70108559976E+02  0.54351967668E+02  0.83197278082E+03  0.84102271942E+03  0.85271096950E+02 0.  0.
        -13    1    5    5    0    0 -0.81928305744E+02  0.40078700311E+02  0.48160651284E+03  0.49016668870E+03  0.00000000000E+00 0.  1.
         14    1    5    5    0    0  0.11819745768E+02  0.14273267357E+02  0.35036626798E+03  0.35085603072E+03  0.00000000000E+00 0. -1.
         13    1    3    3    0    0 -0.52443849438E+00  0.52619929547E+01 -0.79190008990E+01  0.95222991356E+01  0.00000000000E+00 0. -1.
        -14    1    3    3    0    0 -0.35978904661E+03 -0.10548667407E+02 -0.19657498663E+04  0.19984323780E+04  0.00000000000E+00 0.  1.
          5    1    4    4  501    0  0.27604321649E+03 -0.65783022120E+02 -0.45202516121E+03  0.53373353102E+03  0.41800000000E+01 0.  1.
         -5    1    4    4    0  501  0.15437882859E+03  0.16717728904E+02 -0.13024727315E+03  0.20271687088E+03  0.41800000000E+01 0.  1.
</event>
<event>
11    1  0.1078607E-008  0.1382301E+03  0.7561462E-02  0.1109551E+00
         22   -1    0    0    0    0  0.00000000000E+00  0.00000000000E+00  0.32513128363E+03  0.32513128363E+03  0.00000000000E+00 0.  1.
         22   -1    0    0    0    0 -0.00000000000E+00 -0.00000000000E+00 -0.14006167598E+04  0.14006167598E+04  0.00000000000E+00 0. -1.
         24    2    1    2    0    0 -0.12968647725E+02  0.10758631062E+02 -0.12718492964E+04  0.12744370681E+04  0.79405753560E+02 0.  0.
         25    2    1    2    0    0  0.83538287580E+01 -0.68718430365E+02 -0.75698302545E+02  0.16177311268E+03  0.12509315669E+03 0.  0.
        -24    2    1    2    0    0  0.46148189675E+01  0.57959799303E+02  0.27206212275E+03  0.28953786272E+03  0.80210600468E+02 0.  0.
        -13    1    3    3    0    0  0.33655954516E+02  0.48945521123E+01 -0.49351056848E+03  0.49468107010E+03  0.00000000000E+00 0.  1.
         14    1    3    3    0    0 -0.46624602241E+02  0.58640789496E+01 -0.77833872793E+03  0.77975599796E+03  0.00000000000E+00 0. -1.
         13    1    5    5    0    0  0.10771193543E+02  0.63578862906E+02  0.11183718801E+03  0.12909627043E+03  0.00000000000E+00 0. -1.
        -14    1    5    5    0    0 -0.61563745756E+01 -0.56190636033E+01  0.16022493474E+03  0.16044159229E+03  0.00000000000E+00 0.  1.
          5    1    4    4  501    0  0.65404774880E+02 -0.22068182821E+02 -0.36992496964E+02  0.78426440068E+02  0.41800000000E+01 0.  1.
         -5    1    4    4    0  501 -0.57050946122E+02 -0.46650247544E+02 -0.38705805582E+02  0.83346672609E+02  0.41800000000E+01 0.  1.
</event>
<event>
11    1  0.1078607E-008  0.3556474E+03  0.7561462E-02  0.9790524E-01
         22   -1    0    0    0    0  0.00000000000E+00  0.00000000000E+00  0.67441175550E+03  0.67441175550E+03  0.00000000000E+00 0. -1.
         22   -1    0    0    0    0 -0.00000000000E+00 -0.00000000000E+00 -0.11929781380E+04  0.11929781380E+04  0.00000000000E+00 0.  1.
        -24    2    1    2    0    0 -0.31920388027E+03  0.24753466885E+02 -0.92637836402E+03  0.98338285761E+03  0.79756629879E+02 0.  0.
         25    2    1    2    0    0  0.45242546192E+03 -0.16057018120E+03  0.88532865360E+02  0.50394161850E+03  0.12508998728E+03 0.  0.
         24    2    1    2    0    0 -0.13322158165E+03  0.13581671432E+03  0.31927911613E+03  0.38006541742E+03  0.79475768701E+02 0.  0.
        -13    1    5    5    0    0  0.96907553284E+01  0.10522712544E+01  0.15409403515E+02  0.18233697659E+02  0.00000000000E+00 0.  1.
         14    1    5    5    0    0 -0.14291233698E+03  0.13476444306E+03  0.30386971262E+03  0.36183171976E+03  0.00000000000E+00 0. -1.
         11    1    3    3    0    0  0.41118106206E+01  0.39287622760E+01 -0.11444926013E+02  0.12780003562E+02  0.00000000000E+00 0. -1.
        -12    1    3    3    0    0 -0.32331569089E+03  0.20824704609E+02 -0.91493343801E+03  0.97060285405E+03  0.00000000000E+00 0.  1.
          5    1    4    4  501    0  0.21353604086E+03 -0.20810287600E+02  0.73151539884E+02  0.22671420116E+03  0.41800000000E+01 0.  1.
         -5    1    4    4    0  501  0.23888942106E+03 -0.13975989360E+03  0.15381325476E+02  0.27722741734E+03  0.41800000000E+01 0.  1.
</event>
<event>
11    1  0.1078607E-008  0.1555921E+03  0.7561462E-02  0.1091298E+00
         22   -1    0    0    0    0  0.00000000000E+00  0.00000000000E+00  0.44364745637E+03  0.44364745637E+03  0.00000000000E+00 0.  1.
         22   -1    0    0    0    0 -0.00000000000E+00 -0.00000000000E+00 -0.62790027201E+03  0.62790027201E+03  0.00000000000E+00 0.  1.
         24    2    1    2    0    0 -0.80376200751E+02 -0.49591213372E+02 -0.47960664903E+03  0.49537779647E+03  0.80355468705E+02 0.  0.
         25    2    1    2    0    0  0.85365006863E+02  0.16506408132E+02 -0.92494738525E+02  0.17822024604E+03  0.12509010167E+03 0.  0.
        -24    2    1    2    0    0 -0.49888061130E+01  0.33084805240E+02  0.38784857192E+03  0.39794968588E+03  0.82570849727E+02 0.  0.
        -13    1    3    3    0    0 -0.91202005940E+02 -0.28366390093E+02 -0.31830554185E+03  0.33232645990E+03  0.00000000000E+00 0.  1.
         14    1    3    3    0    0  0.10825805189E+02 -0.21224823279E+02 -0.16130110717E+03  0.16305133657E+03  0.00000000000E+00 0. -1.
         11    1    5    5    0    0  0.16775948098E+02  0.26250342416E+02  0.47297432466E+02  0.56635324925E+02  0.00000000000E+00 0. -1.
        -12    1    5    5    0    0 -0.21764754211E+02  0.68344628245E+01  0.34055113945E+03  0.34131436095E+03  0.00000000000E+00 0.  1.
          5    1    4    4  501    0 -0.27568371073E+02  0.27030036924E+02 -0.22952003445E+02  0.45109919551E+02  0.41800000000E+01 0.  1.
         -5    1    4    4    0  501  0.11293337794E+03 -0.10523628792E+02 -0.69542735080E+02  0.13311032649E+03  0.41800000000E+01 0.  1.
</event>
<event>
11    1  0.1078607E-008  0.1753583E+03  0.7561462E-02  0.1073461E+00
         22   -1    0    0    0    0  0.00000000000E+00  0.00000000000E+00  0.14912561304E+04  0.14912561304E+04  0.00000000000E+00 0. -1.
         22   -1    0    0    0    0 -0.00000000000E+00 -0.00000000000E+00 -0.14018597871E+03  0.14018597871E+03  0.00000000000E+00 0.  1.
        -24    2    1    2    0    0  0.13770943663E+02  0.12284605861E+03 -0.71611231871E+02  0.16366222862E+03  0.79852135492E+02 0.  0.
         25    2    1    2    0    0 -0.11170918535E+02 -0.11680776952E+03  0.32974806643E+03  0.37168832823E+03  0.12509828770E+03 0.  0.
         24    2    1    2    0    0 -0.26000251282E+01 -0.60382890857E+01  0.10929333171E+04  0.10960915522E+04  0.82886875616E+02 0.  0.
        -13    1    5    5    0    0  0.16691316819E+01 -0.38978751166E+02  0.30877064101E+03  0.31122570233E+03  0.00000000000E+00 0.  1.
         14    1    5    5    0    0 -0.42691568100E+01  0.32940462080E+02  0.78416267608E+03  0.78486584988E+03  0.00000000000E+00 0. -1.
         13    1    3    3    0    0  0.35520807000E+02  0.17503860619E+02 -0.19390215969E+02  0.44091873875E+02  0.00000000000E+00 0. -1.
        -14    1    3    3    0    0 -0.21749863337E+02  0.10534219799E+03 -0.52221015902E+02  0.11957035475E+03  0.00000000000E+00 0.  1.
          5    1    4    4  501    0 -0.37154036998E+01 -0.63788950217E+02  0.36792643624E+02  0.73851238441E+02  0.41800000000E+01 0. -1.
         -5    1    4    4    0  501 -0.74555148347E+01 -0.53018819307E+02  0.29295542280E+03  0.29783708978E+03  0.41800000000E+01 0. -1.
</event>
<event>
11    1  0.1078607E-008  0.2938555E+03  0.7561462E-02  0.1002826E+00
         22   -1    0    0    0    0  0.00000000000E+00  0.00000000000E+00  0.64764374679E+03  0.64764374679E+03  0.00000000000E+00 0.  1.
         22   -1    0    0    0    0 -0.00000000000E+00 -0.00000000000E+00 -0.89782329944E+03  0.89782329944E+03  0.00000000000E+00 0. -1.
         24    2    1    2    0    0  0.14111354237E+02  0.28629464650E+01 -0.74799907530E+03  0.75346617267E+03  0.89450153287E+02 0.  0.
         25    2    1    2    0    0 -0.16044539972E+03  0.21714179118E+03  0.11341651018E+03  0.31843832206E+03  0.12508547642E+03 0.  0.
        -24    2    1    2    0    0  0.14633404548E+03 -0.22000473764E+03  0.38440301247E+03  0.47356255150E+03  0.81731736363E+02 0.  0.
        -11    1    3    3    0    0 -0.36503736395E+02 -0.46249810157E+00 -0.41803683444E+03  0.41962784896E+03  0.00000000000E+00 0.  1.
         12    1    3    3    0    0  0.50615090632E+02  0.33254445666E+01 -0.32996224086E+03  0.33383832371E+03  0.00000000000E+00 0. -1.
         13    1    5    5    0    0  0.70573710558E+02 -0.15146708111E+03  0.18355046862E+03  0.24822107044E+03  0.00000000000E+00 0. -1.
        -14    1    5    5    0    0  0.75760334922E+02 -0.68537656536E+02  0.20085254385E+03  0.22534148105E+03  0.00000000000E+00 0.  1.
          5    1    4    4  501    0 -0.28718810959E+02  0.40320154080E+02 -0.27446277018E+02  0.56756104958E+02  0.41800000000E+01 0.  1.
         -5    1    4    4    0  501 -0.13172658876E+03  0.17682163710E+03  0.14086278720E+03  0.26168221711E+03  0.41800000000E+01 0.  1.
</event>
<event>
11    1  0.1078607E-008  0.1760356E+03  0.7561462E-02  0.1072895E+00
         22   -1    0    0    0    0  0.00000000000E+00  0.00000000000E+00  0.23974802473E+03  0.23974802473E+03  0.00000000000E+00 0.  1.
         22   -1    0    0    0    0 -0.00000000000E+00 -0.00000000000E+00 -0.11767454205E+04  0.11767454205E+04  0.00000000000E+00 0. -1.
         24    2    1    2    0    0 -0.16446970621E+02 -0.72975302549E+02 -0.95149275679E+03  0.95783320934E+03  0.80685147705E+02 0.  0.
         25    2    1    2    0    0  0.11950335520E+03  0.12968185139E+03 -0.13500209825E+03  0.25488647456E+03  0.12507243461E+03 0.  0.
        -24    2    1    2    0    0 -0.10305638458E+03 -0.56706548846E+02  0.14949745924E+03  0.20377376136E+03  0.73061648070E+02 0.  0.
        -11    1    3    3    0    0 -0.72546376172E+01  0.69049163544E+01 -0.15898870428E+02  0.18790468799E+02  0.00000000000E+00 0.  1.
         12    1    3    3    0    0 -0.91923330035E+01 -0.79880218903E+02 -0.93559388636E+03  0.93904274054E+03  0.00000000000E+00 0. -1.
         13    1    5    5    0    0 -0.17187861434E+02 -0.15987793480E+02 -0.34297902411E+01  0.23723313051E+02  0.00000000000E+00 0. -1.
        -14    1    5    5    0    0 -0.85868523142E+02 -0.40718755366E+02  0.15292724948E+03  0.18005044831E+03  0.00000000000E+00 0.  1.
          5    1    4    4  501    0  0.14302764468E+03  0.99959330349E+02 -0.12715951547E+03  0.21595321169E+03  0.41800000000E+01 0. -1.
         -5    1    4    4    0  501 -0.23524289482E+02  0.29722521046E+02 -0.78425827805E+01  0.38933262869E+02  0.41800000000E+01 0. -1.
</event>
<event>
11    1  0.1078607E-008  0.1468598E+03  0.7561462E-02  0.1100131E+00
         22   -1    0    0    0    0  0.00000000000E+00  0.00000000000E+00  0.35660373103E+03  0.35660373103E+03  0.00000000000E+00 0. -1.
         22   -1    0    0    0    0 -0.00000000000E+00 -0.00000000000E+00 -0.14542783103E+04  0.14542783103E+04  0.00000000000E+00 0.  1.
        -24    2    1    2    0    0  0.88663098013E+01 -0.76424796048E+02 -0.13934420276E+04  0.13978685948E+04  0.80228194822E+02 0.  0.
         25    2    1    2    0    0 -0.15587838371E+02  0.75659426317E+02  0.51560050551E+02  0.15580160694E+03  0.12509345473E+03 0.  0.
         24    2    1    2    0    0  0.67215285698E+01  0.76536973154E+00  0.24420739774E+03  0.25721183960E+03  0.80466841527E+02 0.  0.
        -11    1    5    5    0    0  0.37654309575E+02  0.19105265624E+02  0.99207972633E+02  0.10781966443E+03  0.00000000000E+00 0.  1.
         12    1    5    5    0    0 -0.30932781005E+02 -0.18339895892E+02  0.14499942511E+03  0.14939217517E+03  0.00000000000E+00 0. -1.
         11    1    3    3    0    0 -0.28956412943E+02 -0.14296612281E+02 -0.24403002357E+03  0.24615750929E+03  0.00000000000E+00 0. -1.
        -12    1    3    3    0    0  0.37822722745E+02 -0.62128183768E+02 -0.11494120040E+04  0.11517110855E+04  0.00000000000E+00 0.  1.
          5    1    4    4  501    0  0.16963961954E+01 -0.19943264687E+02  0.54815288519E+02  0.58504699144E+02  0.41800000000E+01 0.  1.
         -5    1    4    4    0  501 -0.17284234567E+02  0.95602691004E+02 -0.32552379685E+01  0.97296907793E+02  0.41800000000E+01 0.  1.
</event>
<event>
11    1  0.1078607E-008  0.1425829E+03  0.7561462E-02  0.1104708E+00
         22   -1    0    0    0    0  0.00000000000E+00  0.00000000000E+00  0.58825851562E+03  0.58825851562E+03  0.00000000000E+00 0. -1.
         22   -1    0    0    0    0 -0.00000000000E+00 -0.00000000000E+00 -0.16324459331E+04  0.16324459331E+04  0.00000000000E+00 0. -1.
        -24    2    1    2    0    0 -0.19130435900E+02  0.10412087820E+02 -0.15314216872E+04  0.15346703165E+04  0.97397183449E+02 0.  0.
         25    2    1    2    0    0  0.84146001316E+02 -0.27894362876E+02 -0.31861159473E+02  0.15659287687E+03  0.12509016982E+03 0.  0.
         24    2    1    2    0    0 -0.65015565417E+02  0.17482275056E+02  0.51909542911E+03  0.52944125537E+03  0.79469017098E+02 0.  0.
        -11    1    5    5    0    0  0.73091627056E+01  0.27120487177E+02  0.20890988700E+03  0.21078967140E+03  0.00000000000E+00 0.  1.
         12    1    5    5    0    0 -0.72324728122E+02 -0.96382121210E+01  0.31018554211E+03  0.31865158397E+03  0.00000000000E+00 0. -1.
         11    1    3    3    0    0 -0.14290580751E+02 -0.41836859061E+02 -0.89401021800E+03  0.89510268314E+03  0.00000000000E+00 0. -1.
        -12    1    3    3    0    0 -0.48398551488E+01  0.52248946880E+02 -0.63741146915E+03  0.63956763337E+03  0.00000000000E+00 0.  1.
          5    1    4    4  501    0  0.40136560029E+01 -0.44743043386E+02  0.29742020482E+02  0.54038037976E+02  0.41800000000E+01 0.  1.
         -5    1    4    4    0  501  0.80132345313E+02  0.16848680510E+02 -0.61603179955E+02  0.10255483890E+03  0.41800000000E+01 0.  1.
</event>
<event>
11    1  0.1078607E-008  0.1386662E+03  0.7561462E-02  0.1109057E+00
         22   -1    0    0    0    0  0.00000000000E+00  0.00000000000E+00  0.64784161091E+03  0.64784161091E+03  0.00000000000E+00 0. -1.
         22   -1    0    0    0    0 -0.00000000000E+00 -0.00000000000E+00 -0.36147267234E+03  0.36147267234E+03  0.00000000000E+00 0.  1.
        -24    2    1    2    0    0  0.36411075879E+00 -0.20617115205E+02 -0.26725124881E+03  0.28132547695E+03  0.85414260957E+02 0.  0.
         25    2    1    2    0    0 -0.23036717594E+02 -0.35772297974E+02 -0.30595645553E+02  0.13560303594E+03  0.12506695075E+03 0.  0.
         24    2    1    2    0    0  0.22672606835E+02  0.56389413179E+02  0.58421583293E+03  0.59238577035E+03  0.76934702525E+02 0.  0.
        -13    1    5    5    0    0 -0.13385252868E+02 -0.12349925251E+02  0.69350201477E+02  0.71701716109E+02  0.00000000000E+00 0.  1.
         14    1    5    5    0    0  0.36057859703E+02  0.68739338429E+02  0.51486563145E+03  0.52068405425E+03  0.00000000000E+00 0. -1.
         11    1    3    3    0    0 -0.20716475242E+02 -0.43099064529E+00 -0.11080839189E+02  0.23497725348E+02  0.00000000000E+00 0. -1.
        -12    1    3    3    0    0  0.21080586001E+02 -0.20186124560E+02 -0.25617040962E+03  0.25782775160E+03  0.00000000000E+00 0.  1.
          5    1    4    4  501    0  0.26246974192E+02 -0.26930738445E+02 -0.64647779343E+02  0.74906448998E+02  0.41800000000E+01 0. -1.
         -5    1    4    4    0  501 -0.49283691786E+02 -0.88415595284E+01  0.34052133790E+02  0.60696586943E+02  0.41800000000E+01 0. -1.
</event>
<event>
11    1  0.1078607E-008  0.2045708E+03  0.7561462E-02  0.1051338E+00
         22   -1    0    0    0    0  0.00000000000E+00  0.00000000000E+00  0.19095190693E+03  0.19095190693E+03  0.00000000000E+00 0.  1.
         22   -1    0    0    0    0 -0.00000000000E+00 -0.00000000000E+00 -0.56198835140E+03  0.56198835140E+03  0.00000000000E+00 0. -1.
        -24    2    1    2    0    0 -0.37003266976E+02  0.13435276137E+02 -0.30888056479E+03  0.32252423438E+03  0.84053138209E+02 0.  0.
         25    2    1    2    0    0  0.18862048368E+03 -0.13601799004E+00 -0.10880766676E+03  0.25112494007E+03  0.12508765653E+03 0.  0.
         24    2    1    2    0    0 -0.15161721671E+03 -0.13299258147E+02  0.46651787081E+02  0.17929108387E+03  0.82487895166E+02 0.  0.
        -13    1    5    5    0    0 -0.12580582138E+03 -0.12612342625E+02  0.53462256628E+00  0.12643758026E+03  0.00000000000E+00 0.  1.
         14    1    5    5    0    0 -0.25811395327E+02 -0.68691552226E+00  0.46117164514E+02  0.52853503616E+02  0.00000000000E+00 0. -1.
         13    1    3    3    0    0 -0.56069250054E+02 -0.13164373496E+02 -0.23048318129E+03  0.23757011258E+03  0.00000000000E+00 0. -1.
        -14    1    3    3    0    0  0.19065983078E+02  0.26599649633E+02 -0.78397383501E+02  0.84954121802E+02  0.00000000000E+00 0.  1.
          5    1    4    4  501    0  0.17581071874E+03 -0.31177547505E+01 -0.39253618781E+02  0.18021500549E+03  0.41800000000E+01 0. -1.
         -5    1    4    4    0  501  0.12809764947E+02  0.29817367605E+01 -0.69554047979E+02  0.70909934581E+02  0.41800000000E+01 0. -1.
</event>
<event>
11    1  0.1078607E-008  0.1553906E+03  0.7561462E-02  0.1091494E+00
         22   -1    0    0    0    0  0.00000000000E+00  0.00000000000E+00  0.50328260061E+03  0.50328260061E+03  0.00000000000E+00 0. -1.
         22   -1    0    0    0    0 -0.00000000000E+00 -0.00000000000E+00 -0.12619206056E+04  0.12619206056E+04  0.00000000000E+00 0. -1.
         24    2    1    2    0    0  0.14872075790E+02  0.37149445701E+02 -0.11180839180E+04  0.11216874246E+04  0.80434885280E+02 0.  0.
         25    2    1    2    0    0 -0.10529887822E+03 -0.47605945981E+02 -0.79342963080E+02  0.18787798057E+03  0.12509456401E+03 0.  0.
        -24    2    1    2    0    0  0.90426802434E+02  0.10456500280E+02  0.43878887614E+03  0.45563780104E+03  0.82363723318E+02 0.  0.
        -13    1    3    3    0    0  0.24010126237E+02  0.51098520334E+02 -0.46851514126E+03  0.47190463288E+03  0.00000000000E+00 0.  1.
         14    1    3    3    0    0 -0.91380504468E+01 -0.13949074633E+02 -0.64956877674E+03  0.64978279168E+03  0.00000000000E+00 0. -1.
         11    1    5    5    0    0  0.85410999365E+02 -0.17136136348E+02  0.38761173818E+03  0.39728018521E+03  0.00000000000E+00 0. -1.
        -12    1    5    5    0    0  0.50158030687E+01  0.27592636628E+02  0.51177137952E+02  0.58357615831E+02  0.00000000000E+00 0.  1.
          5    1    4    4  501    0 -0.11037990384E+03 -0.73514323660E+02 -0.88647407918E+02  0.15957416547E+03  0.41800000000E+01 0. -1.
         -5    1    4    4    0  501  0.50810256193E+01  0.25908377679E+02  0.93044448384E+01  0.28303815097E+02  0.41800000000E+01 0. -1.
</event>
<event>
11    1  0.1078607E-008  0.1960864E+03  0.7561462E-02  0.1057326E+00
         22   -1    0    0    0    0  0.00000000000E+00  0.00000000000E+00  0.56185672565E+03  0.56185672565E+03  0.00000000000E+00 0. -1.
         22   -1    0    0    0    0 -0.00000000000E+00 -0.00000000000E+00 -0.24871086539E+03  0.24871086539E+03  0.00000000000E+00 0. -1.
        -24    2    1    2    0    0  0.11330929823E+03 -0.97654818154E+02 -0.17206543978E+03  0.24106995726E+03  0.78311864708E+02 0.  0.
         25    2    1    2    0    0 -0.10475284732E+03  0.13726656045E+03  0.41818697598E+03  0.46940737894E+03  0.12509065864E+03 0.  0.
         24    2    1    2    0    0 -0.85564509058E+01 -0.39611742296E+02  0.67024324061E+02  0.10009025485E+03  0.62317703098E+02 0.  0.
        -11    1    5    5    0    0 -0.26961145833E+02 -0.14204765110E+01  0.94781707126E+01  0.28613927696E+02  0.00000000000E+00 0.  1.
         12    1    5    5    0    0  0.18404694927E+02 -0.38191265785E+02  0.57546153349E+02  0.71476327150E+02  0.00000000000E+00 0. -1.
         11    1    3    3    0    0  0.11475255483E+03 -0.10021325910E+03 -0.17809153795E+03  0.23436604282E+03  0.00000000000E+00 0. -1.
        -12    1    3    3    0    0 -0.14432566005E+01  0.25584409471E+01  0.60260981678E+01  0.67039144403E+01  0.00000000000E+00 0.  1.
          5    1    4    4  501    0 -0.96695277760E+02  0.70164794863E+02  0.14485243710E+03  0.18781047924E+03  0.41800000000E+01 0. -1.
         -5    1    4    4    0  501 -0.80575695619E+01  0.67101765587E+02  0.27333453888E+03  0.28159689969E+03  0.41800000000E+01 0. -1.
</event>
<event>
11    1  0.1078607E-008  0.1509705E+03  0.7561462E-02  0.1095891E+00
         22   -1    0    0    0    0  0.00000000000E+00  0.00000000000E+00  0.18976185256E+04  0.18976185256E+04  0.00000000000E+00 0.  1.
         22   -1    0    0    0    0 -0.00000000000E+00 -0.00000000000E+00 -0.34273721132E+03  0.34273721132E+03  0.00000000000E+00 0. -1.
        -24    2    1    2    0    0 -0.15767578140E+02  0.59764824074E+02 -0.28924886053E+03  0.30593982416E+03  0.78190932819E+02 0.  0.
         25    2    1    2    0    0  0.99437467654E+02 -0.51290927058E+02  0.11909927584E+03  0.20579647498E+03  0.12509589297E+03 0.  0.
         24    2    1    2    0    0 -0.83669889514E+02 -0.84738970158E+01  0.17250308989E+04  0.17286194377E+04  0.72945876605E+02 0.  0.
        -13    1    5    5    0    0 -0.40504360460E+02  0.31987803406E+02  0.71869539811E+03  0.72054624976E+03  0.00000000000E+00 0.  1.
         14    1    5    5    0    0 -0.43165529053E+02 -0.40461700421E+02  0.10063355008E+04  0.10080731880E+04  0.00000000000E+00 0. -1.
         11    1    3    3    0    0 -0.26126864980E+02  0.58193900794E+02 -0.28846378731E+03  0.29543273304E+03  0.00000000000E+00 0. -1.
        -12    1    3    3    0    0  0.10359286839E+02  0.15709232798E+01 -0.78507321246E+00  0.10507091116E+02  0.00000000000E+00 0.  1.
          5    1    4    4  501    0  0.10373388139E+03 -0.56809784029E+02  0.38010547022E+02  0.12429941188E+03  0.41800000000E+01 0. -1.
         -5    1    4    4    0  501 -0.42964137353E+01  0.55188569709E+01  0.81088728813E+02  0.81497063099E+02  0.41800000000E+01 0. -1.
</event>
<event>
11    1  0.1078607E-008  0.1840868E+03  0.7561462E-02  0.1066384E+00
         22   -1    0    0    0    0  0.00000000000E+00  0.00000000000E+00  0.62627223241E+03  0.62627223241E+03  0.00000000000E+00 0. -1.
         22   -1    0    0    0    0 -0.00000000000E+00 -0.00000000000E+00 -0.31411240492E+04  0.31411240492E+04  0.00000000000E+00 0.  1.
         24    2    1    2    0    0 -0.53372131574E+01 -0.51324276676E+02 -0.30522510932E+04  0.30542074461E+04  0.96352065444E+02 0.  0.
         25    2    1    2    0    0  0.87461185608E+02  0.15043745040E+03  0.78023015589E+02  0.22806329086E+03  0.12507752877E+03 0.  0.
        -24    2    1    2    0    0 -0.82123972450E+02 -0.99113173725E+02  0.45937626081E+03  0.48512554469E+03  0.88048151918E+02 0.  0.
        -13    1    3    3    0    0  0.16637583933E+02 -0.69018710309E+02 -0.26580759121E+04  0.26590238709E+04  0.00000000000E+00 0.  1.
         14    1    3    3    0    0 -0.21974797090E+02  0.17694433633E+02 -0.39417518108E+03  0.39518357515E+03  0.00000000000E+00 0. -1.
         11    1    5    5    0    0 -0.74579890771E+02 -0.79286481948E+02  0.44804005452E+03  0.46107309267E+03  0.00000000000E+00 0. -1.
        -12    1    5    5    0    0 -0.75440816790E+01 -0.19826691777E+02  0.11336206291E+02  0.24052452022E+02  0.00000000000E+00 0.  1.
          5    1    4    4  501    0  0.16344088611E+02  0.11463403868E+03 -0.90622066029E+00  0.11587228181E+03  0.41800000000E+01 0.  1.
         -5    1    4    4    0  501  0.71117096997E+02  0.35803411724E+02  0.78929236249E+02  0.11219100905E+03  0.41800000000E+01 0.  1.
</event>
<event>
11    1  0.1078607E-008  0.1401051E+03  0.7561462E-02  0.1107441E+00
         22   -1    0    0    0    0  0.00000000000E+00  0.00000000000E+00  0.17203149654E+03  0.17203149654E+03  0.00000000000E+00 0.  1.
         22   -1    0    0    0    0 -0.00000000000E+00 -0.00000000000E+00 -0.78745117628E+03  0.78745117628E+03  0.00000000000E+00 0. -1.
         24    2    1    2    0    0  0.19122944226E+02 -0.60962565215E+02 -0.57554940666E+03  0.58439730360E+03  0.78619129967E+02 0.  0.
         25    2    1    2    0    0 -0.66484630181E+02  0.36928810436E+02 -0.16346571112E+03  0.21943673627E+03  0.12508996532E+03 0.  0.
        -24    2    1    2    0    0  0.47361685954E+02  0.24033754779E+02  0.12359543805E+03  0.15564863295E+03  0.78293767101E+02 0.  0.
        -13    1    3    3    0    0 -0.16299958085E+01 -0.48561886252E+02 -0.14027376133E+03  0.14845080599E+03  0.00000000000E+00 0.  1.
         14    1    3    3    0    0  0.20752940035E+02 -0.12400678963E+02 -0.43527564533E+03  0.43594649761E+03  0.00000000000E+00 0. -1.
         11    1    5    5    0    0  0.10365444374E+02  0.58795601459E+01 -0.10177781750E+02  0.15671595513E+02  0.00000000000E+00 0. -1.
        -12    1    5    5    0    0  0.36996241580E+02  0.18154194633E+02  0.13377321980E+03  0.13997703743E+03  0.00000000000E+00 0.  1.
          5    1    4    4  501    0  0.85043194650E+01  0.17388017276E+02 -0.13551004495E+03  0.13694930185E+03  0.41800000000E+01 0.  1.
         -5    1    4    4    0  501 -0.74988949646E+02  0.19540793160E+02 -0.27955666165E+02  0.82487434419E+02  0.41800000000E+01 0.  1.
</event>
<event>
11    1  0.1078607E-008  0.1521333E+03  0.7561462E-02  0.1094719E+00
         22   -1    0    0    0    0  0.00000000000E+00  0.00000000000E+00  0.85486025504E+02  0.85486025504E+02  0.00000000000E+00 0. -1.
         22   -1    0    0    0    0 -0.00000000000E+00 -0.00000000000E+00 -0.19592667605E+04  0.19592667605E+04  0.00000000000E+00 0. -1.
        -24    2    1    2    0    0  0.31391396679E+02 -0.82420970249E+02 -0.14696908648E+04  0.14744674824E+04  0.79274728218E+02 0.  0.
         25    2    1    2    0    0 -0.14596859107E+02  0.78335750998E+02 -0.45201756986E+03  0.47572752781E+03  0.12508892463E+03 0.  0.
         24    2    1    2    0    0 -0.16794537572E+02  0.40852192512E+01  0.47927699631E+02  0.94557775810E+02  0.79657787225E+02 0.  0.
        -11    1    5    5    0    0 -0.57804709209E+01  0.19668410263E+02 -0.17157523847E+02  0.26732766989E+02  0.00000000000E+00 0.  1.
         12    1    5    5    0    0 -0.11014066651E+02 -0.15583191011E+02  0.65085223478E+02  0.67825008821E+02  0.00000000000E+00 0. -1.
         11    1    3    3    0    0  0.40793930288E+02 -0.85486134638E+02 -0.14411942036E+04  0.14443035542E+04  0.00000000000E+00 0. -1.
        -12    1    3    3    0    0 -0.94025336087E+01  0.30651643892E+01 -0.28496661163E+02  0.30163928266E+02  0.00000000000E+00 0.  1.
          5    1    4    4  501    0 -0.50037514899E+02  0.59701695217E+01 -0.29384398299E+03  0.29816296645E+03  0.41800000000E+01 0.  1.
         -5    1    4    4    0  501  0.35440655792E+02  0.72365581476E+02 -0.15817358688E+03  0.17756456136E+03  0.41800000000E+01 0.  1.
</event>
<event>
11    1  0.1078607E-008  0.1580947E+03  0.7561462E-02  0.1088883E+00
         22   -1    0    0    0    0  0.00000000000E+00  0.00000000000E+00  0.52714763870E+03  0.52714763870E+03  0.00000000000E+00 0.  1.
         22   -1    0    0    0    0 -0.00000000000E+00 -0.00000000000E+00 -0.10429332107E+04  0.10429332107E+04  0.00000000000E+00 0.  1.
        -24    2    1    2    0    0  0.61082574041E+02 -0.32809492675E+02 -0.95909396492E+03  0.96497790232E+03  0.80706720651E+02 0.  0.
         25    2    1    2    0    0 -0.13056063381E+03 -0.30022748829E+02  0.45887159364E+02  0.18895010714E+03  0.12509623114E+03 0.  0.
         24    2    1    2    0    0  0.69478059772E+02  0.62832241505E+02  0.39742123350E+03  0.41615283998E+03  0.80401853365E+02 0.  0.
        -13    1    5    5    0    0  0.60776073229E+02  0.37310196710E+02  0.37305377474E+03  0.37980903189E+03  0.00000000000E+00 0.  1.
         14    1    5    5    0    0  0.87019865430E+01  0.25522044794E+02  0.24367458763E+02  0.36343808095E+02  0.00000000000E+00 0. -1.
         13    1    3    3    0    0 -0.14085966377E+02  0.11971843855E+02 -0.13722542060E+03  0.13846499757E+03  0.00000000000E+00 0. -1.
        -14    1    3    3    0    0  0.75168540418E+02 -0.44781336530E+02 -0.82186854432E+03  0.82651290475E+03  0.00000000000E+00 0.  1.
          5    1    4    4  501    0 -0.63313175705E+02 -0.62165364242E+02  0.67122266665E+02  0.11133715378E+03  0.41800000000E+01 0.  1.
         -5    1    4    4    0  501 -0.67247458108E+02  0.32142615413E+02 -0.21235107301E+02  0.77612953363E+02  0.41800000000E+01 0.  1.
</event>
<event>
11    1  0.1078607E-008  0.1326844E+03  0.7561462E-02  0.1116014E+00
         22   -1    0    0    0    0  0.00000000000E+00  0.00000000000E+00  0.19841801544E+03  0.19841801544E+03  0.00000000000E+00 0. -1.
         22   -1    0    0    0    0 -0.00000000000E+00 -0.00000000000E+00 -0.46653849447E+03  0.46653849447E+03  0.00000000000E+00 0.  1.
         24    2    1    2    0    0  0.17897246036E+02  0.13749562340E+02 -0.37660985268E+03  0.38574091954E+03  0.80322562160E+02 0.  0.
         25    2    1    2    0    0 -0.47551182243E+02 -0.40319691661E+02  0.26742467806E+01  0.13978991599E+03  0.12508907446E+03 0.  0.
        -24    2    1    2    0    0  0.29653936208E+02  0.26570129321E+02  0.10581512688E+03  0.13942567438E+03  0.81592584809E+02 0.  0.
        -11    1    3    3    0    0  0.46433514360E+02  0.11147273236E+02 -0.30318830687E+03  0.30692585811E+03  0.00000000000E+00 0.  1.
         12    1    3    3    0    0 -0.28536268324E+02  0.26022891046E+01 -0.73421545809E+02  0.78815061425E+02  0.00000000000E+00 0. -1.
         11    1    5    5    0    0  0.28584071290E+01  0.53040702329E+02  0.62701682829E+02  0.82176563718E+02  0.00000000000E+00 0. -1.
        -12    1    5    5    0    0  0.26795529079E+02 -0.26470573009E+02  0.43113444048E+02  0.57249110663E+02  0.00000000000E+00 0.  1.
          5    1    4    4  501    0 -0.47618097245E+02  0.38089217371E+02  0.40835228059E+01  0.61256993263E+02  0.41800000000E+01 0.  1.
         -5    1    4    4    0  501  0.66915001942E-01 -0.78408909032E+02 -0.14092760253E+01  0.78532922728E+02  0.41800000000E+01 0.  1.
</event>
<event>
11    1  0.1078607E-008  0.1325252E+03  0.7561462E-02  0.1116205E+00
         22   -1    0    0    0    0  0.00000000000E+00  0.00000000000E+00  0.69999051294E+03  0.69999051294E+03  0.00000000000E+00 0.  1.
         22   -1    0    0    0    0 -0.00000000000E+00 -0.00000000000E+00 -0.15903461140E+03  0.15903461140E+03  0.00000000000E+00 0.  1.
         24    2    1    2    0    0  0.12889906667E+01  0.41944072019E+02 -0.90718209916E+02  0.12526900301E+03  0.75508693734E+02 0.  0.
         25    2    1    2    0    0 -0.80567240538E+01 -0.53488945441E+02  0.48028757488E+02  0.14450105572E+03  0.12509122859E+03 0.  0.
        -24    2    1    2    0    0  0.67677333870E+01  0.11544873422E+02  0.58364535396E+03  0.58925506562E+03  0.80003417667E+02 0.  0.
        -11    1    3    3    0    0  0.22952640317E+02  0.31117214471E+02 -0.85427247947E+01  0.39599026262E+02  0.00000000000E+00 0.  1.
         12    1    3    3    0    0 -0.21663649650E+02  0.10826857548E+02 -0.82175485122E+02  0.85669976745E+02  0.00000000000E+00 0. -1.
         11    1    5    5    0    0 -0.93559851841E+01  0.30355215717E+02  0.98874322293E+02  0.10385136103E+03  0.00000000000E+00 0. -1.
        -12    1    5    5    0    0  0.16123718571E+02 -0.18810342295E+02  0.48477103167E+03  0.48540370458E+03  0.00000000000E+00 0.  1.
          5    1    4    4  501    0 -0.45185835069E+02 -0.38832251042E+02  0.75200577646E+02  0.96032820901E+02  0.41800000000E+01 0.  1.
         -5    1    4    4    0  501  0.37129111015E+02 -0.14656694398E+02 -0.27171820158E+02  0.48468234816E+02  0.41800000000E+01 0.  1.
</event>
<event>
11    1  0.1078607E-008  0.1891511E+03  0.7561462E-02  0.1062472E+00
         22   -1    0    0    0    0  0.00000000000E+00  0.00000000000E+00  0.11893468345E+03  0.11893468345E+03  0.00000000000E+00 0. -1.
         22   -1    0    0    0    0 -0.00000000000E+00 -0.00000000000E+00 -0.21779105451E+04  0.21779105451E+04  0.00000000000E+00 0. -1.
         24    2    1    2    0    0  0.23208245819E+01  0.27467201078E+02 -0.15205500634E+04  0.15230361146E+04  0.82502591947E+02 0.  0.
         25    2    1    2    0    0 -0.54098370248E+02  0.10723733839E+03 -0.57894055872E+03  0.60435644528E+03  0.12509221406E+03 0.  0.
        -24    2    1    2    0    0  0.51777545666E+02 -0.13470453946E+03  0.40514760459E+02  0.16945266870E+03  0.79035017086E+02 0.  0.
        -11    1    3    3    0    0  0.86116122499E+01  0.33914702726E+02 -0.24821980956E+03  0.25067397309E+03  0.00000000000E+00 0.  1.
         12    1    3    3    0    0 -0.62907876680E+01 -0.64475016487E+01 -0.12723302538E+04  0.12723621415E+04  0.00000000000E+00 0. -1.
         11    1    5    5    0    0  0.49824790384E+02 -0.30473966616E+02  0.26956158851E+02  0.64325787038E+02  0.00000000000E+00 0. -1.
        -12    1    5    5    0    0  0.19527552818E+01 -0.10423057285E+03  0.13558601608E+02  0.10512688166E+03  0.00000000000E+00 0.  1.
          5    1    4    4  501    0 -0.25778151079E+02 -0.76433386877E+01 -0.22058992696E+02  0.35028634831E+02  0.41800000000E+01 0.  1.
         -5    1    4    4    0  501 -0.28320219169E+02  0.11488067707E+03 -0.55688156602E+03  0.56932781045E+03  0.41800000000E+01 0.  1.
</event>
<event>
11    1  0.1093329E-008  0.1598460E+03  0.7561462E-02  0.1087222E+00
         22   -1    0    0    0    0  0.00000000000E+00  0.00000000000E+00  0.92452684151E+03  0.92452684151E+03  0.00000000000E+00 0.  1.
         22   -1    0    0    0    0 -0.00000000000E+00 -0.00000000000E+00 -0.11608150683E+04  0.11608150683E+04  0.00000000000E+00 0.  1.
         24    2    1    2    0    0 -0.27363387022E+02  0.78484200660E+02 -0.73246908472E+03  0.74156276182E+03  0.80596804827E+02 0.  0.
         25    2    1    2    0    0  0.63123272907E+02 -0.17034868880E+03 -0.38998205154E+03  0.44803583662E+03  0.12508751741E+03 0.  0.
        -24    2    1    2    0    0 -0.35759885885E+02  0.91864488138E+02  0.88616290945E+03  0.89574331139E+03  0.85752692030E+02 0.  0.
        -13    1    3    3    0    0 -0.50266779692E+02  0.64187542446E+02 -0.64184861942E+03  0.64700574958E+03  0.00000000000E+00 0.  1.
         14    1    3    3    0    0  0.22903392670E+02  0.14296658214E+02 -0.90620465301E+02  0.94557012237E+02  0.00000000000E+00 0. -1.
         13    1    5    5    0    0 -0.69441824676E+01  0.65489345641E+02  0.25480341801E+03  0.26317647671E+03  0.00000000000E+00 0. -1.
        -14    1    5    5    0    0 -0.28815703417E+02  0.26375142497E+02  0.63135949144E+03  0.63256683468E+03  0.00000000000E+00 0.  1.
          5    1    4    4  501    0  0.59921190020E+02 -0.92206018205E+02 -0.10360495183E+03  0.15114217561E+03  0.41800000000E+01 0.  1.
         -5    1    4    4    0  501  0.32020828866E+01 -0.78142670594E+02 -0.28637709971E+03  0.29689366100E+03  0.41800000000E+01 0.  1.
</event>
<event>
11    1  0.1078607E-008  0.1476988E+03  0.7561462E-02  0.1099254E+00
         22   -1    0    0    0    0  0.00000000000E+00  0.00000000000E+00  0.59943313842E+03  0.59943313842E+03  0.00000000000E+00 0.  1.
         22   -1    0    0    0    0 -0.00000000000E+00 -0.00000000000E+00 -0.17030418467E+04  0.17030418467E+04  0.00000000000E+00 0. -1.
        -24    2    1    2    0    0  0.19163594276E+02 -0.76870275268E+02 -0.16254702048E+04  0.16292147820E+04  0.76883916499E+02 0.  0.
         25    2    1    2    0    0 -0.35378923882E+02  0.46931068640E+02 -0.55576371411E+01  0.13831870735E+03  0.12508790514E+03 0.  0.
         24    2    1    2    0    0  0.16215329606E+02  0.29939206628E+02  0.52741913364E+03  0.53494149580E+03  0.82656931935E+02 0.  0.
        -11    1    5    5    0    0  0.49739012128E+02  0.19154406508E+02  0.35318418968E+03  0.35718333172E+03  0.00000000000E+00 0.  1.
         12    1    5    5    0    0 -0.33523682522E+02  0.10784800120E+02  0.17423494396E+03  0.17775816408E+03  0.00000000000E+00 0. -1.
         13    1    3    3    0    0  0.39490340776E+02 -0.70675800492E+02 -0.96078996018E+03  0.96419495091E+03  0.00000000000E+00 0. -1.
        -14    1    3    3    0    0 -0.20326746500E+02 -0.61944747761E+01 -0.66468024463E+03  0.66501983109E+03  0.00000000000E+00 0.  1.
          5    1    4    4  501    0  0.56903612079E+01  0.65431855725E+02  0.37600987675E+02  0.75795874745E+02  0.41800000000E+01 0.  1.
         -5    1    4    4    0  501 -0.41069285090E+02 -0.18500787084E+02 -0.43158624816E+02  0.62522832602E+02  0.41800000000E+01 0.  1.
</event>
<event>
11    1  0.1078607E-008  0.1653643E+03  0.7561462E-02  0.1082138E+00
         22   -1    0    0    0    0  0.00000000000E+00  0.00000000000E+00  0.12905325023E+04  0.12905325023E+04  0.00000000000E+00 0. -1.
         22   -1    0    0    0    0 -0.00000000000E+00 -0.00000000000E+00 -0.19940618070E+03  0.19940618070E+03  0.00000000000E+00 0. -1.
         24    2    1    2    0    0 -0.19000619446E+02  0.10430385479E+03 -0.15295048795E+03  0.20247824422E+03  0.79770106909E+02 0.  0.
         25    2    1    2    0    0  0.64837931538E+02 -0.15075840427E+03  0.58571187919E+03  0.62099769303E+03  0.12509066912E+03 0.  0.
        -24    2    1    2    0    0 -0.45837312093E+02  0.46454549478E+02  0.65836493041E+03  0.66646274579E+03  0.80430874622E+02 0.  0.
        -11    1    3    3    0    0  0.20688397893E+01  0.50809161501E+02 -0.14986493687E+02  0.53013639599E+02  0.00000000000E+00 0.  1.
         12    1    3    3    0    0 -0.21069459235E+02  0.53494693291E+02 -0.13796399426E+03  0.14946460462E+03  0.00000000000E+00 0. -1.
         11    1    5    5    0    0 -0.41009435047E+02 -0.95538067414E+01  0.39042009014E+03  0.39268421890E+03  0.00000000000E+00 0. -1.
        -12    1    5    5    0    0 -0.48278770452E+01  0.56008356219E+02  0.26794484027E+03  0.27377852689E+03  0.00000000000E+00 0.  1.
          5    1    4    4  501    0 -0.36177601382E+02 -0.23773537874E+02  0.14302027958E+03  0.14948669745E+03  0.41800000000E+01 0. -1.
         -5    1    4    4    0  501  0.10101553292E+03 -0.12698486640E+03  0.44269159962E+03  0.47151099558E+03  0.41800000000E+01 0. -1.
</event>
<event>
11    1  0.1078607E-008  0.1329703E+03  0.7561462E-02  0.1115672E+00
         22   -1    0    0    0    0  0.00000000000E+00  0.00000000000E+00  0.19566233433E+04  0.19566233433E+04  0.00000000000E+00 0.  1.
         22   -1    0    0    0    0 -0.00000000000E+00 -0.00000000000E+00 -0.12362111903E+03  0.12362111903E+03  0.00000000000E+00 0.  1.
        -24    2    1    2    0    0  0.13321473592E+02  0.40293283471E+02 -0.50002998438E+02  0.10805425191E+03  0.85874391708E+02 0.  0.
         25    2    1    2    0    0 -0.55880336729E+02 -0.36047260336E+02  0.71764639602E+02  0.15880498202E+03  0.12508733672E+03 0.  0.
         24    2    1    2    0    0  0.42558863137E+02 -0.42460231347E+01  0.18112405831E+04  0.18133852284E+04  0.77098969873E+02 0.  0.
        -13    1    5    5    0    0  0.74993585283E+01 -0.16770818115E+02  0.14708531181E+04  0.14709678432E+04  0.00000000000E+00 0.  1.
         14    1    5    5    0    0  0.35059504609E+02  0.12524794980E+02  0.34038746505E+03  0.34241738524E+03  0.00000000000E+00 0. -1.
         11    1    3    3    0    0 -0.24196538210E+02 -0.20186701605E+01  0.94015001463E+01  0.26037198305E+02  0.00000000000E+00 0. -1.
        -12    1    3    3    0    0  0.37518011802E+02  0.42311953631E+02 -0.59404498585E+02  0.82017053603E+02  0.00000000000E+00 0.  1.
          5    1    4    4  501    0 -0.44997554634E+02  0.31360263763E+02  0.71734641404E+02  0.90396776733E+02  0.41800000000E+01 0. -1.
         -5    1    4    4    0  501 -0.10882782095E+02 -0.67407524099E+02  0.29998198147E-01  0.68408205291E+02  0.41800000000E+01 0. -1.
</event>
<event>
11    1  0.1078607E-008  0.1419657E+03  0.7561462E-02  0.1105383E+00
         22   -1    0    0    0    0  0.00000000000E+00  0.00000000000E+00  0.29206301799E+03  0.29206301799E+03  0.00000000000E+00 0.  1.
         22   -1    0    0    0    0 -0.00000000000E+00 -0.00000000000E+00 -0.19991951648E+04  0.19991951648E+04  0.00000000000E+00 0.  1.
         24    2    1    2    0    0  0.12439427009E+02 -0.31885930210E+02 -0.18351930508E+04  0.18372495042E+04  0.79879628790E+02 0.  0.
         25    2    1    2    0    0 -0.78761861681E+02  0.30330713734E+02 -0.11498459136E+03  0.18971544434E+03  0.12508841082E+03 0.  0.
        -24    2    1    2    0    0  0.66322434672E+02  0.15552164760E+01  0.24304549533E+03  0.26429323428E+03  0.79866869529E+02 0.  0.
        -13    1    3    3    0    0  0.70489026448E+01  0.24090628100E+02 -0.91194296281E+03  0.91228833863E+03  0.00000000000E+00 0.  1.
         14    1    3    3    0    0  0.53905243642E+01 -0.55976558310E+02 -0.92325008796E+03  0.92496116554E+03  0.00000000000E+00 0. -1.
         13    1    5    5    0    0  0.42734509286E+02 -0.28553825621E+02  0.68678505748E+02  0.85780512900E+02  0.00000000000E+00 0. -1.
        -14    1    5    5    0    0  0.23587925386E+02  0.30109042097E+02  0.17436698958E+03  0.17851272138E+03  0.00000000000E+00 0.  1.
          5    1    4    4  501    0  0.10817312506E+02 -0.36844543662E+02 -0.25027800460E+02  0.46026056136E+02  0.41800000000E+01 0. -1.
         -5    1    4    4    0  501 -0.89579174187E+02  0.67175257397E+02 -0.89956790902E+02  0.14368938821E+03  0.41800000000E+01 0. -1.
</event>
<event>
11    1  0.1078607E-008  0.1727472E+03  0.7561462E-02  0.1075665E+00
         22   -1    0    0    0    0  0.00000000000E+00  0.00000000000E+00  0.11798481054E+03  0.11798481054E+03  0.00000000000E+00 0. -1.
         22   -1    0    0    0    0 -0.00000000000E+00 -0.00000000000E+00 -0.11750459498E+04  0.11750459498E+04  0.00000000000E+00 0. -1.
         24    2    1    2    0    0 -0.35989514032E+02  0.33244751332E+02 -0.68092572338E+03  0.68742473454E+03  0.80575841887E+02 0.  0.
         25    2    1    2    0    0  0.86732628492E+02  0.76235337974E+02 -0.42088639205E+03  0.45401195261E+03  0.12508845871E+03 0.  0.
        -24    2    1    2    0    0 -0.50743114460E+02 -0.10948008931E+03  0.44750976129E+02  0.15159407322E+03  0.80108423726E+02 0.  0.
        -11    1    3    3    0    0 -0.10492884475E+02  0.40367506062E+02 -0.14590524237E+03  0.15174971473E+03  0.00000000000E+00 0.  1.
         12    1    3    3    0    0 -0.25496629557E+02 -0.71227547306E+01 -0.53502048101E+03  0.53567501981E+03  0.00000000000E+00 0. -1.
         11    1    5    5    0    0 -0.45010681344E+02 -0.12077164620E+03  0.49506086518E+02  0.13806739139E+03  0.00000000000E+00 0. -1.
        -12    1    5    5    0    0 -0.57324331157E+01  0.11291556899E+02 -0.47551103891E+01  0.13526681834E+02  0.00000000000E+00 0.  1.
          5    1    4    4  501    0  0.10076564602E+03  0.47763173386E+02 -0.40119354341E+03  0.41642378393E+03  0.41800000000E+01 0.  1.
         -5    1    4    4    0  501 -0.14033017525E+02  0.28472164588E+02 -0.19692848634E+02  0.37588168677E+02  0.41800000000E+01 0.  1.
</event>
<event>
11    1  0.1078607E-008  0.1284459E+03  0.7561462E-02  0.1121193E+00
         22   -1    0    0    0    0  0.00000000000E+00  0.00000000000E+00  0.42817103115E+03  0.42817103115E+03  0.00000000000E+00 0. -1.
         22   -1    0    0    0    0 -0.00000000000E+00 -0.00000000000E+00 -0.16695349705E+04  0.16695349705E+04  0.00000000000E+00 0. -1.
         24    2    1    2    0    0  0.45232703589E+01 -0.34255775949E+02 -0.15726548310E+04  0.15747186497E+04  0.72812705541E+02 0.  0.
         25    2    1    2    0    0  0.24491754152E+02  0.37079971148E+02 -0.42516456063E+02  0.13939634042E+03  0.12509564502E+03 0.  0.
        -24    2    1    2    0    0 -0.29015024511E+02 -0.28241951983E+01  0.37380734763E+03  0.38359101161E+03  0.80995575909E+02 0.  0.
        -13    1    3    3    0    0 -0.13996317018E+02  0.19264263201E+02 -0.42288183558E+03  0.42355171537E+03  0.00000000000E+00 0.  1.
         14    1    3    3    0    0  0.18519587377E+02 -0.53520039151E+02 -0.11497729954E+04  0.11511669343E+04  0.00000000000E+00 0. -1.
         11    1    5    5    0    0 -0.40360639895E+02 -0.32843805179E+02  0.18968936499E+03  0.19669710720E+03  0.00000000000E+00 0. -1.
        -12    1    5    5    0    0  0.11345615384E+02  0.30019609981E+02  0.18411798264E+03  0.18689390441E+03  0.00000000000E+00 0.  1.
          5    1    4    4  501    0 -0.50308494091E+02  0.70880959264E+01 -0.25184382798E+02  0.56858695188E+02  0.41800000000E+01 0.  1.
         -5    1    4    4    0  501  0.74800248243E+02  0.29991875221E+02 -0.17332073265E+02  0.82537645230E+02  0.41800000000E+01 0.  1.
</event>
<event>
11    1  0.1078607E-008  0.1341140E+03  0.7561462E-02  0.1114315E+00
         22   -1    0    0    0    0  0.00000000000E+00  0.00000000000E+00  0.30075904769E+03  0.30075904769E+03  0.00000000000E+00 0.  1.
         22   -1    0    0    0    0 -0.00000000000E+00 -0.00000000000E+00 -0.22221700617E+03  0.22221700617E+03  0.00000000000E+00 0.  1.
        -24    2    1    2    0    0 -0.39290224133E+02  0.25972583949E+02 -0.16298142066E+03  0.19245558514E+03  0.90873053994E+02 0.  0.
         25    2    1    2    0    0  0.48164785960E+02 -0.44286870779E+02  0.16468230681E+03  0.21690862908E+03  0.12509163706E+03 0.  0.
         24    2    1    2    0    0 -0.88745618267E+01  0.18314286830E+02  0.76841155370E+02  0.11361183963E+03  0.81172138058E+02 0.  0.
        -11    1    5    5    0    0 -0.17054693910E+02  0.40426000275E+02  0.13315341196E+02  0.45852179815E+02  0.00000000000E+00 0.  1.
         12    1    5    5    0    0  0.81801320834E+01 -0.22111713446E+02  0.63525814174E+02  0.67759659820E+02  0.00000000000E+00 0. -1.
         11    1    3    3    0    0 -0.83312098151E+01 -0.16509441948E+02 -0.12796531123E+03  0.12929459234E+03  0.00000000000E+00 0. -1.
        -12    1    3    3    0    0 -0.30959014318E+02  0.42482025898E+02 -0.35016109430E+02  0.63160992801E+02  0.00000000000E+00 0.  1.
          5    1    4    4  501    0  0.48261596831E+02  0.36125382145E+02  0.76635129654E+02  0.97594264488E+02  0.41800000000E+01 0. -1.
         -5    1    4    4    0  501 -0.96810871398E-01 -0.80412252924E+02  0.88047177160E+02  0.11931436459E+03  0.41800000000E+01 0. -1.
</event>
<event>
11    1  0.1078607E-008  0.1558144E+03  0.7561462E-02  0.1091081E+00
         22   -1    0    0    0    0  0.00000000000E+00  0.00000000000E+00  0.56271782452E+03  0.56271782452E+03  0.00000000000E+00 0.  1.
         22   -1    0    0    0    0 -0.00000000000E+00 -0.00000000000E+00 -0.94418077365E+02  0.94418077365E+02  0.00000000000E+00 0.  1.
        -24    2    1    2    0    0 -0.91268659304E+02  0.78219317567E+02  0.48423238404E+02  0.15083751810E+03  0.77194022031E+02 0.  0.
         25    2    1    2    0    0 -0.13841184598E+02 -0.68072794493E+02  0.16376690428E+03  0.21746699263E+03  0.12508721039E+03 0.  0.
         24    2    1    2    0    0  0.10510984390E+03 -0.10146523075E+02  0.25610960448E+03  0.28883139116E+03  0.81733786155E+02 0.  0.
        -11    1    5    5    0    0  0.10856203605E+03 -0.25274977251E+02  0.24662630590E+03  0.27064566301E+03  0.00000000000E+00 0.  1.
         12    1    5    5    0    0 -0.34521921457E+01  0.15128454176E+02  0.94832985746E+01  0.18185728146E+02  0.00000000000E+00 0. -1.
         13    1    3    3    0    0 -0.27997924047E+02  0.56817801219E+02 -0.74220415607E+01  0.63774861719E+02  0.00000000000E+00 0. -1.
        -14    1    3    3    0    0 -0.63270735257E+02  0.21401516349E+02  0.55845279964E+02  0.87062656382E+02  0.00000000000E+00 0.  1.
          5    1    4    4  501    0 -0.22328078891E+02 -0.65109978903E+02  0.18314667039E+03  0.19569881894E+03  0.41800000000E+01 0.  1.
         -5    1    4    4    0  501  0.84868942934E+01 -0.29628155898E+01 -0.19379766113E+02  0.21768173685E+02  0.41800000000E+01 0.  1.
</event>
<event>
11    1  0.1078607E-008  0.2168956E+03  0.7561462E-02  0.1043180E+00
         22   -1    0    0    0    0  0.00000000000E+00  0.00000000000E+00  0.46671119778E+03  0.46671119778E+03  0.00000000000E+00 0.  1.
         22   -1    0    0    0    0 -0.00000000000E+00 -0.00000000000E+00 -0.53628434077E+03  0.53628434077E+03  0.00000000000E+00 0. -1.
        -24    2    1    2    0    0  0.57350945170E+02 -0.19379009698E+03 -0.23142246181E+03  0.31757900869E+03  0.80351343054E+02 0.  0.
         25    2    1    2    0    0 -0.12372217547E+03  0.11078009360E+03 -0.20711124742E+03  0.29346704668E+03  0.12509369624E+03 0.  0.
         24    2    1    2    0    0  0.66371230302E+02  0.83010003378E+02  0.36896056624E+03  0.39194948317E+03  0.78719102132E+02 0.  0.
        -11    1    5    5    0    0  0.71120049375E+02  0.27352009085E+02  0.22346713526E+03  0.23610115283E+03  0.00000000000E+00 0.  1.
         12    1    5    5    0    0 -0.47488190729E+01  0.55657994293E+02  0.14549343098E+03  0.15584833034E+03  0.00000000000E+00 0. -1.
         11    1    3    3    0    0  0.51331092631E+02 -0.99380242284E+02 -0.74654943411E+02  0.13447927053E+03  0.00000000000E+00 0. -1.
        -12    1    3    3    0    0  0.60198525396E+01 -0.94409854697E+02 -0.15676751840E+03  0.18309973816E+03  0.00000000000E+00 0.  1.
          5    1    4    4  501    0 -0.93761224924E+01 -0.19716042461E+02 -0.66444565987E+02  0.70064161684E+02  0.41800000000E+01 0.  1.
         -5    1    4    4    0  501 -0.11434605298E+03  0.13049613606E+03 -0.14066668143E+03  0.22340288500E+03  0.41800000000E+01 0.  1.
</event>
<event>
11    1  0.1078607E-008  0.1304894E+03  0.7561462E-02  0.1118669E+00
         22   -1    0    0    0    0  0.00000000000E+00  0.00000000000E+00  0.22262361243E+03  0.22262361243E+03  0.00000000000E+00 0. -1.
         22   -1    0    0    0    0 -0.00000000000E+00 -0.00000000000E+00 -0.59230712195E+03  0.59230712195E+03  0.00000000000E+00 0.  1.
         24    2    1    2    0    0  0.97629520745E+01  0.36868406582E+02 -0.44327596556E+03  0.45577245513E+03  0.98895675206E+02 0.  0.
         25    2    1    2    0    0 -0.12078482381E+02 -0.30029378860E+02 -0.10332153478E+03  0.16544277681E+03  0.12509324329E+03 0.  0.
        -24    2    1    2    0    0  0.23155303064E+01 -0.68390277211E+01  0.17691399082E+03  0.19371550244E+03  0.78581179413E+02 0.  0.
        -13    1    3    3    0    0  0.24393415731E+02  0.34251564826E+02 -0.43798072941E+03  0.43999469060E+03  0.00000000000E+00 0.  1.
         14    1    3    3    0    0 -0.14630463657E+02  0.26168417557E+01 -0.52952361502E+01  0.15777764527E+02  0.00000000000E+00 0. -1.
         11    1    5    5    0    0 -0.25755463015E+02 -0.22257949810E+02  0.14329661650E+03  0.14728435255E+03  0.00000000000E+00 0. -1.
        -12    1    5    5    0    0  0.28070993321E+02  0.15418922089E+02  0.33617374321E+02  0.46431149896E+02  0.00000000000E+00 0.  1.
          5    1    4    4  501    0  0.50955663554E+02  0.13013706580E+02 -0.43351958197E+02  0.68283972400E+02  0.41800000000E+01 0.  1.
         -5    1    4    4    0  501 -0.63034145935E+02 -0.43043085441E+02 -0.59969576584E+02  0.97158804406E+02  0.41800000000E+01 0.  1.
</event>
<event>
11    1  0.1078607E-008  0.1335289E+03  0.7561462E-02  0.1115008E+00
         22   -1    0    0    0    0  0.00000000000E+00  0.00000000000E+00  0.13438576409E+04  0.13438576409E+04  0.00000000000E+00 0. -1.
         22   -1    0    0    0    0 -0.00000000000E+00 -0.00000000000E+00 -0.33574387157E+03  0.33574387157E+03  0.00000000000E+00 0.  1.
         24    2    1    2    0    0 -0.20482528171E+01  0.22617682969E+02 -0.27806769115E+03  0.29023291764E+03  0.79985940639E+02 0.  0.
         25    2    1    2    0    0  0.23080074779E+02 -0.63539211084E+02  0.51535767631E+02  0.15123785688E+03  0.12508810020E+03 0.  0.
        -24    2    1    2    0    0 -0.21031821962E+02  0.40921528115E+02  0.12346456928E+04  0.12381307379E+04  0.80627714681E+02 0.  0.
        -11    1    3    3    0    0  0.22166741192E+02  0.38005341993E+02 -0.23066740809E+03  0.23482594318E+03  0.00000000000E+00 0.  1.
         12    1    3    3    0    0 -0.24214994009E+02 -0.15387659024E+02 -0.47400283060E+02  0.55406974464E+02  0.00000000000E+00 0. -1.
         13    1    5    5    0    0 -0.51981012281E+02  0.26782464651E+02  0.82970031709E+03  0.83175834365E+03  0.00000000000E+00 0. -1.
        -14    1    5    5    0    0  0.30949190319E+02  0.14139063463E+02  0.40494537575E+03  0.40637239429E+03  0.00000000000E+00 0.  1.
          5    1    4    4  501    0 -0.17813676956E+02  0.28296451109E+02  0.36206195452E+02  0.49460865552E+02  0.41800000000E+01 0.  1.
         -5    1    4    4    0  501  0.40893751735E+02 -0.91835662192E+02  0.15329572180E+02  0.10177699133E+03  0.41800000000E+01 0.  1.
</event>
<event>
11    1  0.1078607E-008  0.2281669E+03  0.7561462E-02  0.1036219E+00
         22   -1    0    0    0    0  0.00000000000E+00  0.00000000000E+00  0.13116873323E+04  0.13116873323E+04  0.00000000000E+00 0.  1.
         22   -1    0    0    0    0 -0.00000000000E+00 -0.00000000000E+00 -0.42328553385E+03  0.42328553385E+03  0.00000000000E+00 0.  1.
         24    2    1    2    0    0  0.69569785714E+02 -0.25567715542E+02 -0.31359017095E+03  0.33273324237E+03  0.82939448410E+02 0.  0.
         25    2    1    2    0    0  0.46306827446E+02  0.17954673478E+03  0.47067117865E+02  0.22856937843E+03  0.12508914795E+03 0.  0.
        -24    2    1    2    0    0 -0.11587661316E+03 -0.15397901923E+03  0.11549248516E+04  0.11736702454E+04  0.80706283877E+02 0.  0.
        -13    1    3    3    0    0  0.55505723726E+02 -0.19283382838E+01 -0.79190090274E+02  0.96724734440E+02  0.00000000000E+00 0.  1.
         14    1    3    3    0    0  0.14064061988E+02 -0.23639377258E+02 -0.23440008068E+03  0.23600850793E+03  0.00000000000E+00 0. -1.
         11    1    5    5    0    0  0.39803623351E+00  0.16389508677E+01 -0.70410591453E+00  0.18276646106E+01  0.00000000000E+00 0. -1.
        -12    1    5    5    0    0 -0.11627464939E+03 -0.15561797010E+03  0.11556289575E+04  0.11718425808E+04  0.00000000000E+00 0.  1.
          5    1    4    4  501    0  0.73869752411E+02  0.17804446418E+03  0.53146764963E+02  0.19999655640E+03  0.41800000000E+01 0. -1.
         -5    1    4    4    0  501 -0.27562924965E+02  0.15022705922E+01 -0.60796470976E+01  0.28572822023E+02  0.41800000000E+01 0. -1.
</event>
<event>
11    1  0.1078607E-008  0.1269363E+03  0.7561462E-02  0.1123092E+00
         22   -1    0    0    0    0  0.00000000000E+00  0.00000000000E+00  0.54467405506E+03  0.54467405506E+03  0.00000000000E+00 0. -1.
         22   -1    0    0    0    0 -0.00000000000E+00 -0.00000000000E+00 -0.19388044047E+03  0.19388044047E+03  0.00000000000E+00 0.  1.
         24    2    1    2    0    0 -0.11537386415E+01  0.21694159349E+02 -0.15522074680E+03  0.17630162336E+03  0.80726789234E+02 0.  0.
         25    2    1    2    0    0  0.10574542368E+01 -0.19533399800E+02  0.14424426265E+03  0.19192564625E+03  0.12508546863E+03 0.  0.
        -24    2    1    2    0    0  0.96284404711E-01 -0.21607595488E+01  0.36177009874E+03  0.37032722592E+03  0.79119983351E+02 0.  0.
        -11    1    3    3    0    0  0.16504362851E+02  0.43340709244E+02 -0.13221408312E+03  0.14011200822E+03  0.00000000000E+00 0.  1.
         12    1    3    3    0    0 -0.17658101492E+02 -0.21646549895E+02 -0.23006663676E+02  0.36189615142E+02  0.00000000000E+00 0. -1.
         11    1    5    5    0    0  0.24217308476E+02 -0.52159872553E+00  0.32746002263E+03  0.32835471143E+03  0.00000000000E+00 0. -1.
        -12    1    5    5    0    0 -0.24121024072E+02 -0.16391608233E+01  0.34310076104E+02  0.41972514492E+02  0.00000000000E+00 0.  1.
          5    1    4    4  501    0  0.54637929220E+02  0.89689717730E+01  0.31559681273E+02  0.63868862885E+02  0.41800000000E+01 0.  1.
         -5    1    4    4    0  501 -0.53580474983E+02 -0.28502371573E+02  0.11268458138E+03  0.12805678337E+03  0.41800000000E+01 0.  1.
</event>
<event>
11    1  0.1078607E-008  0.1360001E+03  0.7561462E-02  0.1112109E+00
         22   -1    0    0    0    0  0.00000000000E+00  0.00000000000E+00  0.11251035383E+04  0.11251035383E+04  0.00000000000E+00 0. -1.
         22   -1    0    0    0    0 -0.00000000000E+00 -0.00000000000E+00 -0.49895008506E+02  0.49895008506E+02  0.00000000000E+00 0. -1.
        -24    2    1    2    0    0  0.58868726032E+02  0.33997947781E+01  0.57128924093E+02  0.12245293028E+03  0.90851090568E+02 0.  0.
         25    2    1    2    0    0 -0.30428077726E+02  0.47504017627E+02  0.33148757226E+03  0.35875243320E+03  0.12504718374E+03 0.  0.
         24    2    1    2    0    0 -0.28440648306E+02 -0.50903812405E+02  0.68659203344E+03  0.69379318332E+03  0.80872073328E+02 0.  0.
        -13    1    5    5    0    0 -0.95522299159E+01 -0.34956981233E+02  0.94879842531E+02  0.10156485687E+03  0.00000000000E+00 0.  1.
         14    1    5    5    0    0 -0.18888418390E+02 -0.15946831172E+02  0.59171219091E+03  0.59222832644E+03  0.00000000000E+00 0. -1.
         11    1    3    3    0    0  0.15805731404E+02  0.18814014504E+02 -0.20733203910E+02  0.32150490375E+02  0.00000000000E+00 0. -1.
        -12    1    3    3    0    0  0.43062994628E+02 -0.15414219726E+02  0.77862128002E+02  0.90302439907E+02  0.00000000000E+00 0.  1.
          5    1    4    4  501    0  0.20658939222E+02  0.67550439221E+02  0.25423396453E+03  0.26389815219E+03  0.41800000000E+01 0.  1.
         -5    1    4    4    0  501 -0.51087016948E+02 -0.20046421594E+02  0.77253607731E+02  0.94854281015E+02  0.41800000000E+01 0.  1.
</event>
<event>
11    1  0.1078607E-008  0.1360031E+03  0.7561462E-02  0.1112105E+00
         22   -1    0    0    0    0  0.00000000000E+00  0.00000000000E+00  0.20715724838E+03  0.20715724838E+03  0.00000000000E+00 0.  1.
         22   -1    0    0    0    0 -0.00000000000E+00 -0.00000000000E+00 -0.31455057498E+04  0.31455057498E+04  0.00000000000E+00 0.  1.
        -24    2    1    2    0    0 -0.49320781802E+02  0.20215972583E+02 -0.29891032971E+04  0.29906058227E+04  0.78380103788E+02 0.  0.
         25    2    1    2    0    0  0.65202171996E+02  0.99994843034E+01 -0.10938978721E+03  0.17878822640E+03  0.12509113252E+03 0.  0.
         24    2    1    2    0    0 -0.15881390194E+02 -0.30215456886E+02  0.16014458288E+03  0.18326894914E+03  0.82316632013E+02 0.  0.
        -11    1    5    5    0    0  0.77743642334E+01 -0.52087426469E+02  0.12472938930E+03  0.13539188045E+03  0.00000000000E+00 0.  1.
         12    1    5    5    0    0 -0.23655754428E+02  0.21871969583E+02  0.35415193573E+02  0.47877068695E+02  0.00000000000E+00 0. -1.
         13    1    3    3    0    0 -0.10898264840E+02 -0.28832325610E+02 -0.74416851280E+03  0.74480658605E+03  0.00000000000E+00 0. -1.
        -14    1    3    3    0    0 -0.38422516962E+02  0.49048298193E+02 -0.22449347843E+04  0.22457992366E+04  0.00000000000E+00 0.  1.
          5    1    4    4  501    0  0.21950826236E+02  0.66426748737E+02 -0.57852614068E+02  0.90877659932E+02  0.41800000000E+01 0.  1.
         -5    1    4    4    0  501  0.43251345760E+02 -0.56427264434E+02 -0.51537173140E+02  0.87910566469E+02  0.41800000000E+01 0.  1.
</event>
<event>
11    1  0.1078607E-008  0.1401669E+03  0.7561462E-02  0.1107372E+00
         22   -1    0    0    0    0  0.00000000000E+00  0.00000000000E+00  0.31879094674E+03  0.31879094674E+03  0.00000000000E+00 0. -1.
         22   -1    0    0    0    0 -0.00000000000E+00 -0.00000000000E+00 -0.37096664405E+03  0.37096664405E+03  0.00000000000E+00 0. -1.
        -24    2    1    2    0    0 -0.27478785024E+02 -0.28157127449E+02 -0.16999848886E+03  0.19280221362E+03  0.82007925896E+02 0.  0.
         25    2    1    2    0    0  0.60829082972E+02  0.79514220619E+02 -0.14401063113E+03  0.21542771611E+03  0.12508936954E+03 0.  0.
         24    2    1    2    0    0 -0.33350297947E+02 -0.51357093170E+02  0.26183342267E+03  0.28152766106E+03  0.83374392490E+02 0.  0.
        -13    1    5    5    0    0 -0.25846461822E+02 -0.19822477057E+02  0.21523564294E+02  0.39041439591E+02  0.00000000000E+00 0.  1.
         14    1    5    5    0    0 -0.75038361255E+01 -0.31534616113E+02  0.24030985838E+03  0.24248622147E+03  0.00000000000E+00 0. -1.
         13    1    3    3    0    0 -0.16702211354E+02 -0.57389888163E+02 -0.11409552500E+03  0.12880354014E+03  0.00000000000E+00 0. -1.
        -14    1    3    3    0    0 -0.10776573670E+02  0.29232760714E+02 -0.55902963860E+02  0.63998673481E+02  0.00000000000E+00 0.  1.
          5    1    4    4  501    0 -0.34219151870E+02  0.17657555893E+01 -0.16180296290E+02  0.38122731218E+02  0.41800000000E+01 0.  1.
         -5    1    4    4    0  501  0.95048234842E+02  0.77748465030E+02 -0.12783033484E+03  0.17730498489E+03  0.41800000000E+01 0.  1.
</event>
<event>
11    1  0.1078607E-008  0.1758339E+03  0.7561462E-02  0.1073063E+00
         22   -1    0    0    0    0  0.00000000000E+00  0.00000000000E+00  0.50587318613E+03  0.50587318613E+03  0.00000000000E+00 0.  1.
         22   -1    0    0    0    0 -0.00000000000E+00 -0.00000000000E+00 -0.43203413461E+04  0.43203413461E+04  0.00000000000E+00 0.  1.
        -24    2    1    2    0    0 -0.63724819665E+02 -0.10621588596E+03 -0.41642675862E+04  0.41668849755E+04  0.80394041028E+02 0.  0.
         25    2    1    2    0    0  0.11574804983E+03  0.60197067989E+02 -0.93333837717E+02  0.20341544319E+03  0.12508133048E+03 0.  0.
         24    2    1    2    0    0 -0.52023230161E+02  0.46018817966E+02  0.44313326402E+03  0.45591411355E+03  0.81648277210E+02 0.  0.
        -13    1    5    5    0    0 -0.55006846221E+02  0.39608366971E+02  0.17471982982E+03  0.18740756334E+03  0.00000000000E+00 0.  1.
         14    1    5    5    0    0  0.29836160600E+01  0.64104509950E+01  0.26841343420E+03  0.26850655021E+03  0.00000000000E+00 0. -1.
         13    1    3    3    0    0  0.54156283999E+01  0.36196609707E+01 -0.91917978754E+03  0.91920286814E+03  0.00000000000E+00 0. -1.
        -14    1    3    3    0    0 -0.69140448065E+02 -0.10983554693E+03 -0.32450877987E+04  0.32476821073E+04  0.00000000000E+00 0.  1.
          5    1    4    4  501    0  0.22894372787E+01 -0.20638323065E+02  0.15778225771E+02  0.26412245464E+02  0.41800000000E+01 0.  1.
         -5    1    4    4    0  501  0.11345861255E+03  0.80835391054E+02 -0.10911206349E+03  0.17700319773E+03  0.41800000000E+01 0.  1.
</event>
<event>
11    1  0.1078607E-008  0.1397820E+03  0.7561462E-02  0.1107802E+00
         22   -1    0    0    0    0  0.00000000000E+00  0.00000000000E+00  0.11827928400E+04  0.11827928400E+04  0.00000000000E+00 0. -1.
         22   -1    0    0    0    0 -0.00000000000E+00 -0.00000000000E+00 -0.44470750069E+03  0.44470750069E+03  0.00000000000E+00 0.  1.
         24    2    1    2    0    0  0.34590362832E+02 -0.51172117680E+02 -0.41645179267E+03  0.42894465541E+03  0.82136124541E+02 0.  0.
         25    2    1    2    0    0 -0.67225228471E+02  0.66294453868E+02  0.28833660264E+03  0.32817680158E+03  0.12509128953E+03 0.  0.
        -24    2    1    2    0    0  0.32634865640E+02 -0.15122336188E+02  0.86620052931E+03  0.87037888367E+03  0.77216090686E+02 0.  0.
        -13    1    3    3    0    0  0.87828675086E+01 -0.11726439009E+02 -0.33123931808E+03  0.33156316740E+03  0.00000000000E+00 0.  1.
         14    1    3    3    0    0  0.25807495323E+02 -0.39445678671E+02 -0.85212474587E+02  0.97381488004E+02  0.00000000000E+00 0. -1.
         13    1    5    5    0    0  0.10404304942E+02 -0.20925754640E+02  0.79932764171E+03  0.79966919133E+03  0.00000000000E+00 0. -1.
        -14    1    5    5    0    0  0.22230560698E+02  0.58034184520E+01  0.66872887602E+02  0.70709692340E+02  0.00000000000E+00 0.  1.
          5    1    4    4  501    0  0.29357619285E+02  0.35699873397E+02  0.14754460300E+03  0.15467137112E+03  0.41800000000E+01 0. -1.
         -5    1    4    4    0  501 -0.96582847756E+02  0.30594580471E+02  0.14079199964E+03  0.17350543045E+03  0.41800000000E+01 0. -1.
</event>
<event>
11    1  0.1078607E-008  0.3430603E+03  0.7561462E-02  0.9834526E-01
         22   -1    0    0    0    0  0.00000000000E+00  0.00000000000E+00  0.34803877194E+03  0.34803877194E+03  0.00000000000E+00 0.  1.
         22   -1    0    0    0    0 -0.00000000000E+00 -0.00000000000E+00 -0.48177823161E+03  0.48177823161E+03  0.00000000000E+00 0.  1.
         24    2    1    2    0    0  0.33622761995E+02  0.61397064100E+02 -0.10976509640E+03  0.15254781205E+03  0.79513325735E+02 0.  0.
         25    2    1    2    0    0 -0.10598105263E+03  0.27815678726E+03  0.70797504213E+00  0.32286119202E+03  0.12504265779E+03 0.  0.
        -24    2    1    2    0    0  0.72358290632E+02 -0.33955385136E+03 -0.24682338310E+02  0.35440799948E+03  0.66807724659E+02 0.  0.
        -11    1    3    3    0    0  0.36924462483E+02  0.39722723587E+02 -0.11740849387E+03  0.12932928954E+03  0.00000000000E+00 0.  1.
         12    1    3    3    0    0 -0.33017004879E+01  0.21674340514E+02  0.76433974718E+01  0.23218522514E+02  0.00000000000E+00 0. -1.
         11    1    5    5    0    0  0.51835289899E+02 -0.98302970031E+02 -0.10729867696E+01  0.11113740368E+03  0.00000000000E+00 0. -1.
        -12    1    5    5    0    0  0.20523000732E+02 -0.24125088133E+03 -0.23609351541E+02  0.24327059580E+03  0.00000000000E+00 0.  1.
          5    1    4    4  501    0 -0.36985721218E+01  0.15052999512E+03  0.37360224694E+02  0.15519735067E+03  0.41800000000E+01 0. -1.
         -5    1    4    4    0  501 -0.10228248050E+03  0.12762679214E+03 -0.36652249652E+02  0.16766384135E+03  0.41800000000E+01 0. -1.
</event>
<event>
11    1  0.1078607E-008  0.2420766E+03  0.7561462E-02  0.1028207E+00
         22   -1    0    0    0    0  0.00000000000E+00  0.00000000000E+00  0.21726189036E+03  0.21726189036E+03  0.00000000000E+00 0. -1.
         22   -1    0    0    0    0 -0.00000000000E+00 -0.00000000000E+00 -0.92985093322E+03  0.92985093322E+03  0.00000000000E+00 0.  1.
         24    2    1    2    0    0 -0.10354888119E+03 -0.44388617419E+02 -0.46717095617E+03  0.48654417659E+03  0.76051386105E+02 0.  0.
         25    2    1    2    0    0 -0.68827996777E+02  0.17479380723E+03 -0.34132357914E+03  0.40919351528E+03  0.12508948433E+03 0.  0.
        -24    2    1    2    0    0  0.17237687797E+03 -0.13040518981E+03  0.95905492452E+02  0.25137513171E+03  0.85277733165E+02 0.  0.
        -13    1    3    3    0    0 -0.67022153922E+02 -0.23941980899E+02 -0.14351888921E+03  0.16019631434E+03  0.00000000000E+00 0.  1.
         14    1    3    3    0    0 -0.36526727269E+02 -0.20446636521E+02 -0.32365206696E+03  0.32634786225E+03  0.00000000000E+00 0. -1.
         13    1    5    5    0    0  0.11775889441E+03 -0.13304827848E+03  0.73813302896E+02  0.19239907823E+03  0.00000000000E+00 0. -1.
        -14    1    5    5    0    0  0.54617983553E+02  0.26430886646E+01  0.22092189556E+02  0.58976053483E+02  0.00000000000E+00 0.  1.
          5    1    4    4  501    0 -0.41478357128E+02  0.30329084243E+02 -0.19087438838E+02  0.54973722654E+02  0.41800000000E+01 0.  1.
         -5    1    4    4    0  501 -0.27349639648E+02  0.14446472299E+03 -0.32223614030E+03  0.35421979263E+03  0.41800000000E+01 0.  1.
</event>
<event>
11    1  0.1805307E-008  0.1923833E+03  0.7561462E-02  0.1060044E+00
         22   -1    0    0    0    0  0.00000000000E+00  0.00000000000E+00  0.15196902900E+04  0.15196902900E+04  0.00000000000E+00 0. -1.
         22   -1    0    0    0    0 -0.00000000000E+00 -0.00000000000E+00 -0.42615303254E+03  0.42615303254E+03  0.00000000000E+00 0.  1.
        -24    2    1    2    0    0 -0.60838961221E+02  0.20021632502E+02 -0.28747887827E+03  0.30668959219E+03  0.85511142736E+02 0.  0.
         25    2    1    2    0    0  0.20146693800E+03 -0.49961762086E+02 -0.60561779079E+01  0.24242478170E+03  0.12509193703E+03 0.  0.
         24    2    1    2    0    0 -0.14062797678E+03  0.29940129583E+02  0.13870723137E+04  0.13967289487E+04  0.78800466498E+02 0.  0.
        -11    1    5    5    0    0 -0.13320477578E+03  0.30880302494E+02  0.97007829806E+03  0.97966780581E+03  0.00000000000E+00 0.  1.
         12    1    5    5    0    0 -0.74232009975E+01 -0.94017291021E+00  0.41699401562E+03  0.41706114288E+03  0.00000000000E+00 0. -1.
         11    1    3    3    0    0 -0.81758959163E+02  0.20380958276E+02 -0.24928104361E+03  0.26313675070E+03  0.00000000000E+00 0. -1.
        -12    1    3    3    0    0  0.20919997943E+02 -0.35932577373E+00 -0.38197834663E+02  0.43552841490E+02  0.00000000000E+00 0.  1.
          5    1    4    4  501    0  0.26835750262E+02 -0.55934761428E+02 -0.24155342153E+02  0.66706881075E+02  0.41800000000E+01 0. -1.
         -5    1    4    4    0  501  0.17463118774E+03  0.59729993426E+01  0.18099164245E+02  0.17571790062E+03  0.41800000000E+01 0. -1.
</event>
<event>
11    1  0.1078607E-008  0.1567271E+03  0.7561462E-02  0.1090197E+00
         22   -1    0    0    0    0  0.00000000000E+00  0.00000000000E+00  0.20937671830E+03  0.20937671830E+03  0.00000000000E+00 0. -1.
         22   -1    0    0    0    0 -0.00000000000E+00 -0.00000000000E+00 -0.85231881169E+03  0.85231881169E+03  0.00000000000E+00 0. -1.
        -24    2    1    2    0    0  0.10337247304E+02 -0.63212986486E+02 -0.61739891143E+03  0.62422319721E+03  0.66109331786E+02 0.  0.
         25    2    1    2    0    0  0.83680213687E+02  0.40762302352E+02 -0.17984535464E+03  0.23802442191E+03  0.12508928966E+03 0.  0.
         24    2    1    2    0    0 -0.94017460990E+02  0.22450684133E+02  0.15430217267E+03  0.19944791087E+03  0.81406341707E+02 0.  0.
        -11    1    5    5    0    0 -0.15477981948E+02  0.15214326399E+02 -0.44749196023E+01  0.22160066751E+02  0.00000000000E+00 0.  1.
         12    1    5    5    0    0 -0.78539479042E+02  0.72363577347E+01  0.15877709227E+03  0.17728784412E+03  0.00000000000E+00 0. -1.
         11    1    3    3    0    0 -0.25100747249E+02 -0.78370152548E+01 -0.18048430276E+03  0.18238982938E+03  0.00000000000E+00 0. -1.
        -12    1    3    3    0    0  0.35437994552E+02 -0.55375971231E+02 -0.43691460868E+03  0.44183336782E+03  0.00000000000E+00 0.  1.
          5    1    4    4  501    0  0.30580848752E+02 -0.41094613116E+02 -0.31061746611E+02  0.60052144342E+02  0.41800000000E+01 0. -1.
         -5    1    4    4    0  501  0.53099364935E+02  0.81856915469E+02 -0.14878360803E+03  0.17797227757E+03  0.41800000000E+01 0. -1.
</event>
<event>
11    1  0.1078607E-008  0.1492976E+03  0.7561462E-02  0.1097599E+00
         22   -1    0    0    0    0  0.00000000000E+00  0.00000000000E+00  0.10843957044E+03  0.10843957044E+03  0.00000000000E+00 0.  1.
         22   -1    0    0    0    0 -0.00000000000E+00 -0.00000000000E+00 -0.59216625010E+03  0.59216625010E+03  0.00000000000E+00 0.  1.
         24    2    1    2    0    0  0.65548860425E+01  0.83995218590E+02 -0.42246812270E+03  0.43821320223E+03  0.80332637379E+02 0.  0.
         25    2    1    2    0    0  0.47397256992E+02 -0.65779866067E+02 -0.62721925804E+02  0.16172514603E+03  0.12508993617E+03 0.  0.
        -24    2    1    2    0    0 -0.53952143035E+02 -0.18215352524E+02  0.14633688464E+01  0.10066747228E+03  0.83000998313E+02 0.  0.
        -11    1    3    3    0    0  0.10241614142E+02  0.91963496333E+02 -0.41844799141E+03  0.42855676034E+03  0.00000000000E+00 0.  1.
         12    1    3    3    0    0 -0.36867281000E+01 -0.79682777422E+01 -0.40201312899E+01  0.96564418834E+01  0.00000000000E+00 0. -1.
         11    1    5    5    0    0 -0.95199098750E-01 -0.12013400189E+02 -0.33882875149E+02  0.35949688112E+02  0.00000000000E+00 0. -1.
        -12    1    5    5    0    0 -0.53856943936E+02 -0.62019523345E+01  0.35346243995E+02  0.64717784167E+02  0.00000000000E+00 0.  1.
          5    1    4    4  501    0  0.63568807281E+02 -0.30424315322E+02 -0.89751130405E+02  0.11419006100E+03  0.41800000000E+01 0. -1.
         -5    1    4    4    0  501 -0.16171550289E+02 -0.35355550745E+02  0.27029204601E+02  0.47535085027E+02  0.41800000000E+01 0. -1.
</event>
<event>
11    1  0.1078607E-008  0.1409691E+03  0.7561462E-02  0.1106481E+00
         22   -1    0    0    0    0  0.00000000000E+00  0.00000000000E+00  0.10327837006E+03  0.10327837006E+03  0.00000000000E+00 0.  1.
         22   -1    0    0    0    0 -0.00000000000E+00 -0.00000000000E+00 -0.56382948493E+03  0.56382948493E+03  0.00000000000E+00 0. -1.
        -24    2    1    2    0    0 -0.55029818626E+02 -0.39930177136E+02 -0.30944217319E+03  0.32685051200E+03  0.80337405139E+02 0.  0.
         25    2    1    2    0    0  0.66292577154E+02  0.57527219125E+00 -0.19622973324E+03  0.24196713443E+03  0.12508776603E+03 0.  0.
         24    2    1    2    0    0 -0.11262758528E+02  0.39354904945E+02  0.45120791555E+02  0.98290208558E+02  0.77132489879E+02 0.  0.
        -11    1    5    5    0    0 -0.24045250242E+02  0.55217095053E+02  0.15236419212E+02  0.62122863068E+02  0.00000000000E+00 0.  1.
         12    1    5    5    0    0  0.12782491714E+02 -0.15862190109E+02  0.29884372343E+02  0.36167345490E+02  0.00000000000E+00 0. -1.
         13    1    3    3    0    0 -0.71353424112E+02 -0.27520188734E+02 -0.28430160988E+03  0.29440801161E+03  0.00000000000E+00 0. -1.
        -14    1    3    3    0    0  0.16323605486E+02 -0.12409988402E+02 -0.25140563310E+02  0.32442500393E+02  0.00000000000E+00 0.  1.
          5    1    4    4  501    0  0.45759233177E+02  0.16524374074E+02 -0.51727634992E+01  0.49103892327E+02  0.41800000000E+01 0. -1.
         -5    1    4    4    0  501  0.20533343978E+02 -0.15949101883E+02 -0.19105696974E+03  0.19286324210E+03  0.41800000000E+01 0. -1.
</event>
<event>
11    1  0.1078607E-008  0.2362532E+03  0.7561462E-02  0.1031488E+00
         22   -1    0    0    0    0  0.00000000000E+00  0.00000000000E+00  0.16587672578E+04  0.16587672578E+04  0.00000000000E+00 0. -1.
         22   -1    0    0    0    0 -0.00000000000E+00 -0.00000000000E+00 -0.62090190347E+03  0.62090190347E+03  0.00000000000E+00 0.  1.
         24    2    1    2    0    0 -0.16417526036E+03  0.12024036386E+03 -0.52804747491E+03  0.57152262597E+03  0.79954455920E+02 0.  0.
         25    2    1    2    0    0  0.12006863576E+03 -0.13344485214E+03  0.10197645944E+03  0.24139486367E+03  0.12509306965E+03 0.  0.
        -24    2    1    2    0    0  0.44106624598E+02  0.13204488277E+02  0.14639363698E+04  0.14667516716E+04  0.78300820832E+02 0.  0.
        -11    1    3    3    0    0 -0.13741718691E+03  0.10970345661E+03 -0.35565321317E+03  0.39674619052E+03  0.00000000000E+00 0.  1.
         12    1    3    3    0    0 -0.26758073444E+02  0.10536907250E+02 -0.17239426174E+03  0.17477643545E+03  0.00000000000E+00 0. -1.
         11    1    5    5    0    0  0.55868173968E+02  0.21458239475E+02  0.13974247366E+04  0.13987056886E+04  0.00000000000E+00 0. -1.
        -12    1    5    5    0    0 -0.11761549370E+02 -0.82537511972E+01  0.66511633136E+02  0.68045982944E+02  0.00000000000E+00 0.  1.
          5    1    4    4  501    0  0.72702456452E+02 -0.11381335234E+03  0.12588082361E+03  0.18466884008E+03  0.41800000000E+01 0. -1.
         -5    1    4    4    0  501  0.47366179307E+02 -0.19631499795E+02 -0.23904364167E+02  0.56726023592E+02  0.41800000000E+01 0. -1.
</event>
<event>
11    1  0.1078607E-008  0.1465758E+03  0.7561462E-02  0.1100430E+00
         22   -1    0    0    0    0  0.00000000000E+00  0.00000000000E+00  0.39988639215E+03  0.39988639215E+03  0.00000000000E+00 0. -1.
         22   -1    0    0    0    0 -0.00000000000E+00 -0.00000000000E+00 -0.33704041327E+03  0.33704041327E+03  0.00000000000E+00 0.  1.
         24    2    1    2    0    0 -0.60996057193E+02 -0.38031766970E+01 -0.17059463732E+03  0.19890438329E+03  0.82008781619E+02 0.  0.
         25    2    1    2    0    0  0.55721364124E+02 -0.72799798738E+02 -0.10123479248E+03  0.18520682918E+03  0.12509358597E+03 0.  0.
        -24    2    1    2    0    0  0.52746930690E+01  0.76602975435E+02  0.33467540868E+03  0.35281559295E+03  0.81088687373E+02 0.  0.
        -11    1    3    3    0    0 -0.31217190363E+02  0.18956172821E+02 -0.15336486615E+03  0.15765351767E+03  0.00000000000E+00 0.  1.
         12    1    3    3    0    0 -0.29778866830E+02 -0.22759349518E+02 -0.17229771169E+02  0.41250865624E+02  0.00000000000E+00 0. -1.
         13    1    5    5    0    0  0.42363097351E+02  0.51261284017E+02  0.21127959706E+03  0.22149812503E+03  0.00000000000E+00 0. -1.
        -14    1    5    5    0    0 -0.37088404282E+02  0.25341691418E+02  0.12339581162E+03  0.13131746793E+03  0.00000000000E+00 0.  1.
          5    1    4    4  501    0  0.85280392100E+02 -0.78310375082E+02 -0.51161719012E+02  0.12665012442E+03  0.41800000000E+01 0.  1.
         -5    1    4    4    0  501 -0.29559027976E+02  0.55105763433E+01 -0.50073073467E+02  0.58556704765E+02  0.41800000000E+01 0.  1.
</event>
<event>
11    1  0.1078607E-008  0.1717611E+03  0.7561462E-02  0.1076509E+00
         22   -1    0    0    0    0  0.00000000000E+00  0.00000000000E+00  0.33238640113E+03  0.33238640113E+03  0.00000000000E+00 0.  1.
         22   -1    0    0    0    0 -0.00000000000E+00 -0.00000000000E+00 -0.87296297284E+03  0.87296297284E+03  0.00000000000E+00 0. -1.
        -24    2    1    2    0    0  0.31156474637E+02  0.36368269184E+01 -0.61023999870E+03  0.61641740070E+03  0.81201006502E+02 0.  0.
         25    2    1    2    0    0 -0.42904479702E+02  0.11349596651E+03 -0.21013983523E+03  0.27299858232E+03  0.12508935528E+03 0.  0.
         24    2    1    2    0    0  0.11748005066E+02 -0.11713279342E+03  0.27980326222E+03  0.31593339095E+03  0.87555325635E+02 0.  0.
        -11    1    5    5    0    0 -0.60563325649E-01 -0.11265866039E+03  0.28148641000E+03  0.30319395845E+03  0.00000000000E+00 0.  1.
         12    1    5    5    0    0  0.11808568391E+02 -0.44741330321E+01 -0.16831477754E+01  0.12739432494E+02  0.00000000000E+00 0. -1.
         11    1    3    3    0    0  0.75472209580E+01 -0.34141740174E+02 -0.14977334953E+03  0.15380076461E+03  0.00000000000E+00 0. -1.
        -12    1    3    3    0    0  0.23609253679E+02  0.37778567092E+02 -0.46046664917E+03  0.46261663609E+03  0.00000000000E+00 0.  1.
          5    1    4    4  501    0 -0.87080461179E+02  0.78989532784E+02 -0.15082569689E+03  0.19128046490E+03  0.41800000000E+01 0.  1.
         -5    1    4    4    0  501  0.44175981477E+02  0.34506433722E+02 -0.59314138339E+02  0.81718117419E+02  0.41800000000E+01 0.  1.
</event>
<event>
11    1  0.1078607E-008  0.1297206E+03  0.7561462E-02  0.1119613E+00
         22   -1    0    0    0    0  0.00000000000E+00  0.00000000000E+00  0.93052026453E+03  0.93052026453E+03  0.00000000000E+00 0.  1.
         22   -1    0    0    0    0 -0.00000000000E+00 -0.00000000000E+00 -0.49706398655E+03  0.49706398655E+03  0.00000000000E+00 0.  1.
        -24    2    1    2    0    0  0.14074084113E+02 -0.32191230174E+02 -0.46503529841E+03  0.47332609232E+03  0.80903681964E+02 0.  0.
         25    2    1    2    0    0 -0.13852720307E+02 -0.87487952323E+00  0.13000558114E+03  0.18094726338E+03  0.12509115765E+03 0.  0.
         24    2    1    2    0    0 -0.22136380637E+00  0.33066109697E+02  0.76848599526E+03  0.77331089539E+03  0.79659270673E+02 0.  0.
        -13    1    5    5    0    0 -0.21176235371E+02  0.45573177076E+02  0.66864520268E+03  0.67053094968E+03  0.00000000000E+00 0.  1.
         14    1    5    5    0    0  0.20954871565E+02 -0.12507067379E+02  0.99840792579E+02  0.10277994571E+03  0.00000000000E+00 0. -1.
         11    1    3    3    0    0  0.71780651523E+01  0.27291615122E+02 -0.15976444236E+03  0.16223758479E+03  0.00000000000E+00 0. -1.
        -12    1    3    3    0    0  0.68960189607E+01 -0.59482845296E+02 -0.30527085605E+03  0.31108850753E+03  0.00000000000E+00 0.  1.
          5    1    4    4  501    0 -0.65187179750E+02  0.51603896397E+01  0.10403639995E+03  0.12295138445E+03  0.41800000000E+01 0.  1.
         -5    1    4    4    0  501  0.51334459444E+02 -0.60352691629E+01  0.25969181198E+02  0.57995878925E+02  0.41800000000E+01 0.  1.
</event>
<event>
11    1  0.1078607E-008  0.1561376E+03  0.7561462E-02  0.1090767E+00
         22   -1    0    0    0    0  0.00000000000E+00  0.00000000000E+00  0.39097944148E+03  0.39097944148E+03  0.00000000000E+00 0.  1.
         22   -1    0    0    0    0 -0.00000000000E+00 -0.00000000000E+00 -0.13843498451E+04  0.13843498451E+04  0.00000000000E+00 0.  1.
         24    2    1    2    0    0 -0.47284002159E+02  0.45873701391E+02 -0.13162672574E+04  0.13204827214E+04  0.82310091320E+02 0.  0.
         25    2    1    2    0    0  0.27398442940E+02 -0.12630390152E+03  0.12224313319E+03  0.21747400631E+03  0.12509280393E+03 0.  0.
        -24    2    1    2    0    0  0.19885559219E+02  0.80430200132E+02  0.20065372064E+03  0.23737255887E+03  0.96017516840E+02 0.  0.
        -13    1    3    3    0    0 -0.52944112516E+02  0.64621180945E+02 -0.11578043849E+04  0.11608143563E+04  0.00000000000E+00 0.  1.
         14    1    3    3    0    0  0.56601103569E+01 -0.18747479554E+02 -0.15846287255E+03  0.15966836511E+03  0.00000000000E+00 0. -1.
         13    1    5    5    0    0 -0.27030965354E+02 -0.64854500807E+01  0.38072448652E+02  0.47140698945E+02  0.00000000000E+00 0. -1.
        -14    1    5    5    0    0  0.46916524573E+02  0.86915650212E+02  0.16258127198E+03  0.19023185992E+03  0.00000000000E+00 0.  1.
          5    1    4    4  501    0  0.12593318980E+02 -0.13393253916E+03  0.50574231826E+02  0.14377670901E+03  0.41800000000E+01 0.  1.
         -5    1    4    4    0  501  0.14805123961E+02  0.76286376354E+01  0.71668901362E+02  0.73697297305E+02  0.41800000000E+01 0.  1.
</event>
<event>
11    1  0.1078607E-008  0.1263570E+03  0.7561462E-02  0.1123828E+00
         22   -1    0    0    0    0  0.00000000000E+00  0.00000000000E+00  0.34315899848E+03  0.34315899848E+03  0.00000000000E+00 0. -1.
         22   -1    0    0    0    0 -0.00000000000E+00 -0.00000000000E+00 -0.21715048123E+03  0.21715048123E+03  0.00000000000E+00 0.  1.
        -24    2    1    2    0    0 -0.14834200115E+00  0.10284170774E+02 -0.10849342343E+03  0.13821528453E+03  0.85010915634E+02 0.  0.
         25    2    1    2    0    0 -0.14712895231E+02 -0.19443581290E+02 -0.40723951750E+02  0.13379447320E+03  0.12509196086E+03 0.  0.
         24    2    1    2    0    0  0.14861237232E+02  0.91594105155E+01  0.27522589244E+03  0.28829972198E+03  0.84039792071E+02 0.  0.
        -13    1    5    5    0    0  0.74306068498E+01  0.42582241270E+02  0.88872089036E+02  0.98826663403E+02  0.00000000000E+00 0.  1.
         14    1    5    5    0    0  0.74306303824E+01 -0.33422830754E+02  0.18635380340E+03  0.18947305858E+03  0.00000000000E+00 0. -1.
         13    1    3    3    0    0  0.17300777363E+02  0.28220998868E+02 -0.71991636718E+01  0.33875797143E+02  0.00000000000E+00 0. -1.
        -14    1    3    3    0    0 -0.17449119364E+02 -0.17936828094E+02 -0.10129425976E+03  0.10433948739E+03  0.00000000000E+00 0.  1.
          5    1    4    4  501    0 -0.68651789430E+02 -0.14325880085E+02 -0.36803213459E+02  0.79311083419E+02  0.41800000000E+01 0.  1.
         -5    1    4    4    0  501  0.53938894199E+02 -0.51177012049E+01 -0.39207382906E+01  0.54483389778E+02  0.41800000000E+01 0.  1.
</event>
<event>
11    1  0.1078607E-008  0.1362142E+03  0.7561462E-02  0.1111861E+00
         22   -1    0    0    0    0  0.00000000000E+00  0.00000000000E+00  0.37229999326E+03  0.37229999326E+03  0.00000000000E+00 0.  1.
         22   -1    0    0    0    0 -0.00000000000E+00 -0.00000000000E+00 -0.15526731213E+03  0.15526731213E+03  0.00000000000E+00 0.  1.
         24    2    1    2    0    0 -0.33107971344E+02  0.37983384320E+02 -0.89293019432E+02  0.12967833552E+03  0.79399950456E+02 0.  0.
         25    2    1    2    0    0  0.51780647112E+02 -0.62522729343E+02  0.11864310849E+03  0.19055463360E+03  0.12507819191E+03 0.  0.
        -24    2    1    2    0    0 -0.18672675768E+02  0.24539345023E+02  0.18768259208E+03  0.20733433627E+03  0.82534376805E+02 0.  0.
        -11    1    3    3    0    0 -0.52533038709E+02  0.47265133911E+02 -0.78411061951E+02  0.10555570887E+03  0.00000000000E+00 0.  1.
         12    1    3    3    0    0  0.19425067365E+02 -0.92817495905E+01 -0.10881957481E+02  0.24122626644E+02  0.00000000000E+00 0. -1.
         13    1    5    5    0    0  0.22441070360E+02  0.27885803642E+02  0.38564101893E+02  0.52615678637E+02  0.00000000000E+00 0. -1.
        -14    1    5    5    0    0 -0.41113746128E+02 -0.33464586181E+01  0.14911849018E+03  0.15471865763E+03  0.00000000000E+00 0.  1.
          5    1    4    4  501    0 -0.64451524108E+01  0.16147430809E+02 -0.16033954871E+02  0.24017485716E+02  0.41800000000E+01 0.  1.
         -5    1    4    4    0  501  0.58225799523E+02 -0.78670160152E+02  0.13467706336E+03  0.16653714788E+03  0.41800000000E+01 0.  1.
</event>
<event>
11    1  0.1078607E-008  0.1378707E+03  0.7561462E-02  0.1109960E+00
         22   -1    0    0    0    0  0.00000000000E+00  0.00000000000E+00  0.83438365627E+03  0.83438365627E+03  0.00000000000E+00 0.  1.
         22   -1    0    0    0    0 -0.00000000000E+00 -0.00000000000E+00 -0.16932586783E+03  0.16932586783E+03  0.00000000000E+00 0. -1.
         24    2    1    2    0    0  0.53286799400E+02 -0.18943006324E+02 -0.13020578082E+03  0.16346367641E+03  0.81046330385E+02 0.  0.
         25    2    1    2    0    0 -0.76193783059E+02  0.34652906946E+02  0.27953802615E+03  0.31748301527E+03  0.12509052876E+03 0.  0.
        -24    2    1    2    0    0  0.22906983659E+02 -0.15709900622E+02  0.51572554310E+03  0.52276283242E+03  0.80849318345E+02 0.  0.
        -13    1    3    3    0    0  0.28582721180E+02 -0.29232253133E+02 -0.12497203223E+02  0.42751335204E+02  0.00000000000E+00 0.  1.
         14    1    3    3    0    0  0.24704078219E+02  0.10289246809E+02 -0.11770857759E+03  0.12071234121E+03  0.00000000000E+00 0. -1.
         13    1    5    5    0    0 -0.17879966611E+02  0.16507365760E+02  0.71950055423E+02  0.75953912379E+02  0.00000000000E+00 0. -1.
        -14    1    5    5    0    0  0.40786950271E+02 -0.32217266382E+02  0.44377548768E+03  0.44680892004E+03  0.00000000000E+00 0.  1.
          5    1    4    4  501    0 -0.55081616085E+01  0.58740655559E+02  0.19885776998E+03  0.20746732162E+03  0.41800000000E+01 0.  1.
         -5    1    4    4    0  501 -0.70685621451E+02 -0.24087748613E+02  0.80680256166E+02  0.11001569364E+03  0.41800000000E+01 0.  1.
</event>
<event>
11    1  0.1078607E-008  0.1566481E+03  0.7561462E-02  0.1090273E+00
         22   -1    0    0    0    0  0.00000000000E+00  0.00000000000E+00  0.83676573066E+03  0.83676573066E+03  0.00000000000E+00 0.  1.
         22   -1    0    0    0    0 -0.00000000000E+00 -0.00000000000E+00 -0.72563596007E+03  0.72563596007E+03  0.00000000000E+00 0.  1.
        -24    2    1    2    0    0 -0.19873267943E+02  0.86376276123E+01 -0.59380536872E+03  0.59950507808E+03  0.79573659806E+02 0.  0.
         25    2    1    2    0    0  0.42149353837E+02  0.83131555900E+02 -0.75132465180E+02  0.17314369499E+03  0.12508568334E+03 0.  0.
         24    2    1    2    0    0 -0.22276085893E+02 -0.91769183513E+02  0.78006760450E+03  0.78975291766E+03  0.79286797870E+02 0.  0.
        -13    1    5    5    0    0 -0.31381230473E+02 -0.98044553495E+02  0.75909491998E+03  0.76604348025E+03  0.00000000000E+00 0.  1.
         14    1    5    5    0    0  0.91051445799E+01  0.62753699823E+01  0.20972684517E+02  0.23709437405E+02  0.00000000000E+00 0. -1.
         11    1    3    3    0    0 -0.32642202446E+02 -0.28131698506E+02 -0.28038378726E+03  0.28367582555E+03  0.00000000000E+00 0. -1.
        -12    1    3    3    0    0  0.12768934503E+02  0.36769326119E+02 -0.31342158146E+03  0.31582925253E+03  0.00000000000E+00 0.  1.
          5    1    4    4  501    0  0.77186660808E+02  0.14490333632E+02 -0.41926630242E+02  0.89123875022E+02  0.41800000000E+01 0. -1.
         -5    1    4    4    0  501 -0.35037306972E+02  0.68641222268E+02 -0.33205834938E+02  0.84019819973E+02  0.41800000000E+01 0. -1.
</event>
<event>
11    1  0.1078607E-008  0.1576005E+03  0.7561462E-02  0.1089356E+00
         22   -1    0    0    0    0  0.00000000000E+00  0.00000000000E+00  0.14456464028E+04  0.14456464028E+04  0.00000000000E+00 0.  1.
         22   -1    0    0    0    0 -0.00000000000E+00 -0.00000000000E+00 -0.86254614109E+02  0.86254614109E+02  0.00000000000E+00 0.  1.
         24    2    1    2    0    0 -0.19650901649E+02  0.96604061155E+02 -0.19094471980E+02  0.12869780340E+03  0.80498591124E+02 0.  0.
         25    2    1    2    0    0  0.38298821760E+02 -0.63220670402E+02  0.51455257572E+03  0.53467285543E+03  0.12508819381E+03 0.  0.
        -24    2    1    2    0    0 -0.18647920111E+02 -0.33383390754E+02  0.86393368496E+03  0.86853035809E+03  0.80631105788E+02 0.  0.
        -11    1    3    3    0    0 -0.45144387389E+02  0.89813834168E+02 -0.11108249409E+02  0.10113324738E+03  0.00000000000E+00 0.  1.
         12    1    3    3    0    0  0.25493485740E+02  0.67902269875E+01 -0.79862225712E+01  0.27564556022E+02  0.00000000000E+00 0. -1.
         13    1    5    5    0    0 -0.15322927421E+02 -0.20338654097E+01  0.27845867989E+02  0.31848407767E+02  0.00000000000E+00 0. -1.
        -14    1    5    5    0    0 -0.33249926897E+01 -0.31349525344E+02  0.83608781697E+03  0.83668195033E+03  0.00000000000E+00 0.  1.
          5    1    4    4  501    0 -0.27265695457E+02 -0.86444556726E+01  0.26539893237E+02  0.39242618359E+02  0.41800000000E+01 0. -1.
         -5    1    4    4    0  501  0.65564517217E+02 -0.54576214729E+02  0.48801268249E+03  0.49543023707E+03  0.41800000000E+01 0. -1.
</event>
<event>
11    1  0.1078607E-008  0.1647736E+03  0.7561462E-02  0.1082672E+00
         22   -1    0    0    0    0  0.00000000000E+00  0.00000000000E+00  0.52177024130E+03  0.52177024130E+03  0.00000000000E+00 0.  1.
         22   -1    0    0    0    0 -0.00000000000E+00 -0.00000000000E+00 -0.73442721466E+03  0.73442721466E+03  0.00000000000E+00 0.  1.
         24    2    1    2    0    0  0.84265511461E+02  0.64947306903E+02 -0.68047445436E+03  0.69333712419E+03  0.79699784476E+02 0.  0.
         25    2    1    2    0    0 -0.10492307272E+03 -0.84095188975E+02  0.16170282520E+03  0.24469636569E+03  0.12509059000E+03 0.  0.
        -24    2    1    2    0    0  0.20657561263E+02  0.19147882072E+02  0.30611465580E+03  0.31816396608E+03  0.82028961890E+02 0.  0.
        -11    1    3    3    0    0  0.13302975577E+02  0.60172218310E+02 -0.29779059407E+03  0.30410015280E+03  0.00000000000E+00 0.  1.
         12    1    3    3    0    0  0.70962535884E+02  0.47750885926E+01 -0.38268386029E+03  0.38923697139E+03  0.00000000000E+00 0. -1.
         13    1    5    5    0    0 -0.82869998442E+01 -0.16713518221E+02  0.16498626528E+02  0.24904231268E+02  0.00000000000E+00 0. -1.
        -14    1    5    5    0    0  0.28944561107E+02  0.35861400293E+02  0.28961602927E+03  0.29325973481E+03  0.00000000000E+00 0.  1.
          5    1    4    4  501    0 -0.28160887703E+02 -0.99504526819E+02  0.75095948815E+02  0.12787126488E+03  0.41800000000E+01 0.  1.
         -5    1    4    4    0  501 -0.76762185021E+02  0.15409337844E+02  0.86606876390E+02  0.11682510081E+03  0.41800000000E+01 0.  1.
</event>
<event>
11    1  0.1078607E-008  0.1441661E+03  0.7561462E-02  0.1102993E+00
         22   -1    0    0    0    0  0.00000000000E+00  0.00000000000E+00  0.31015751215E+04  0.31015751215E+04  0.00000000000E+00 0. -1.
         22   -1    0    0    0    0 -0.00000000000E+00 -0.00000000000E+00 -0.78762238372E+03  0.78762238372E+03  0.00000000000E+00 0. -1.
        -24    2    1    2    0    0 -0.57188417804E+02  0.43298866284E+02 -0.77888888143E+03  0.78650362799E+03  0.82308931913E+02 0.  0.
         25    2    1    2    0    0  0.26131837140E+02 -0.53715824058E+02  0.11606544841E+04  0.11689030220E+04  0.12508869070E+03 0.  0.
         24    2    1    2    0    0  0.31056580664E+02  0.10416957774E+02  0.19321871351E+04  0.19337908553E+04  0.71602533118E+02 0.  0.
        -11    1    5    5    0    0  0.35496270868E+02 -0.87640586131E+00  0.40447161484E+03  0.40602714262E+03  0.00000000000E+00 0.  1.
         12    1    5    5    0    0 -0.44396902033E+01  0.11293363635E+02  0.15277155202E+04  0.15277637126E+04  0.00000000000E+00 0. -1.
         13    1    3    3    0    0 -0.58084132490E+02  0.50933644006E+02 -0.77292034734E+03  0.77677143734E+03  0.00000000000E+00 0. -1.
        -14    1    3    3    0    0  0.89571468616E+00 -0.76347777218E+01 -0.59685340977E+01  0.97321906545E+01  0.00000000000E+00 0.  1.
          5    1    4    4  501    0 -0.48026542241E+02 -0.16096708966E+02  0.59315178331E+03  0.59532525836E+03  0.41800000000E+01 0. -1.
         -5    1    4    4    0  501  0.74158379381E+02 -0.37619115092E+02  0.56750270081E+03  0.57357776359E+03  0.41800000000E+01 0. -1.
</event>
<event>
11    1  0.1078607E-008  0.1495379E+03  0.7561462E-02  0.1097352E+00
         22   -1    0    0    0    0  0.00000000000E+00  0.00000000000E+00  0.14580108971E+04  0.14580108971E+04  0.00000000000E+00 0. -1.
         22   -1    0    0    0    0 -0.00000000000E+00 -0.00000000000E+00 -0.10505064139E+03  0.10505064139E+03  0.00000000000E+00 0. -1.
        -24    2    1    2    0    0 -0.51457371866E+02  0.60302619605E+02 -0.43538258743E+02  0.12070742837E+03  0.79940204142E+02 0.  0.
         25    2    1    2    0    0  0.45536890347E+02 -0.97602136642E+02  0.30262638785E+03  0.34471643193E+03  0.12508757874E+03 0.  0.
         24    2    1    2    0    0  0.59204815192E+01  0.37299517037E+02  0.10938721266E+04  0.10976376782E+04  0.82619229953E+02 0.  0.
        -13    1    5    5    0    0  0.11206620550E+02  0.50499247189E+01  0.21484700879E+02  0.24752423228E+02  0.00000000000E+00 0.  1.
         14    1    5    5    0    0 -0.52861390305E+01  0.32249592318E+02  0.10723874257E+04  0.10728852550E+04  0.00000000000E+00 0. -1.
         11    1    3    3    0    0 -0.39690077028E+02  0.72662692839E+02 -0.55667910405E+02  0.99770162845E+02  0.00000000000E+00 0. -1.
        -12    1    3    3    0    0 -0.11767294838E+02 -0.12360073235E+02  0.12129651662E+02  0.20937265523E+02  0.00000000000E+00 0.  1.
          5    1    4    4  501    0  0.28723602560E+02 -0.12558450386E+03  0.20983693513E+03  0.24626312087E+03  0.41800000000E+01 0. -1.
         -5    1    4    4    0  501  0.16813287787E+02  0.27982367221E+02  0.92789452725E+02  0.98453311059E+02  0.41800000000E+01 0. -1.
</event>
<event>
11    1  0.1078607E-008  0.1311993E+03  0.7561462E-02  0.1117804E+00
         22   -1    0    0    0    0  0.00000000000E+00  0.00000000000E+00  0.23483928261E+03  0.23483928261E+03  0.00000000000E+00 0.  1.
         22   -1    0    0    0    0 -0.00000000000E+00 -0.00000000000E+00 -0.65343011678E+03  0.65343011678E+03  0.00000000000E+00 0.  1.
        -24    2    1    2    0    0 -0.15684669946E+02 -0.33764485350E+02 -0.47772102344E+03  0.48599286005E+03  0.81151921965E+02 0.  0.
         25    2    1    2    0    0  0.28639748852E+01  0.61085968425E+02 -0.13278819095E+03  0.19238038592E+03  0.12505123486E+03 0.  0.
         24    2    1    2    0    0  0.12820695061E+02 -0.27321483075E+02  0.19191838021E+03  0.20989615342E+03  0.79453740606E+02 0.  0.
        -11    1    5    5    0    0 -0.12712696456E+02 -0.17680055768E+02  0.17787324552E+03  0.17920125137E+03  0.00000000000E+00 0.  1.
         12    1    5    5    0    0  0.25533391517E+02 -0.96414273063E+01  0.14045134698E+02  0.30694902045E+02  0.00000000000E+00 0. -1.
         11    1    3    3    0    0 -0.48553090249E+02 -0.14602400290E+02 -0.24618030536E+03  0.25134712136E+03  0.00000000000E+00 0. -1.
        -12    1    3    3    0    0  0.32868420303E+02 -0.19162085060E+02 -0.23154071808E+03  0.23464573869E+03  0.00000000000E+00 0.  1.
          5    1    4    4  501    0  0.40085779163E+02 -0.45561284586E+01 -0.10378627677E+03  0.11143020974E+03  0.41800000000E+01 0. -1.
         -5    1    4    4    0  501 -0.37221804278E+02  0.65642096883E+02 -0.29001914178E+02  0.80950176176E+02  0.41800000000E+01 0. -1.
</event>
<event>
11    1  0.1078607E-008  0.2093459E+03  0.7561462E-02  0.1048105E+00
         22   -1    0    0    0    0  0.00000000000E+00  0.00000000000E+00  0.22978489302E+03  0.22978489302E+03  0.00000000000E+00 0. -1.
         22   -1    0    0    0    0 -0.00000000000E+00 -0.00000000000E+00 -0.44329442003E+03  0.44329442003E+03  0.00000000000E+00 0.  1.
         24    2    1    2    0    0  0.57773745196E+01  0.70943712913E+01 -0.22223318690E+03  0.23674562378E+03  0.81099894324E+02 0.  0.
         25    2    1    2    0    0  0.51522903486E+02 -0.16353191458E+03 -0.84872991056E+02  0.22857958446E+03  0.12509158705E+03 0.  0.
        -24    2    1    2    0    0 -0.57300278006E+02  0.15643754329E+03  0.93596650941E+02  0.20775410481E+03  0.81519373087E+02 0.  0.
        -13    1    3    3    0    0  0.38069812690E+02  0.22056989123E+02 -0.14835053385E+03  0.15473752712E+03  0.00000000000E+00 0.  1.
         14    1    3    3    0    0 -0.32292438170E+02 -0.14962617832E+02 -0.73882653056E+02  0.82008096661E+02  0.00000000000E+00 0. -1.
         13    1    5    5    0    0 -0.52900027923E+02  0.16565006952E+03  0.81853795614E+02  0.19219365843E+03  0.00000000000E+00 0. -1.
        -14    1    5    5    0    0 -0.44002500830E+01 -0.92125262274E+01  0.11742855327E+02  0.15560446379E+02  0.00000000000E+00 0.  1.
          5    1    4    4  501    0  0.54242006372E+02 -0.15997348507E+03 -0.27876740887E+02  0.17125506200E+03  0.41800000000E+01 0.  1.
         -5    1    4    4    0  501 -0.27191028860E+01 -0.35584295145E+01 -0.56996250170E+02  0.57324522453E+02  0.41800000000E+01 0.  1.
</event>
<event>
11    1  0.1078607E-008  0.1371041E+03  0.7561462E-02  0.1110836E+00
         22   -1    0    0    0    0  0.00000000000E+00  0.00000000000E+00  0.10673653380E+04  0.10673653380E+04  0.00000000000E+00 0.  1.
         22   -1    0    0    0    0 -0.00000000000E+00 -0.00000000000E+00 -0.24945961040E+03  0.24945961040E+03  0.00000000000E+00 0.  1.
        -24    2    1    2    0    0  0.10722877478E+02  0.16020806406E+02 -0.18863700269E+03  0.20038187202E+03  0.64786800433E+02 0.  0.
         25    2    1    2    0    0 -0.27710957377E+02  0.38027984888E+02  0.32545237633E+02  0.13755372721E+03  0.12509120906E+03 0.  0.
         24    2    1    2    0    0  0.16988079899E+02 -0.54048791294E+02  0.97399749261E+03  0.97888934914E+03  0.79645310851E+02 0.  0.
        -13    1    5    5    0    0 -0.55958004968E+00 -0.30363163276E+02  0.87667020033E+03  0.87719602995E+03  0.00000000000E+00 0.  1.
         14    1    5    5    0    0  0.17547659949E+02 -0.23685628018E+02  0.97327292281E+02  0.10169331919E+03  0.00000000000E+00 0. -1.
         11    1    3    3    0    0  0.35156609197E+01  0.40686238534E+02 -0.97893693860E+02  0.10607028413E+03  0.00000000000E+00 0. -1.
        -12    1    3    3    0    0  0.72072165583E+01 -0.24665432129E+02 -0.90743308830E+02  0.94311587889E+02  0.00000000000E+00 0.  1.
          5    1    4    4  501    0 -0.20608951132E+02  0.39940443694E+02  0.78648396833E+02  0.90680817341E+02  0.41800000000E+01 0.  1.
         -5    1    4    4    0  501 -0.71020062452E+01 -0.19124588060E+01 -0.46103159199E+02  0.46872909868E+02  0.41800000000E+01 0.  1.
</event>
<event>
11    1  0.1078607E-008  0.1735541E+03  0.7561462E-02  0.1074980E+00
         22   -1    0    0    0    0  0.00000000000E+00  0.00000000000E+00  0.63678008156E+03  0.63678008156E+03  0.00000000000E+00 0. -1.
         22   -1    0    0    0    0 -0.00000000000E+00 -0.00000000000E+00 -0.27760851133E+03  0.27760851133E+03  0.00000000000E+00 0.  1.
         24    2    1    2    0    0 -0.52152373534E+02 -0.99590378372E+02 -0.15612819882E+03  0.20887671806E+03  0.81334834814E+02 0.  0.
         25    2    1    2    0    0  0.11581110680E+03  0.11174799808E+03  0.24838050277E+02  0.20533933644E+03  0.12508991492E+03 0.  0.
        -24    2    1    2    0    0 -0.63658733264E+02 -0.12157619704E+02  0.49046171877E+03  0.50017253839E+03  0.73618126474E+02 0.  0.
        -13    1    3    3    0    0 -0.54729811960E+01  0.43543149806E+01 -0.58239709707E+02  0.58658139834E+02  0.00000000000E+00 0.  1.
         14    1    3    3    0    0 -0.46679392338E+02 -0.10394469335E+03 -0.97888489109E+02  0.15021857823E+03  0.00000000000E+00 0. -1.
         11    1    5    5    0    0  0.27699593762E+01  0.22569958764E+02  0.13387120581E+03  0.13578871624E+03  0.00000000000E+00 0. -1.
        -12    1    5    5    0    0 -0.66428692640E+02 -0.34727578468E+02  0.35659051296E+03  0.36438382215E+03  0.00000000000E+00 0.  1.
          5    1    4    4  501    0 -0.17894906429E+02  0.34742980970E+02  0.32203324304E+02  0.50811700414E+02  0.41800000000E+01 0. -1.
         -5    1    4    4    0  501  0.13370601323E+03  0.77005017106E+02 -0.73652740267E+01  0.15452763602E+03  0.41800000000E+01 0. -1.
</event>
<event>
11    1  0.1078607E-008  0.1941829E+03  0.7561462E-02  0.1058715E+00
         22   -1    0    0    0    0  0.00000000000E+00  0.00000000000E+00  0.18327693969E+04  0.18327693969E+04  0.00000000000E+00 0.  1.
         22   -1    0    0    0    0 -0.00000000000E+00 -0.00000000000E+00 -0.10795365263E+04  0.10795365263E+04  0.00000000000E+00 0.  1.
         24    2    1    2    0    0  0.52815370368E+02  0.30596026879E+02 -0.98484629527E+03  0.99000771111E+03  0.80420535625E+02 0.  0.
         25    2    1    2    0    0 -0.94627433327E+02 -0.17101669449E+03  0.65083910538E+02  0.24100694181E+03  0.12508944664E+03 0.  0.
        -24    2    1    2    0    0  0.41812062959E+02  0.14042066761E+03  0.16729952553E+04  0.16812912702E+04  0.79755868272E+02 0.  0.
        -13    1    3    3    0    0  0.52739050516E+02  0.54494276648E+02 -0.67669427445E+03  0.68093037435E+03  0.00000000000E+00 0.  1.
         14    1    3    3    0    0  0.76319852160E-01 -0.23898249769E+02 -0.30815202081E+03  0.30907733676E+03  0.00000000000E+00 0. -1.
         13    1    5    5    0    0  0.92188735758E+01  0.66063884330E+02  0.38467898606E+03  0.39041944977E+03  0.00000000000E+00 0. -1.
        -14    1    5    5    0    0  0.32593189383E+02  0.74356783276E+02  0.12883162693E+04  0.12908718205E+04  0.00000000000E+00 0.  1.
          5    1    4    4  501    0 -0.11317310372E+03 -0.84612327482E+02  0.23721106881E+02  0.14334420350E+03  0.41800000000E+01 0.  1.
         -5    1    4    4    0  501  0.18545670389E+02 -0.86404367003E+02  0.41362803657E+02  0.97662738308E+02  0.41800000000E+01 0.  1.
</event>
<event>
11    1  0.1078607E-008  0.2519262E+03  0.7561462E-02  0.1022878E+00
         22   -1    0    0    0    0  0.00000000000E+00  0.00000000000E+00  0.50747852157E+03  0.50747852157E+03  0.00000000000E+00 0.  1.
         22   -1    0    0    0    0 -0.00000000000E+00 -0.00000000000E+00 -0.45289675981E+03  0.45289675981E+03  0.00000000000E+00 0.  1.
        -24    2    1    2    0    0  0.20622387797E+03 -0.39409775594E+02 -0.28695045577E+03  0.36410548040E+03  0.78427154276E+02 0.  0.
         25    2    1    2    0    0 -0.28707021557E+03 -0.58180160036E+02  0.14624079846E+03  0.35046638817E+03  0.12508428525E+03 0.  0.
         24    2    1    2    0    0  0.80846337599E+02  0.97589935631E+02  0.19529141907E+03  0.24580341282E+03  0.78871119869E+02 0.  0.
        -11    1    5    5    0    0  0.92805393258E+02  0.78767431471E+02  0.13632597140E+03  0.18276192097E+03  0.00000000000E+00 0.  1.
         12    1    5    5    0    0 -0.11959055659E+02  0.18822504160E+02  0.58965447674E+02  0.63041491848E+02  0.00000000000E+00 0. -1.
         11    1    3    3    0    0  0.12214366454E+01 -0.17838131704E+02 -0.26136379796E+02  0.31667036473E+02  0.00000000000E+00 0. -1.
        -12    1    3    3    0    0  0.20500244133E+03 -0.21571643891E+02 -0.26081407597E+03  0.33243844392E+03  0.00000000000E+00 0.  1.
          5    1    4    4  501    0 -0.13498673347E+03 -0.58360973808E+02  0.12072316622E+02  0.14761651231E+03  0.41800000000E+01 0. -1.
         -5    1    4    4    0  501 -0.15208348210E+03  0.18081377213E+00  0.13416848183E+03  0.20284987587E+03  0.41800000000E+01 0. -1.
</event>
<event>
11    1  0.1078607E-008  0.1436737E+03  0.7561462E-02  0.1103524E+00
         22   -1    0    0    0    0  0.00000000000E+00  0.00000000000E+00  0.28039739414E+03  0.28039739414E+03  0.00000000000E+00 0. -1.
         22   -1    0    0    0    0 -0.00000000000E+00 -0.00000000000E+00 -0.18779592931E+04  0.18779592931E+04  0.00000000000E+00 0. -1.
         24    2    1    2    0    0 -0.54251214947E+02  0.40980643565E+02 -0.16039379405E+04  0.16083714458E+04  0.98077435536E+02 0.  0.
         25    2    1    2    0    0  0.59410021222E+02 -0.89041300890E+02 -0.23693288857E+03  0.28852027259E+03  0.12509536411E+03 0.  0.
        -24    2    1    2    0    0 -0.51588062747E+01  0.48060657324E+02  0.24330893011E+03  0.26146496881E+03  0.82633252258E+02 0.  0.
        -11    1    3    3    0    0 -0.34182421428E+02 -0.27322439624E+02 -0.41412405983E+03  0.41642969463E+03  0.00000000000E+00 0.  1.
         12    1    3    3    0    0 -0.20068793520E+02  0.68303083190E+02 -0.11898138806E+04  0.11919417512E+04  0.00000000000E+00 0. -1.
         13    1    5    5    0    0 -0.10383532299E+02  0.14990183137E+02  0.21979975288E+03  0.22055487911E+03  0.00000000000E+00 0. -1.
        -14    1    5    5    0    0  0.52247260239E+01  0.33070474187E+02  0.23509177225E+02  0.40910089694E+02  0.00000000000E+00 0.  1.
          5    1    4    4  501    0  0.59832714362E+02 -0.62999260153E+02 -0.51222760037E+02  0.10094604516E+03  0.41800000000E+01 0. -1.
         -5    1    4    4    0  501 -0.42269313989E+00 -0.26042040737E+02 -0.18571012853E+03  0.18757422743E+03  0.41800000000E+01 0. -1.
</event>
<event>
11    1  0.1078607E-008  0.1330699E+03  0.7561462E-02  0.1115554E+00
         22   -1    0    0    0    0  0.00000000000E+00  0.00000000000E+00  0.32943670178E+03  0.32943670178E+03  0.00000000000E+00 0.  1.
         22   -1    0    0    0    0 -0.00000000000E+00 -0.00000000000E+00 -0.29938415104E+03  0.29938415104E+03  0.00000000000E+00 0.  1.
         24    2    1    2    0    0 -0.23648000081E+02 -0.38693987740E+02 -0.20302775058E+03  0.22338662664E+03  0.81393272826E+02 0.  0.
         25    2    1    2    0    0 -0.57587155736E+01  0.54814845815E+02 -0.19450575000E+02  0.13807302844E+03  0.12509199090E+03 0.  0.
        -24    2    1    2    0    0  0.29406715655E+02 -0.16120858075E+02  0.25253087633E+03  0.26736119774E+03  0.81151275837E+02 0.  0.
        -13    1    3    3    0    0 -0.48136645046E+02 -0.41262383905E+02 -0.17472368066E+03  0.18587115296E+03  0.00000000000E+00 0.  1.
         14    1    3    3    0    0  0.24488644965E+02  0.25683961650E+01 -0.28304069928E+02  0.37515473681E+02  0.00000000000E+00 0. -1.
         13    1    5    5    0    0 -0.24468985243E+02 -0.25655302603E+01  0.13670379769E+03  0.13890011335E+03  0.00000000000E+00 0. -1.
        -14    1    5    5    0    0  0.53875700898E+02 -0.13555327815E+02  0.11582707863E+03  0.12846108439E+03  0.00000000000E+00 0.  1.
          5    1    4    4  501    0 -0.60342675567E+01 -0.33503762393E+02  0.21659760939E+02  0.40565158984E+02  0.41800000000E+01 0.  1.
         -5    1    4    4    0  501  0.27555198310E+00  0.88318608208E+02 -0.41110335939E+02  0.97507869455E+02  0.41800000000E+01 0.  1.
</event>
<event>
11    1  0.1078607E-008  0.2722093E+03  0.7561462E-02  0.1012691E+00
         22   -1    0    0    0    0  0.00000000000E+00  0.00000000000E+00  0.50762096836E+03  0.50762096836E+03  0.00000000000E+00 0. -1.
         22   -1    0    0    0    0 -0.00000000000E+00 -0.00000000000E+00 -0.20760281815E+03  0.20760281815E+03  0.00000000000E+00 0. -1.
        -24    2    1    2    0    0  0.69050478078E+02  0.68712028755E+01  0.42133442760E+01  0.10582968670E+03  0.79793410533E+02 0.  0.
         25    2    1    2    0    0 -0.17625208066E+03  0.19357019636E+03  0.17222442453E+03  0.33740659791E+03  0.12509093913E+03 0.  0.
         24    2    1    2    0    0  0.10720160258E+03 -0.20044139923E+03  0.12358038140E+03  0.27198750191E+03  0.83881776361E+02 0.  0.
        -11    1    5    5    0    0  0.10888787332E+03 -0.14701147129E+03  0.11919964089E+03  0.21835177132E+03  0.00000000000E+00 0.  1.
         12    1    5    5    0    0 -0.16862707429E+01 -0.53429927940E+02  0.43807405079E+01  0.53635730592E+02  0.00000000000E+00 0. -1.
         11    1    3    3    0    0  0.40978603916E+02  0.43339813884E+02  0.35427944536E+00  0.59646550281E+02  0.00000000000E+00 0. -1.
        -12    1    3    3    0    0  0.28071874162E+02 -0.36468611009E+02  0.38590648306E+01  0.46183136416E+02  0.00000000000E+00 0.  1.
          5    1    4    4  501    0 -0.96271007012E+02  0.18502152594E+03  0.13645623491E+03  0.24927665013E+03  0.41800000000E+01 0.  1.
         -5    1    4    4    0  501 -0.79981073645E+02  0.85486704198E+01  0.35768189620E+02  0.88129947782E+02  0.41800000000E+01 0.  1.
</event>
<event>
11    1  0.1078607E-008  0.1657491E+03  0.7561462E-02  0.1081791E+00
         22   -1    0    0    0    0  0.00000000000E+00  0.00000000000E+00  0.60684934694E+03  0.60684934694E+03  0.00000000000E+00 0. -1.
         22   -1    0    0    0    0 -0.00000000000E+00 -0.00000000000E+00 -0.18685148360E+04  0.18685148360E+04  0.00000000000E+00 0.  1.
         24    2    1    2    0    0  0.24232780970E+02 -0.17630403893E+01 -0.17678029298E+04  0.17698212857E+04  0.80931135524E+02 0.  0.
         25    2    1    2    0    0  0.33591739734E+02 -0.91825904402E+02 -0.21280925437E+02  0.16018880252E+03  0.12508866043E+03 0.  0.
        -24    2    1    2    0    0 -0.57824520703E+02  0.93588944791E+02  0.52741836612E+03  0.54535409478E+03  0.84488993258E+02 0.  0.
        -11    1    3    3    0    0  0.50076295107E+02  0.15896809038E+02 -0.12111307085E+04  0.12122697459E+04  0.00000000000E+00 0.  1.
         12    1    3    3    0    0 -0.25843514137E+02 -0.17659849427E+02 -0.55667222127E+03  0.55755153972E+03  0.00000000000E+00 0. -1.
         11    1    5    5    0    0 -0.53104683656E+02  0.78513678334E+02  0.51874307552E+03  0.52733185331E+03  0.00000000000E+00 0. -1.
        -12    1    5    5    0    0 -0.47198370480E+01  0.15075266457E+02  0.86752906048E+01  0.18022241470E+02  0.00000000000E+00 0.  1.
          5    1    4    4  501    0  0.77775741228E+01  0.28361683136E+02 -0.22368099630E+02  0.37184405476E+02  0.41800000000E+01 0.  1.
         -5    1    4    4    0  501  0.25814165611E+02 -0.12018758754E+03  0.10871741924E+01  0.12300439704E+03  0.41800000000E+01 0.  1.
</event>
<event>
11    1  0.1078607E-008  0.2037410E+03  0.7561462E-02  0.1051909E+00
         22   -1    0    0    0    0  0.00000000000E+00  0.00000000000E+00  0.15682561387E+04  0.15682561387E+04  0.00000000000E+00 0. -1.
         22   -1    0    0    0    0 -0.00000000000E+00 -0.00000000000E+00 -0.32777238310E+03  0.32777238310E+03  0.00000000000E+00 0. -1.
         24    2    1    2    0    0  0.15548225050E+03  0.46644451444E+02 -0.26944901730E+03  0.32515882169E+03  0.82310699960E+02 0.  0.
         25    2    1    2    0    0 -0.12752404680E+03 -0.73046647026E+02  0.29390851760E+03  0.35160501119E+03  0.12508266077E+03 0.  0.
        -24    2    1    2    0    0 -0.27958203693E+02  0.26402195582E+02  0.12160242553E+04  0.12192646889E+04  0.80079055062E+02 0.  0.
        -13    1    3    3    0    0  0.77842811534E+02  0.12383798823E+01 -0.63636653161E+02  0.10055178028E+03  0.00000000000E+00 0.  1.
         14    1    3    3    0    0  0.77639438963E+02  0.45406071562E+02 -0.20581236414E+03  0.22460704141E+03  0.00000000000E+00 0. -1.
         13    1    5    5    0    0 -0.21036415181E+02 -0.15813794060E+02  0.89687542872E+03  0.89726146774E+03  0.00000000000E+00 0. -1.
        -14    1    5    5    0    0 -0.69217885116E+01  0.42215989642E+02  0.31914882662E+03  0.32200322121E+03  0.00000000000E+00 0.  1.
          5    1    4    4  501    0 -0.15019719920E+03 -0.58184493565E+02  0.21942056609E+03  0.27222691116E+03  0.41800000000E+01 0.  1.
         -5    1    4    4    0  501  0.22673152393E+02 -0.14862153461E+02  0.74487951508E+02  0.79378100033E+02  0.41800000000E+01 0.  1.
</event>
<event>
11    1  0.1078607E-008  0.1303448E+03  0.7561462E-02  0.1118846E+00
         22   -1    0    0    0    0  0.00000000000E+00  0.00000000000E+00  0.14205866360E+04  0.14205866360E+04  0.00000000000E+00 0.  1.
         22   -1    0    0    0    0 -0.00000000000E+00 -0.00000000000E+00 -0.58112198535E+03  0.58112198535E+03  0.00000000000E+00 0.  1.
        -24    2    1    2    0    0  0.10541014055E+02 -0.68162951842E+01 -0.52740002504E+03  0.53375440734E+03  0.81150514982E+02 0.  0.
         25    2    1    2    0    0  0.22881403917E+02  0.22269586561E+02  0.35743421962E+02  0.13395861996E+03  0.12509127274E+03 0.  0.
         24    2    1    2    0    0 -0.33422417972E+02 -0.15453291377E+02  0.13311212537E+04  0.13339955940E+04  0.79401451865E+02 0.  0.
        -11    1    5    5    0    0 -0.59188079214E+02 -0.45390538396E+01  0.94362556040E+03  0.94549089365E+03  0.00000000000E+00 0.  1.
         12    1    5    5    0    0  0.25765661241E+02 -0.10914237537E+02  0.38749569331E+03  0.38850470038E+03  0.00000000000E+00 0. -1.
         13    1    3    3    0    0  0.41745435061E+02  0.14422515410E+02 -0.30293840063E+03  0.30614108655E+03  0.00000000000E+00 0. -1.
        -14    1    3    3    0    0 -0.31204421006E+02 -0.21238810594E+02 -0.22446162441E+03  0.22761332079E+03  0.00000000000E+00 0.  1.
          5    1    4    4  501    0  0.30127051021E+02 -0.25610874655E+02  0.65749053328E+02  0.76837272969E+02  0.41800000000E+01 0.  1.
         -5    1    4    4    0  501 -0.72456471040E+01  0.47880461216E+02 -0.30005631366E+02  0.57121346989E+02  0.41800000000E+01 0.  1.
</event>
<event>
11    1  0.1078607E-008  0.1694150E+03  0.7561462E-02  0.1078542E+00
         22   -1    0    0    0    0  0.00000000000E+00  0.00000000000E+00  0.25713733576E+03  0.25713733576E+03  0.00000000000E+00 0.  1.
         22   -1    0    0    0    0 -0.00000000000E+00 -0.00000000000E+00 -0.88716098248E+03  0.88716098248E+03  0.00000000000E+00 0. -1.
        -24    2    1    2    0    0 -0.31539540281E+02  0.37738283695E+02 -0.45332683644E+03  0.46355355016E+03  0.83413143895E+02 0.  0.
         25    2    1    2    0    0  0.45778127921E+02 -0.14894631132E+03 -0.38234153314E+03  0.43141333852E+03  0.12510707428E+03 0.  0.
         24    2    1    2    0    0 -0.14238587640E+02  0.11120802762E+03  0.20564472287E+03  0.24933142956E+03  0.85477756966E+02 0.  0.
        -13    1    5    5    0    0 -0.46939257568E+02  0.62617377326E+02  0.87003244536E+02  0.11702048711E+03  0.00000000000E+00 0.  1.
         14    1    5    5    0    0  0.32700669928E+02  0.48590650297E+02  0.11864147833E+03  0.13231094244E+03  0.00000000000E+00 0. -1.
         13    1    3    3    0    0 -0.15807701101E+02 -0.26138482191E+02 -0.16653633551E+03  0.16931466183E+03  0.00000000000E+00 0. -1.
        -14    1    3    3    0    0 -0.15731839180E+02  0.63876765885E+02 -0.28679050094E+03  0.29423888834E+03  0.00000000000E+00 0.  1.
          5    1    4    4  501    0  0.56161448502E+02 -0.20257881981E+02 -0.19406752824E+03  0.20308660221E+03  0.41800000000E+01 0.  1.
         -5    1    4    4    0  501 -0.10383320581E+02 -0.12868842934E+03 -0.18827400490E+03  0.22832673631E+03  0.41800000000E+01 0.  1.
</event>
<event>
11    1  0.1078607E-008  0.1960257E+03  0.7561462E-02  0.1057370E+00
         22   -1    0    0    0    0  0.00000000000E+00  0.00000000000E+00  0.23865736043E+03  0.23865736043E+03  0.00000000000E+00 0.  1.
         22   -1    0    0    0    0 -0.00000000000E+00 -0.00000000000E+00 -0.11560619609E+04  0.11560619609E+04  0.00000000000E+00 0. -1.
        -24    2    1    2    0    0 -0.11468330478E+03 -0.96801196762E+02 -0.97730667427E+03  0.99197843359E+03  0.79813188433E+02 0.  0.
         25    2    1    2    0    0  0.60133583104E+02  0.17465317153E+03 -0.57764678305E+02  0.23044296961E+03  0.12508967200E+03 0.  0.
         24    2    1    2    0    0  0.54549721677E+02 -0.77851974764E+02  0.11766675209E+03  0.17229791814E+03  0.82489429256E+02 0.  0.
        -13    1    5    5    0    0  0.17257234566E+02 -0.52191261103E+02  0.11438849547E+03  0.12691125945E+03  0.00000000000E+00 0.  1.
         14    1    5    5    0    0  0.37292487111E+02 -0.25660713662E+02  0.32782566221E+01  0.45386658690E+02  0.00000000000E+00 0. -1.
         11    1    3    3    0    0 -0.56711107642E+02 -0.32804736808E+02 -0.21402921657E+03  0.22383209339E+03  0.00000000000E+00 0. -1.
        -12    1    3    3    0    0 -0.57972197139E+02 -0.63996459954E+02 -0.76327745770E+03  0.76814634020E+03  0.00000000000E+00 0.  1.
          5    1    4    4  501    0 -0.14297101772E+02 -0.68066242867E+01 -0.27413499520E+02  0.31932892277E+02  0.41800000000E+01 0.  1.
         -5    1    4    4    0  501  0.74430684876E+02  0.18145979581E+03 -0.30351178785E+02  0.19851007733E+03  0.41800000000E+01 0.  1.
</event>
<event>
11    1  0.1078607E-008  0.3303561E+03  0.7561462E-02  0.9881039E-01
         22   -1    0    0    0    0  0.00000000000E+00  0.00000000000E+00  0.65838939785E+03  0.65838939785E+03  0.00000000000E+00 0. -1.
         22   -1    0    0    0    0 -0.00000000000E+00 -0.00000000000E+00 -0.11256735901E+04  0.11256735901E+04  0.00000000000E+00 0. -1.
         24    2    1    2    0    0 -0.10915062027E+03 -0.28203110695E+03 -0.95079091465E+03  0.10009871025E+04  0.80724301089E+02 0.  0.
         25    2    1    2    0    0 -0.27479024881E+02  0.39866708092E+03  0.34097469182E+03  0.54000145795E+03  0.12508915183E+03 0.  0.
        -24    2    1    2    0    0  0.13662964515E+03 -0.11663597397E+03  0.14253203062E+03  0.24307442745E+03  0.80611334012E+02 0.  0.
        -13    1    3    3    0    0 -0.16224354034E+02 -0.77292209135E+02 -0.36685889049E+03  0.37526358841E+03  0.00000000000E+00 0.  1.
         14    1    3    3    0    0 -0.92926266236E+02 -0.20473889782E+03 -0.58393202416E+03  0.62572351409E+03  0.00000000000E+00 0. -1.
         13    1    5    5    0    0  0.14596093094E+03 -0.11575367021E+03  0.14087108823E+03  0.23355549453E+03  0.00000000000E+00 0. -1.
        -14    1    5    5    0    0 -0.93312857855E+01 -0.88230375685E+00  0.16609423921E+01  0.95189329213E+01  0.00000000000E+00 0.  1.
          5    1    4    4  501    0 -0.61141391930E+01  0.24596172286E+03  0.12897546704E+03  0.27782493644E+03  0.41800000000E+01 0.  1.
         -5    1    4    4    0  501 -0.21364885689E+02  0.15270535806E+03  0.21199922478E+03  0.26217652151E+03  0.41800000000E+01 0.  1.
</event>
<event>
11    1  0.1078607E-008  0.3248193E+03  0.7561462E-02  0.9902019E-01
         22   -1    0    0    0    0  0.00000000000E+00  0.00000000000E+00  0.32341492349E+04  0.32341492349E+04  0.00000000000E+00 0. -1.
         22   -1    0    0    0    0 -0.00000000000E+00 -0.00000000000E+00 -0.11302483392E+03  0.11302483392E+03  0.00000000000E+00 0. -1.
        -24    2    1    2    0    0  0.19388004921E+03 -0.43801321470E+02  0.20959457690E+03  0.29944302889E+03  0.78919019532E+02 0.  0.
         25    2    1    2    0    0  0.86343951803E+02  0.20049128586E+03  0.21486879849E+03  0.33085944976E+03  0.12508933293E+03 0.  0.
         24    2    1    2    0    0 -0.28022400101E+03 -0.15668996439E+03  0.26966610256E+04  0.27168715902E+04  0.79582126269E+02 0.  0.
        -13    1    5    5    0    0 -0.68035018070E+01 -0.27555229964E+02  0.22600665049E+03  0.22778187900E+03  0.00000000000E+00 0.  1.
         14    1    5    5    0    0 -0.27342049920E+03 -0.12913473442E+03  0.24706543751E+04  0.24890897112E+04  0.00000000000E+00 0. -1.
         13    1    3    3    0    0  0.18210509534E+03 -0.30058149903E+02  0.15209421229E+03  0.23916188563E+03  0.00000000000E+00 0. -1.
        -14    1    3    3    0    0  0.11774953867E+02 -0.13743171567E+02  0.57500364609E+02  0.60281143266E+02  0.00000000000E+00 0.  1.
          5    1    4    4  501    0  0.10579646164E+03  0.20274798522E+03  0.18170615286E+03  0.29212024099E+03  0.41800000000E+01 0.  1.
         -5    1    4    4    0  501 -0.19452509842E+02 -0.22566993644E+01  0.33162645623E+02  0.38739208767E+02  0.41800000000E+01 0.  1.
</event>
<event>
11    1  0.1078607E-008  0.1464184E+03  0.7561462E-02  0.1100596E+00
         22   -1    0    0    0    0  0.00000000000E+00  0.00000000000E+00  0.58975713823E+03  0.58975713823E+03  0.00000000000E+00 0. -1.
         22   -1    0    0    0    0 -0.00000000000E+00 -0.00000000000E+00 -0.27158567659E+03  0.27158567659E+03  0.00000000000E+00 0.  1.
         24    2    1    2    0    0 -0.75528731421E+02 -0.19736258901E+01 -0.21752891341E+03  0.24332068367E+03  0.78597980014E+02 0.  0.
         25    2    1    2    0    0  0.83415923703E+02 -0.40611003280E+02  0.13203958414E+03  0.20417970897E+03  0.12508969526E+03 0.  0.
        -24    2    1    2    0    0 -0.78871922821E+01  0.42584629170E+02  0.40366079090E+03  0.41384242218E+03  0.80298554442E+02 0.  0.
        -11    1    3    3    0    0 -0.66621960839E+02 -0.27377922088E+02 -0.19610971931E+03  0.20891878396E+03  0.00000000000E+00 0.  1.
         12    1    3    3    0    0 -0.89067705827E+01  0.25404296198E+02 -0.21419194096E+02  0.34401899704E+02  0.00000000000E+00 0. -1.
         13    1    5    5    0    0 -0.25809680133E+02  0.12217783361E+02  0.33892814102E+03  0.34012894407E+03  0.00000000000E+00 0. -1.
        -14    1    5    5    0    0  0.17922487851E+02  0.30366845810E+02  0.64732649880E+02  0.73713478114E+02  0.00000000000E+00 0.  1.
          5    1    4    4  501    0 -0.28167509986E+02 -0.74970365638E+01  0.61053543541E+02  0.67783639287E+02  0.41800000000E+01 0.  1.
         -5    1    4    4    0  501  0.11158343369E+03 -0.33113966717E+02  0.70986040601E+02  0.13639606969E+03  0.41800000000E+01 0.  1.
</event>
<event>
11    1  0.1078607E-008  0.2743785E+03  0.7561462E-02  0.1011658E+00
         22   -1    0    0    0    0  0.00000000000E+00  0.00000000000E+00  0.13990255769E+04  0.13990255769E+04  0.00000000000E+00 0.  1.
         22   -1    0    0    0    0 -0.00000000000E+00 -0.00000000000E+00 -0.14063349612E+04  0.14063349612E+04  0.00000000000E+00 0. -1.
        -24    2    1    2    0    0  0.21087988276E+03  0.12179510701E+03 -0.13589029120E+04  0.13841715912E+04  0.10004747175E+03 0.  0.
         25    2    1    2    0    0 -0.26094166262E+03 -0.12207156761E+03  0.76404806030E+03  0.82608034192E+03  0.12508906407E+03 0.  0.
         24    2    1    2    0    0  0.50061779861E+02  0.27646060064E+00  0.58754546745E+03  0.59510860492E+03  0.80239124469E+02 0.  0.
        -11    1    5    5    0    0  0.56376810271E+02  0.42372123398E+01  0.58421486802E+03  0.58694404394E+03  0.00000000000E+00 0.  1.
         12    1    5    5    0    0 -0.63150304099E+01 -0.39607517391E+01  0.33305994337E+01  0.81645609805E+01  0.00000000000E+00 0. -1.
         11    1    3    3    0    0  0.21473880040E+03  0.10304213330E+03 -0.13131202736E+04  0.13345468469E+04  0.00000000000E+00 0. -1.
        -12    1    3    3    0    0 -0.38589176420E+01  0.18752973709E+02 -0.45782638436E+02  0.49624744336E+02  0.00000000000E+00 0.  1.
          5    1    4    4  501    0 -0.68461405665E+01 -0.33886417788E+02  0.36734049385E+02  0.50616417646E+02  0.41800000000E+01 0.  1.
         -5    1    4    4    0  501 -0.25409552205E+03 -0.88185149822E+02  0.72731401091E+03  0.77546392427E+03  0.41800000000E+01 0.  1.
</event>
<event>
11    1  0.1078607E-008  0.2087944E+03  0.7561462E-02  0.1048473E+00
         22   -1    0    0    0    0  0.00000000000E+00  0.00000000000E+00  0.17308482384E+04  0.17308482384E+04  0.00000000000E+00 0. -1.
         22   -1    0    0    0    0 -0.00000000000E+00 -0.00000000000E+00 -0.94769093154E+03  0.94769093154E+03  0.00000000000E+00 0. -1.
         24    2    1    2    0    0 -0.27882271424E+02 -0.32599715384E+02 -0.83865890574E+03  0.84443277063E+03  0.88756866961E+02 0.  0.
         25    2    1    2    0    0 -0.22280900115E+02  0.19088905929E+03  0.29384024731E+02  0.23118275597E+03  0.12508786624E+03 0.  0.
        -24    2    1    2    0    0  0.50163171540E+02 -0.15828934391E+03  0.15924321878E+04  0.16029236433E+04  0.77149680851E+02 0.  0.
        -13    1    3    3    0    0  0.30805742833E+02  0.35366962450E+00 -0.22675396171E+03  0.22883723042E+03  0.00000000000E+00 0.  1.
         14    1    3    3    0    0 -0.58688014258E+02 -0.32953385009E+02 -0.61190494403E+03  0.61559554021E+03  0.00000000000E+00 0. -1.
         11    1    5    5    0    0  0.68432345214E+02 -0.11128635636E+03  0.10343664800E+04  0.10425841232E+04  0.00000000000E+00 0. -1.
        -12    1    5    5    0    0 -0.18269173675E+02 -0.47002987547E+02  0.55806570784E+03  0.56033952013E+03  0.00000000000E+00 0.  1.
          5    1    4    4  501    0 -0.72039439711E+02  0.84054520316E+02  0.22582871364E+02  0.11305884193E+03  0.41800000000E+01 0. -1.
         -5    1    4    4    0  501  0.49758539596E+02  0.10683453897E+03  0.68011533672E+01  0.11812391404E+03  0.41800000000E+01 0. -1.
</event>
<event>
11    1  0.1078607E-008  0.1791066E+03  0.7561462E-02  0.1070368E+00
         22   -1    0    0    0    0  0.00000000000E+00  0.00000000000E+00  0.60115576767E+03  0.60115576767E+03  0.00000000000E+00 0. -1.
         22   -1    0    0    0    0 -0.00000000000E+00 -0.00000000000E+00 -0.74142096307E+03  0.74142096307E+03  0.00000000000E+00 0.  1.
        -24    2    1    2    0    0 -0.12398917466E+03  0.34746630145E+02 -0.64885590663E+03  0.66680461496E+03  0.83867533822E+02 0.  0.
         25    2    1    2    0    0  0.84887757921E+02 -0.13027193712E+03  0.59309831659E+02  0.20818997734E+03  0.12509477003E+03 0.  0.
         24    2    1    2    0    0  0.39101416740E+02  0.95525306972E+02  0.44928087957E+03  0.46758213843E+03  0.78267121912E+02 0.  0.
        -11    1    5    5    0    0  0.39153199147E+02  0.34042302268E+02  0.97268172212E+02  0.11024041306E+03  0.00000000000E+00 0.  1.
         12    1    5    5    0    0 -0.51782406261E-01  0.61483004703E+02  0.35201270735E+03  0.35734172537E+03  0.00000000000E+00 0. -1.
         11    1    3    3    0    0 -0.44554177110E+02  0.15423852841E+02 -0.86298941474E+02  0.98338584665E+02  0.00000000000E+00 0. -1.
        -12    1    3    3    0    0 -0.79434997552E+02  0.19322777305E+02 -0.56255696516E+03  0.56846603030E+03  0.00000000000E+00 0.  1.
          5    1    4    4  501    0  0.85275430900E+02 -0.33443632286E+02 -0.50736683959E+01  0.91834580451E+02  0.41800000000E+01 0.  1.
         -5    1    4    4    0  501 -0.38767297887E+00 -0.96828304831E+02  0.64383500055E+02  0.11635539689E+03  0.41800000000E+01 0.  1.
</event>
<event>
11    1  0.1078607E-008  0.1690777E+03  0.7561462E-02  0.1078837E+00
         22   -1    0    0    0    0  0.00000000000E+00  0.00000000000E+00  0.20675534752E+04  0.20675534752E+04  0.00000000000E+00 0.  1.
         22   -1    0    0    0    0 -0.00000000000E+00 -0.00000000000E+00 -0.60330372915E+03  0.60330372915E+03  0.00000000000E+00 0.  1.
         24    2    1    2    0    0 -0.22185434510E+02  0.10323455277E+03 -0.44844208791E+03  0.46711645360E+03  0.77122685537E+02 0.  0.
         25    2    1    2    0    0  0.18824363123E+02 -0.19817844224E+03 -0.47274615774E+02  0.23981467147E+03  0.12508851162E+03 0.  0.
        -24    2    1    2    0    0  0.33610713869E+01  0.94943889470E+02  0.19599664497E+04  0.19639260792E+04  0.80694001054E+02 0.  0.
        -13    1    3    3    0    0 -0.15896683174E+02  0.11260104732E+03 -0.34954045997E+03  0.36757343967E+03  0.00000000000E+00 0.  1.
         14    1    3    3    0    0 -0.62887513358E+01 -0.93664945485E+01 -0.98901627940E+02  0.99543013932E+02  0.00000000000E+00 0. -1.
         11    1    5    5    0    0  0.14177399380E+02  0.35425788550E+00  0.63194701160E+02  0.64766460507E+02  0.00000000000E+00 0. -1.
        -12    1    5    5    0    0 -0.10816327993E+02  0.94589631584E+02  0.18967717485E+04  0.18991596187E+04  0.00000000000E+00 0.  1.
          5    1    4    4  501    0  0.51691987560E+02 -0.23524310418E+02 -0.17456758028E+02  0.59562283027E+02  0.41800000000E+01 0. -1.
         -5    1    4    4    0  501 -0.32867624437E+02 -0.17465413182E+03 -0.29817857746E+02  0.18025238844E+03  0.41800000000E+01 0. -1.
</event>
<event>
11    1  0.1078607E-008  0.1562220E+03  0.7561462E-02  0.1090685E+00
         22   -1    0    0    0    0  0.00000000000E+00  0.00000000000E+00  0.10162647286E+04  0.10162647286E+04  0.00000000000E+00 0.  1.
         22   -1    0    0    0    0 -0.00000000000E+00 -0.00000000000E+00 -0.24038865917E+04  0.24038865917E+04  0.00000000000E+00 0. -1.
         24    2    1    2    0    0 -0.38622647680E+02  0.32610564943E+02 -0.23258649560E+04  0.23272306528E+04  0.61640570527E+02 0.  0.
         25    2    1    2    0    0  0.12959278007E+03 -0.20543463985E+02  0.38900494654E+02  0.18541062301E+03  0.12509007986E+03 0.  0.
        -24    2    1    2    0    0 -0.90970132394E+02 -0.12067100958E+02  0.89934259827E+03  0.90751004453E+03  0.79600200689E+02 0.  0.
        -11    1    3    3    0    0  0.44166386638E+01 -0.78530971694E+01 -0.10101785524E+04  0.10102187315E+04  0.00000000000E+00 0.  1.
         12    1    3    3    0    0 -0.43039286344E+02  0.40463662112E+02 -0.13156864036E+04  0.13170119212E+04  0.00000000000E+00 0. -1.
         11    1    5    5    0    0 -0.13377977040E+02 -0.17809998846E+02  0.51574174830E+02  0.56178837991E+02  0.00000000000E+00 0. -1.
        -12    1    5    5    0    0 -0.77592155354E+02  0.57428978884E+01  0.84776842344E+03  0.85133120654E+03  0.00000000000E+00 0.  1.
          5    1    4    4  501    0  0.10087467994E+03 -0.23591582692E+02 -0.32191069587E+02  0.10856335103E+03  0.41800000000E+01 0. -1.
         -5    1    4    4    0  501  0.28718100135E+02  0.30481187073E+01  0.71091564241E+02  0.76847271970E+02  0.41800000000E+01 0. -1.
</event>
<event>
11    1  0.1078607E-008  0.1713325E+03  0.7561462E-02  0.1076878E+00
         22   -1    0    0    0    0  0.00000000000E+00  0.00000000000E+00  0.13894761845E+04  0.13894761845E+04  0.00000000000E+00 0.  1.
         22   -1    0    0    0    0 -0.00000000000E+00 -0.00000000000E+00 -0.43869310720E+03  0.43869310720E+03  0.00000000000E+00 0.  1.
         24    2    1    2    0    0 -0.57264958228E+02  0.33762143188E+02 -0.24831752764E+03  0.26936707389E+03  0.80485204908E+02 0.  0.
         25    2    1    2    0    0 -0.59257403191E+02 -0.53223992777E+02 -0.14489902740E+03  0.20733197161E+03  0.12508631047E+03 0.  0.
        -24    2    1    2    0    0  0.11652236142E+03  0.19461849588E+02  0.13439996324E+04  0.13514702462E+04  0.78616730663E+02 0.  0.
        -13    1    3    3    0    0 -0.33627310718E+02  0.44188713502E+02 -0.23257821423E+03  0.23911516924E+03  0.00000000000E+00 0.  1.
         14    1    3    3    0    0 -0.23637647510E+02 -0.10426570314E+02 -0.15739313414E+02  0.30251904652E+02  0.00000000000E+00 0. -1.
         11    1    5    5    0    0  0.28641536604E+00 -0.14656220187E+02  0.31905838699E+03  0.31939496103E+03  0.00000000000E+00 0. -1.
        -12    1    5    5    0    0  0.11623594605E+03  0.34118069776E+02  0.10249412454E+04  0.10320752852E+04  0.00000000000E+00 0.  1.
          5    1    4    4  501    0 -0.60630104681E+02  0.94401326162E+01 -0.15400976784E+02  0.63401799528E+02  0.41800000000E+01 0.  1.
         -5    1    4    4    0  501  0.13727014904E+01 -0.62664125393E+02 -0.12949805062E+03  0.14393017208E+03  0.41800000000E+01 0.  1.
</event>
<event>
11    1  0.1078607E-008  0.1323237E+03  0.7561462E-02  0.1116446E+00
         22   -1    0    0    0    0  0.00000000000E+00  0.00000000000E+00  0.81186448214E+02  0.81186448214E+02  0.00000000000E+00 0. -1.
         22   -1    0    0    0    0 -0.00000000000E+00 -0.00000000000E+00 -0.77328393786E+03  0.77328393786E+03  0.00000000000E+00 0.  1.
         24    2    1    2    0    0 -0.21149645083E+02 -0.48835164151E+02 -0.44554313118E+03  0.45866518226E+03  0.95041501099E+02 0.  0.
         25    2    1    2    0    0  0.36457522111E+02  0.20516369965E+01 -0.26946452566E+03  0.29932154733E+03  0.12509555537E+03 0.  0.
        -24    2    1    2    0    0 -0.15307877028E+02  0.46783527155E+02  0.22910167199E+02  0.96483656478E+02  0.79757073004E+02 0.  0.
        -13    1    3    3    0    0  0.20222326083E+02 -0.62196594500E+02 -0.27435063458E+03  0.28203834763E+03  0.00000000000E+00 0.  1.
         14    1    3    3    0    0 -0.41371971166E+02  0.13361430349E+02 -0.17119249661E+03  0.17662683464E+03  0.00000000000E+00 0. -1.
         13    1    5    5    0    0 -0.29903015324E+02  0.59457795251E+02  0.33428119971E+02  0.74477237774E+02  0.00000000000E+00 0. -1.
        -14    1    5    5    0    0  0.14595138297E+02 -0.12674268096E+02 -0.10517952772E+02  0.22006418705E+02  0.00000000000E+00 0.  1.
          5    1    4    4  501    0 -0.29568085655E+00 -0.25793677485E+02 -0.22775972113E+00  0.26132843318E+02  0.41800000000E+01 0.  1.
         -5    1    4    4    0  501  0.36753202967E+02  0.27845314482E+02 -0.26923676594E+03  0.27318870401E+03  0.41800000000E+01 0.  1.
</event>
<event>
11    1  0.1078607E-008  0.1386876E+03  0.7561462E-02  0.1109033E+00
         22   -1    0    0    0    0  0.00000000000E+00  0.00000000000E+00  0.12183424701E+04  0.12183424701E+04  0.00000000000E+00 0.  1.
         22   -1    0    0    0    0 -0.00000000000E+00 -0.00000000000E+00 -0.31953431415E+04  0.31953431415E+04  0.00000000000E+00 0. -1.
         24    2    1    2    0    0  0.57792951766E+02 -0.10005046387E+02 -0.29019670314E+04  0.29037195942E+04  0.82065243385E+02 0.  0.
         25    2    1    2    0    0 -0.84627742190E+02  0.30182639624E+02 -0.27055290571E+03  0.31131886520E+03  0.12509082523E+03 0.  0.
        -24    2    1    2    0    0  0.26834790423E+02 -0.20177593238E+02  0.11955192657E+04  0.11986471522E+04  0.79758633190E+02 0.  0.
        -11    1    3    3    0    0  0.43370958802E+02  0.33186349128E+01 -0.56562756220E+03  0.56729762253E+03  0.00000000000E+00 0.  1.
         12    1    3    3    0    0  0.14421992965E+02 -0.13323681299E+02 -0.23363394692E+04  0.23364219717E+04  0.00000000000E+00 0. -1.
         13    1    5    5    0    0  0.96898930308E+01 -0.32833467127E+02  0.20062895254E+03  0.20352863972E+03  0.00000000000E+00 0. -1.
        -14    1    5    5    0    0  0.17144897393E+02  0.12655873890E+02  0.99489031315E+03  0.99511851247E+03  0.00000000000E+00 0.  1.
          5    1    4    4  501    0  0.12030080428E+02  0.13266404456E+02 -0.16915836914E+03  0.17015506625E+03  0.41800000000E+01 0. -1.
         -5    1    4    4    0  501 -0.96657822618E+02  0.16916235168E+02 -0.10139453658E+03  0.14116379895E+03  0.41800000000E+01 0. -1.
</event>
<event>
11    1  0.1078607E-008  0.1339691E+03  0.7561462E-02  0.1114486E+00
         22   -1    0    0    0    0  0.00000000000E+00  0.00000000000E+00  0.17258817587E+04  0.17258817587E+04  0.00000000000E+00 0. -1.
         22   -1    0    0    0    0 -0.00000000000E+00 -0.00000000000E+00 -0.26297889879E+02  0.26297889879E+02  0.00000000000E+00 0. -1.
         24    2    1    2    0    0 -0.46150868910E+02 -0.26845628504E+02  0.11222523020E+03  0.14631524450E+03  0.77220839201E+02 0.  0.
         25    2    1    2    0    0  0.27825893143E+02 -0.15819268780E+00  0.55643808655E+03  0.57100235279E+03  0.12508412117E+03 0.  0.
        -24    2    1    2    0    0  0.18324975768E+02  0.27003821192E+02  0.10309205520E+04  0.10348620513E+04  0.84126508565E+02 0.  0.
        -11    1    3    3    0    0 -0.47771393665E+02 -0.46133410787E+02  0.10755184192E+03  0.12640330828E+03  0.00000000000E+00 0.  1.
         12    1    3    3    0    0  0.16205247545E+01  0.19287782283E+02  0.46733882833E+01  0.19911936218E+02  0.00000000000E+00 0. -1.
         13    1    5    5    0    0  0.35086262387E+02  0.44816830355E+00  0.88048060887E+03  0.88117952158E+03  0.00000000000E+00 0. -1.
        -14    1    5    5    0    0 -0.16761286619E+02  0.26555652888E+02  0.15043994316E+03  0.15368252968E+03  0.00000000000E+00 0.  1.
          5    1    4    4  501    0 -0.49568171847E+02 -0.51328908468E+01  0.24217352903E+03  0.24728291649E+03  0.41800000000E+01 0.  1.
         -5    1    4    4    0  501  0.77394064990E+02  0.49746981590E+01  0.31426455752E+03  0.32371943629E+03  0.41800000000E+01 0.  1.
</event>
<event>
11    1  0.1078607E-008  0.1617797E+03  0.7561462E-02  0.1085415E+00
         22   -1    0    0    0    0  0.00000000000E+00  0.00000000000E+00  0.15596061455E+04  0.15596061455E+04  0.00000000000E+00 0. -1.
         22   -1    0    0    0    0 -0.00000000000E+00 -0.00000000000E+00 -0.24607004540E+03  0.24607004540E+03  0.00000000000E+00 0. -1.
        -24    2    1    2    0    0 -0.86407038237E+02 -0.33479070727E+02 -0.10961052117E+03  0.16332254406E+03  0.77927932178E+02 0.  0.
         25    2    1    2    0    0  0.10808717130E+03  0.80514221365E+02 -0.29736210933E+02  0.18627539813E+03  0.12509558451E+03 0.  0.
         24    2    1    2    0    0 -0.21680133065E+02 -0.47035150638E+02  0.14528828322E+04  0.14560782487E+04  0.81320407824E+02 0.  0.
        -13    1    5    5    0    0 -0.30004839028E+01  0.22027025718E+02  0.21970038418E+03  0.22082221712E+03  0.00000000000E+00 0.  1.
         14    1    5    5    0    0 -0.18679649163E+02 -0.69062176356E+02  0.12331824480E+04  0.12352560316E+04  0.00000000000E+00 0. -1.
         11    1    3    3    0    0 -0.70553739084E+02 -0.57315042114E+02 -0.93805103790E+02  0.13062251585E+03  0.00000000000E+00 0. -1.
        -12    1    3    3    0    0 -0.15853299153E+02  0.23835971388E+02 -0.15805417377E+02  0.32700028203E+02  0.00000000000E+00 0.  1.
          5    1    4    4  501    0  0.27712106647E+02  0.59934707796E+02  0.40427321550E+02  0.77536899481E+02  0.41800000000E+01 0. -1.
         -5    1    4    4    0  501  0.80375064655E+02  0.20579513569E+02 -0.70163532483E+02  0.10873849864E+03  0.41800000000E+01 0. -1.
</event>
<event>
11    1  0.1078607E-008  0.1353646E+03  0.7561462E-02  0.1112848E+00
         22   -1    0    0    0    0  0.00000000000E+00  0.00000000000E+00  0.40514105352E+03  0.40514105352E+03  0.00000000000E+00 0.  1.
         22   -1    0    0    0    0 -0.00000000000E+00 -0.00000000000E+00 -0.61845953091E+03  0.61845953091E+03  0.00000000000E+00 0. -1.
        -24    2    1    2    0    0 -0.28825918468E+02  0.68476300563E+01 -0.51488474874E+03  0.52201793711E+03  0.80737838473E+02 0.  0.
         25    2    1    2    0    0  0.78384130432E+02 -0.39930324293E+00 -0.35538127422E+02  0.15183766464E+03  0.12508991388E+03 0.  0.
         24    2    1    2    0    0 -0.49558211965E+02 -0.64483268134E+01  0.33710439877E+03  0.34974498268E+03  0.78642100377E+02 0.  0.
        -13    1    5    5    0    0 -0.13274559791E+02 -0.40730521564E+02  0.17237078361E+03  0.17761440361E+03  0.00000000000E+00 0.  1.
         14    1    5    5    0    0 -0.36283652173E+02  0.34282194751E+02  0.16473361515E+03  0.17213057908E+03  0.00000000000E+00 0. -1.
         13    1    3    3    0    0  0.13595422164E+02 -0.27315102257E+02 -0.14802023035E+03  0.15113219018E+03  0.00000000000E+00 0. -1.
        -14    1    3    3    0    0 -0.42421340632E+02  0.34162732313E+02 -0.36686451839E+03  0.37088574693E+03  0.00000000000E+00 0.  1.
          5    1    4    4  501    0 -0.15456102496E+02  0.38654784560E+02  0.53883984341E+01  0.42185195406E+02  0.41800000000E+01 0. -1.
         -5    1    4    4    0  501  0.93840232928E+02 -0.39054087803E+02 -0.40926525856E+02  0.10965246923E+03  0.41800000000E+01 0. -1.
</event>
<event>
11    1  0.1078607E-008  0.1499867E+03  0.7561462E-02  0.1096892E+00
         22   -1    0    0    0    0  0.00000000000E+00  0.00000000000E+00  0.10537034314E+04  0.10537034314E+04  0.00000000000E+00 0.  1.
         22   -1    0    0    0    0 -0.00000000000E+00 -0.00000000000E+00 -0.10520501509E+04  0.10520501509E+04  0.00000000000E+00 0.  1.
        -24    2    1    2    0    0 -0.57806547596E+02 -0.61239047787E+02 -0.88166128832E+03  0.88937410828E+03  0.81042329970E+02 0.  0.
         25    2    1    2    0    0  0.84479735448E+02  0.13632852718E+02 -0.12925230836E+03  0.19918962292E+03  0.12509063229E+03 0.  0.
         24    2    1    2    0    0 -0.26673187851E+02  0.47606195069E+02  0.10125668772E+04  0.10171898511E+04  0.80035640369E+02 0.  0.
        -11    1    5    5    0    0 -0.18235653800E+01  0.63723301467E+02  0.80502084831E+03  0.80754105205E+03  0.00000000000E+00 0.  1.
         12    1    5    5    0    0 -0.24849622471E+02 -0.16117106398E+02  0.20754602887E+03  0.20964879908E+03  0.00000000000E+00 0. -1.
         13    1    3    3    0    0 -0.33823674310E+02 -0.79598420964E+02 -0.63089470851E+03  0.63679516549E+03  0.00000000000E+00 0. -1.
        -14    1    3    3    0    0 -0.23982873286E+02  0.18359373178E+02 -0.25076657981E+03  0.25257894280E+03  0.00000000000E+00 0.  1.
          5    1    4    4  501    0  0.96772467097E+02  0.43237818886E+02 -0.57882564140E+02  0.12083990649E+03  0.41800000000E+01 0. -1.
         -5    1    4    4    0  501 -0.12292731649E+02 -0.29604966169E+02 -0.71369744223E+02  0.78349716424E+02  0.41800000000E+01 0. -1.
</event>
<event>
11    1  0.1078607E-008  0.2912214E+03  0.7561462E-02  0.1003976E+00
         22   -1    0    0    0    0  0.00000000000E+00  0.00000000000E+00  0.12639396232E+04  0.12639396232E+04  0.00000000000E+00 0. -1.
         22   -1    0    0    0    0 -0.00000000000E+00 -0.00000000000E+00 -0.13909959893E+03  0.13909959893E+03  0.00000000000E+00 0. -1.
         24    2    1    2    0    0 -0.22629722167E+03  0.22844521409E+03  0.24634849340E+03  0.41308874346E+03  0.80975807488E+02 0.  0.
         25    2    1    2    0    0  0.15055720863E+03 -0.14410875464E+03  0.25946772993E+03  0.35553581077E+03  0.12508958241E+03 0.  0.
        -24    2    1    2    0    0  0.75740013036E+02 -0.84336459451E+02  0.61902380097E+03  0.63441466794E+03  0.80264044020E+02 0.  0.
        -13    1    3    3    0    0 -0.15929091440E+03  0.12647852377E+03  0.11435116456E+03  0.23333795495E+03  0.00000000000E+00 0.  1.
         14    1    3    3    0    0 -0.67006307270E+02  0.10196669032E+03  0.13199732884E+03  0.17975078851E+03  0.00000000000E+00 0. -1.
         11    1    5    5    0    0  0.18823258390E+02 -0.59956094189E+02  0.17194817960E+03  0.18307163832E+03  0.00000000000E+00 0. -1.
        -12    1    5    5    0    0  0.56916754647E+02 -0.24380365262E+02  0.44707562136E+03  0.45134302962E+03  0.00000000000E+00 0.  1.
          5    1    4    4  501    0  0.21689776825E+02 -0.76583491948E+02  0.32861557831E+02  0.86213873830E+02  0.41800000000E+01 0. -1.
         -5    1    4    4    0  501  0.12886743180E+03 -0.67525262688E+02  0.22660617210E+03  0.26932193693E+03  0.41800000000E+01 0. -1.
</event>
<event>
11    1  0.1078607E-008  0.1981355E+03  0.7561462E-02  0.1055850E+00
         22   -1    0    0    0    0  0.00000000000E+00  0.00000000000E+00  0.11199602506E+04  0.11199602506E+04  0.00000000000E+00 0. -1.
         22   -1    0    0    0    0 -0.00000000000E+00 -0.00000000000E+00 -0.83841818897E+03  0.83841818897E+03  0.00000000000E+00 0. -1.
        -24    2    1    2    0    0  0.14546887100E+03  0.49543740221E+02 -0.79571000847E+03  0.81437056161E+03  0.80182413356E+02 0.  0.
         25    2    1    2    0    0 -0.12314677985E+03 -0.11217746550E+03  0.33452697049E+03  0.39408570063E+03  0.12508530011E+03 0.  0.
         24    2    1    2    0    0 -0.22322091155E+02  0.62633725284E+02  0.74272509963E+03  0.74992217735E+03  0.79507478649E+02 0.  0.
        -13    1    5    5    0    0 -0.14915473316E+02 -0.14286547130E+02  0.76811669720E+02  0.79539986034E+02  0.00000000000E+00 0.  1.
         14    1    5    5    0    0 -0.74066178397E+01  0.76920272413E+02  0.66591342991E+03  0.67038219131E+03  0.00000000000E+00 0. -1.
         13    1    3    3    0    0  0.10507212930E+03  0.31040650225E+02 -0.70388045838E+03  0.71235621287E+03  0.00000000000E+00 0. -1.
        -14    1    3    3    0    0  0.40396741701E+02  0.18503089996E+02 -0.91829550086E+02  0.10201434874E+03  0.00000000000E+00 0.  1.
          5    1    4    4  501    0  0.55982259294E+01 -0.55965608079E+02  0.44649097289E+02  0.71934023312E+02  0.41800000000E+01 0. -1.
         -5    1    4    4    0  501 -0.12874500578E+03 -0.56211857426E+02  0.28987787320E+03  0.32215167732E+03  0.41800000000E+01 0. -1.
</event>
<event>
11    1  0.1078607E-008  0.1818306E+03  0.7561462E-02  0.1068172E+00
         22   -1    0    0    0    0  0.00000000000E+00  0.00000000000E+00  0.64972183975E+02  0.64972183975E+02  0.00000000000E+00 0. -1.
         22   -1    0    0    0    0 -0.00000000000E+00 -0.00000000000E+00 -0.22998750903E+04  0.22998750903E+04  0.00000000000E+00 0.  1.
         24    2    1    2    0    0  0.92936014197E+02 -0.10452798731E+03 -0.19793904712E+04  0.19860139283E+04  0.81862584849E+02 0.  0.
         25    2    1    2    0    0 -0.15225017158E+02  0.83056809422E+02 -0.20607958711E+03  0.25543557871E+03  0.12509318091E+03 0.  0.
        -24    2    1    2    0    0 -0.77710997039E+02  0.21471177891E+02 -0.49432847985E+02  0.12339776730E+03  0.79267849554E+02 0.  0.
        -11    1    3    3    0    0  0.55789473211E+02 -0.23206649093E+02 -0.45365602605E+03  0.45766232514E+03  0.00000000000E+00 0.  1.
         12    1    3    3    0    0  0.37146540986E+02 -0.81321338221E+02 -0.15257344452E+04  0.15283516031E+04  0.00000000000E+00 0. -1.
         11    1    5    5    0    0 -0.12636233998E+02  0.37451376000E+02 -0.39100097259E+02  0.55597640054E+02  0.00000000000E+00 0. -1.
        -12    1    5    5    0    0 -0.65074763042E+02 -0.15980198108E+02 -0.10332750726E+02  0.67800127242E+02  0.00000000000E+00 0.  1.
          5    1    4    4  501    0 -0.41309892699E+01 -0.30919862545E+02 -0.74957692380E+02  0.81297177190E+02  0.41800000000E+01 0. -1.
         -5    1    4    4    0  501 -0.11094027888E+02  0.11397667197E+03 -0.13112189473E+03  0.17413840152E+03  0.41800000000E+01 0. -1.
</event>
<event>
11    1  0.1078607E-008  0.1978479E+03  0.7561462E-02  0.1056056E+00
         22   -1    0    0    0    0  0.00000000000E+00  0.00000000000E+00  0.14843356967E+04  0.14843356967E+04  0.00000000000E+00 0. -1.
         22   -1    0    0    0    0 -0.00000000000E+00 -0.00000000000E+00 -0.35100302600E+03  0.35100302600E+03  0.00000000000E+00 0.  1.
         24    2    1    2    0    0 -0.25613749251E+02 -0.59787916328E+02 -0.27511038255E+03  0.29387900317E+03  0.80302470891E+02 0.  0.
         25    2    1    2    0    0  0.11490214787E+02  0.20740105414E+03  0.18137860163E+03  0.30280954472E+03  0.12509276938E+03 0.  0.
        -24    2    1    2    0    0  0.14123534463E+02 -0.14761313781E+03  0.12270644516E+04  0.12386501748E+04  0.81104712838E+02 0.  0.
        -11    1    3    3    0    0 -0.31015833194E+02 -0.44087961766E+02 -0.71250335896E+02  0.89343945775E+02  0.00000000000E+00 0.  1.
         12    1    3    3    0    0  0.54020839432E+01 -0.15699954562E+02 -0.20386004665E+03  0.20453505740E+03  0.00000000000E+00 0. -1.
         13    1    5    5    0    0  0.34801164141E+02 -0.85308309485E+02  0.92260210113E+03  0.92719106213E+03  0.00000000000E+00 0. -1.
        -14    1    5    5    0    0 -0.20677629678E+02 -0.62304828324E+02  0.30446235045E+03  0.31145911264E+03  0.00000000000E+00 0.  1.
          5    1    4    4  501    0  0.66188329026E+02  0.81074500246E+02  0.79686910968E+02  0.13161096333E+03  0.41800000000E+01 0.  1.
         -5    1    4    4    0  501 -0.54698114239E+02  0.12632655389E+03  0.10169169066E+03  0.17119858138E+03  0.41800000000E+01 0.  1.
</event>
<event>
11    1  0.1078607E-008  0.1632303E+03  0.7561462E-02  0.1084078E+00
         22   -1    0    0    0    0  0.00000000000E+00  0.00000000000E+00  0.62297103298E+03  0.62297103298E+03  0.00000000000E+00 0. -1.
         22   -1    0    0    0    0 -0.00000000000E+00 -0.00000000000E+00 -0.40352470883E+04  0.40352470883E+04  0.00000000000E+00 0.  1.
         24    2    1    2    0    0 -0.29952912837E+02 -0.27978125967E+02 -0.14817395727E+04  0.14847294001E+04  0.84789609056E+02 0.  0.
         25    2    1    2    0    0 -0.12559372682E+02  0.12379602548E+03 -0.25415320010E+04  0.25476490506E+04  0.12509028408E+03 0.  0.
        -24    2    1    2    0    0  0.42512285519E+02 -0.95817899517E+02  0.61099551836E+03  0.62583967056E+03  0.85856889660E+02 0.  0.
        -11    1    3    3    0    0 -0.10559060145E+02 -0.19506514282E+02 -0.14035806679E+04  0.14037559223E+04  0.00000000000E+00 0.  1.
         12    1    3    3    0    0 -0.19393852693E+02 -0.84716116854E+01 -0.78158904735E+02  0.80973477856E+02  0.00000000000E+00 0. -1.
         13    1    5    5    0    0  0.49662089094E+02 -0.10866172461E+03  0.56710042438E+03  0.57954860436E+03  0.00000000000E+00 0. -1.
        -14    1    5    5    0    0 -0.71498035749E+01  0.12843825089E+02  0.43895093983E+02  0.46291066199E+02  0.00000000000E+00 0.  1.
          5    1    4    4  501    0 -0.12669355651E+02  0.60135346762E+02 -0.36344302491E+03  0.36862593135E+03  0.41800000000E+01 0.  1.
         -5    1    4    4    0  501  0.10998296917E+00  0.63660678722E+02 -0.21780889761E+04  0.21790231193E+04  0.41800000000E+01 0.  1.
</event>
<event>
11    1  0.1078607E-008  0.1361026E+03  0.7561462E-02  0.1111990E+00
         22   -1    0    0    0    0  0.00000000000E+00  0.00000000000E+00  0.32455530294E+03  0.32455530294E+03  0.00000000000E+00 0.  1.
         22   -1    0    0    0    0 -0.00000000000E+00 -0.00000000000E+00 -0.71368470166E+03  0.71368470166E+03  0.00000000000E+00 0.  1.
         24    2    1    2    0    0  0.36975341295E+02  0.38083636195E+02 -0.58711974166E+03  0.59524954159E+03  0.82431101592E+02 0.  0.
         25    2    1    2    0    0 -0.59143916572E+02 -0.24783365603E+02 -0.73052934015E+02  0.15841660873E+03  0.12508746011E+03 0.  0.
        -24    2    1    2    0    0  0.22168575278E+02 -0.13300270592E+02  0.27104327696E+03  0.28457385428E+03  0.82761570950E+02 0.  0.
        -11    1    3    3    0    0  0.52740522963E+02  0.53853703604E+02 -0.47351294634E+03  0.47947501969E+03  0.00000000000E+00 0.  1.
         12    1    3    3    0    0 -0.15765181668E+02 -0.15770067409E+02 -0.11360679532E+03  0.11577452190E+03  0.00000000000E+00 0. -1.
         11    1    5    5    0    0 -0.57650076782E+01  0.21205210027E+02  0.20252889934E+02  0.29884373785E+02  0.00000000000E+00 0. -1.
        -12    1    5    5    0    0  0.27933582956E+02 -0.34505480620E+02  0.25079038702E+03  0.25468948049E+03  0.00000000000E+00 0.  1.
          5    1    4    4  501    0  0.37971063273E+02 -0.16279381962E+02 -0.11649023406E+02  0.43127625363E+02  0.41800000000E+01 0.  1.
         -5    1    4    4    0  501 -0.97114979845E+02 -0.85039836404E+01 -0.61403910609E+02  0.11528898337E+03  0.41800000000E+01 0.  1.
</event>
<event>
11    1  0.1078607E-008  0.1676103E+03  0.7561462E-02  0.1080130E+00
         22   -1    0    0    0    0  0.00000000000E+00  0.00000000000E+00  0.46993987092E+03  0.46993987092E+03  0.00000000000E+00 0. -1.
         22   -1    0    0    0    0 -0.00000000000E+00 -0.00000000000E+00 -0.80535791119E+02  0.80535791119E+02  0.00000000000E+00 0.  1.
        -24    2    1    2    0    0  0.94361429015E+02  0.69891965900E+02  0.75223071465E+02  0.15688087825E+03  0.71861904345E+02 0.  0.
         25    2    1    2    0    0 -0.91115925449E+02 -0.41321076768E+02  0.23583823009E+03  0.28508713024E+03  0.12508180442E+03 0.  0.
         24    2    1    2    0    0 -0.32455035658E+01 -0.28570889131E+02  0.78342778240E+02  0.10850765355E+03  0.69350493711E+02 0.  0.
        -11    1    5    5    0    0 -0.38387263033E+01 -0.50742955825E+02  0.42234327798E+02  0.66131095788E+02  0.00000000000E+00 0.  1.
         12    1    5    5    0    0  0.59322273745E+00  0.22172066694E+02  0.36108450442E+02  0.42376557765E+02  0.00000000000E+00 0. -1.
         11    1    3    3    0    0  0.84622232129E+01 -0.14530904435E+02  0.13390617761E+02  0.21495698394E+02  0.00000000000E+00 0. -1.
        -12    1    3    3    0    0  0.85899205802E+02  0.84422870335E+02  0.61832453703E+02  0.13538517985E+03  0.00000000000E+00 0.  1.
          5    1    4    4  501    0 -0.98820266919E+02 -0.10526436143E+02  0.23251527264E+03  0.25289736144E+03  0.41800000000E+01 0. -1.
         -5    1    4    4    0  501  0.77043414703E+01 -0.30794640625E+02  0.33229574489E+01  0.32189768793E+02  0.41800000000E+01 0. -1.
</event>
<event>
11    1  0.1078607E-008  0.1712154E+03  0.7561462E-02  0.1076979E+00
         22   -1    0    0    0    0  0.00000000000E+00  0.00000000000E+00  0.18561269334E+04  0.18561269334E+04  0.00000000000E+00 0. -1.
         22   -1    0    0    0    0 -0.00000000000E+00 -0.00000000000E+00 -0.86884743887E+03  0.86884743887E+03  0.00000000000E+00 0.  1.
        -24    2    1    2    0    0  0.10643635152E+02 -0.11637597018E+03 -0.80437713559E+03  0.81683728638E+03  0.80894516285E+02 0.  0.
         25    2    1    2    0    0 -0.46732548488E+02  0.11387817556E+03  0.77812644004E+02  0.19197456379E+03  0.12508899080E+03 0.  0.
         24    2    1    2    0    0  0.36088913336E+02  0.24977946223E+01  0.17138439861E+04  0.17161625221E+04  0.81510397260E+02 0.  0.
        -11    1    5    5    0    0  0.27558494433E+02  0.92751832887E+00  0.16455602163E+03  0.16685027768E+03  0.00000000000E+00 0.  1.
         12    1    5    5    0    0  0.85304189035E+01  0.15702762935E+01  0.15492879645E+04  0.15493122444E+04  0.00000000000E+00 0. -1.
         11    1    3    3    0    0  0.10161643088E+02 -0.34294178320E+02 -0.50934836241E+03  0.51060268697E+03  0.00000000000E+00 0. -1.
        -12    1    3    3    0    0  0.48199206435E+00 -0.82081791864E+02 -0.29502877318E+03  0.30623459941E+03  0.00000000000E+00 0.  1.
          5    1    4    4  501    0 -0.84792844208E+01  0.13223813110E+03  0.54112866371E+02  0.14319391149E+03  0.41800000000E+01 0.  1.
         -5    1    4    4    0  501 -0.38253264067E+02 -0.18359955539E+02  0.23699777632E+02  0.48780652302E+02  0.41800000000E+01 0.  1.
</event>
<event>
11    1  0.1078607E-008  0.1489585E+03  0.7561462E-02  0.1097948E+00
         22   -1    0    0    0    0  0.00000000000E+00  0.00000000000E+00  0.34022232167E+03  0.34022232167E+03  0.00000000000E+00 0. -1.
         22   -1    0    0    0    0 -0.00000000000E+00 -0.00000000000E+00 -0.80493339318E+03  0.80493339318E+03  0.00000000000E+00 0.  1.
        -24    2    1    2    0    0  0.59119417982E+02  0.55714365448E+02 -0.74044119462E+03  0.74918681661E+03  0.80178097996E+02 0.  0.
         25    2    1    2    0    0 -0.13784574284E+02 -0.88052495761E+02  0.70038635760E+02  0.16880843302E+03  0.12509044752E+03 0.  0.
         24    2    1    2    0    0 -0.45334843698E+02  0.32338130313E+02  0.20569148735E+03  0.22716046523E+03  0.78688539619E+02 0.  0.
        -11    1    5    5    0    0 -0.48838368715E+02 -0.10829473274E+02  0.81436095397E+02  0.95573539139E+02  0.00000000000E+00 0.  1.
         12    1    5    5    0    0  0.35035250162E+01  0.43167603587E+02  0.12425539196E+03  0.13158692609E+03  0.00000000000E+00 0. -1.
         13    1    3    3    0    0  0.47083797937E+02  0.17706801493E+02 -0.16826193024E+03  0.17562030638E+03  0.00000000000E+00 0. -1.
        -14    1    3    3    0    0  0.12035620045E+02  0.38007563955E+02 -0.57217926438E+03  0.57356651023E+03  0.00000000000E+00 0.  1.
          5    1    4    4  501    0  0.37114880600E+02 -0.65310239340E+02  0.82370824093E+02  0.11155880416E+03  0.41800000000E+01 0. -1.
         -5    1    4    4    0  501 -0.50899454884E+02 -0.22742256422E+02 -0.12332188334E+02  0.57249628852E+02  0.41800000000E+01 0. -1.
</event>
<event>
11    1  0.1078607E-008  0.1682702E+03  0.7561462E-02  0.1079547E+00
         22   -1    0    0    0    0  0.00000000000E+00  0.00000000000E+00  0.10700261583E+04  0.10700261583E+04  0.00000000000E+00 0.  1.
         22   -1    0    0    0    0 -0.00000000000E+00 -0.00000000000E+00 -0.56976421652E+03  0.56976421652E+03  0.00000000000E+00 0.  1.
         24    2    1    2    0    0  0.61243991619E+02 -0.45012347033E+02 -0.52245731351E+03  0.53397326880E+03  0.79930403845E+02 0.  0.
         25    2    1    2    0    0  0.35623406800E+02  0.10844484924E+03  0.16440787900E+03  0.23602383994E+03  0.12509192582E+03 0.  0.
        -24    2    1    2    0    0 -0.96867398419E+02 -0.63432502206E+02  0.85831137627E+03  0.86979326604E+03  0.80218026695E+02 0.  0.
        -11    1    3    3    0    0  0.57090289415E+02  0.69938184529E+01 -0.24581420128E+03  0.25245363177E+03  0.00000000000E+00 0.  1.
         12    1    3    3    0    0  0.41537022033E+01 -0.52006165486E+02 -0.27664311223E+03  0.28151963704E+03  0.00000000000E+00 0. -1.
         11    1    5    5    0    0 -0.16945651377E+02 -0.43682223631E+01  0.41969051221E+03  0.42005518984E+03  0.00000000000E+00 0. -1.
        -12    1    5    5    0    0 -0.79921747042E+02 -0.59064279842E+02  0.43862086405E+03  0.44973807620E+03  0.00000000000E+00 0.  1.
          5    1    4    4  501    0  0.55869503149E+02  0.12786526206E+03  0.14709267569E+03  0.20279214547E+03  0.41800000000E+01 0. -1.
         -5    1    4    4    0  501 -0.20246096348E+02 -0.19420412822E+02  0.17315203315E+02  0.33231694470E+02  0.41800000000E+01 0. -1.
</event>
<event>
11    1  0.1078607E-008  0.1541562E+03  0.7561462E-02  0.1092706E+00
         22   -1    0    0    0    0  0.00000000000E+00  0.00000000000E+00  0.16897320900E+04  0.16897320900E+04  0.00000000000E+00 0. -1.
         22   -1    0    0    0    0 -0.00000000000E+00 -0.00000000000E+00 -0.42245885955E+03  0.42245885955E+03  0.00000000000E+00 0. -1.
        -24    2    1    2    0    0  0.69809499071E+02 -0.56030025280E+02 -0.39600483996E+03  0.41400181102E+03  0.81024294877E+02 0.  0.
         25    2    1    2    0    0 -0.85999279939E+02  0.91981731562E+02  0.51616573906E+03  0.54582941908E+03  0.12508464918E+03 0.  0.
         24    2    1    2    0    0  0.16189780868E+02 -0.35951706282E+02  0.11471123313E+04  0.11523597194E+04  0.10252603622E+03 0.  0.
        -13    1    5    5    0    0  0.13783973847E+01  0.31190922007E+02  0.61948709298E+03  0.62027335261E+03  0.00000000000E+00 0.  1.
         14    1    5    5    0    0  0.14811383483E+02 -0.67142628289E+02  0.52762523834E+03  0.53208636681E+03  0.00000000000E+00 0. -1.
         11    1    3    3    0    0  0.37588330213E+02 -0.74125465256E+02 -0.29342977218E+03  0.30497294694E+03  0.00000000000E+00 0. -1.
        -12    1    3    3    0    0  0.32221168857E+02  0.18095439976E+02 -0.10257506779E+03  0.10902886408E+03  0.00000000000E+00 0.  1.
          5    1    4    4  501    0 -0.55546013813E+02  0.11730632879E+03  0.45221111007E+03  0.47048750769E+03  0.41800000000E+01 0. -1.
         -5    1    4    4    0  501 -0.30453266126E+02 -0.25324597224E+02  0.63954628997E+02  0.75341911393E+02  0.41800000000E+01 0. -1.
</event>
<event>
11    1  0.1078607E-008  0.1768621E+03  0.7561462E-02  0.1072210E+00
         22   -1    0    0    0    0  0.00000000000E+00  0.00000000000E+00  0.57351740373E+03  0.57351740373E+03  0.00000000000E+00 0.  1.
         22   -1    0    0    0    0 -0.00000000000E+00 -0.00000000000E+00 -0.43802137678E+03  0.43802137678E+03  0.00000000000E+00 0.  1.
         24    2    1    2    0    0 -0.15313523468E+02  0.50895031014E+02 -0.30920824565E+03  0.32396485517E+03  0.80738342956E+02 0.  0.
         25    2    1    2    0    0  0.37343197138E+02 -0.16894910328E+03 -0.65630922042E+01  0.21360891570E+03  0.12508949122E+03 0.  0.
        -24    2    1    2    0    0 -0.22029673670E+02  0.11805407227E+03  0.45126736481E+03  0.47396500965E+03  0.81108108877E+02 0.  0.
        -13    1    3    3    0    0 -0.21045229786E+02  0.92093377472E+01 -0.25148977217E+03  0.25253676783E+03  0.00000000000E+00 0.  1.
         14    1    3    3    0    0  0.57317063180E+01  0.41685693267E+02 -0.57718473485E+02  0.71428087346E+02  0.00000000000E+00 0. -1.
         11    1    5    5    0    0 -0.33887220519E+02  0.12449490887E+02  0.15700025379E+03  0.16109752707E+03  0.00000000000E+00 0. -1.
        -12    1    5    5    0    0  0.11857546849E+02  0.10560458138E+03  0.29426711102E+03  0.31286748258E+03  0.00000000000E+00 0.  1.
          5    1    4    4  501    0  0.67454845055E+02 -0.16437268999E+03 -0.22220879990E+02  0.17910828357E+03  0.41800000000E+01 0. -1.
         -5    1    4    4    0  501 -0.30111647917E+02 -0.45764132933E+01  0.15657787786E+02  0.34500632128E+02  0.41800000000E+01 0. -1.
</event>
<event>
11    1  0.1078607E-008  0.1778151E+03  0.7561462E-02  0.1071424E+00
         22   -1    0    0    0    0  0.00000000000E+00  0.00000000000E+00  0.46253481940E+02  0.46253481940E+02  0.00000000000E+00 0.  1.
         22   -1    0    0    0    0 -0.00000000000E+00 -0.00000000000E+00 -0.18189276666E+04  0.18189276666E+04  0.00000000000E+00 0.  1.
         24    2    1    2    0    0 -0.12233423390E+01 -0.12903388153E+02 -0.12111487559E+04  0.12137905613E+04  0.78982426953E+02 0.  0.
         25    2    1    2    0    0  0.97374902867E+02 -0.73629932142E+02 -0.34628040207E+03  0.38789281800E+03  0.12508989880E+03 0.  0.
        -24    2    1    2    0    0 -0.96151560528E+02  0.86533320295E+02 -0.21524502663E+03  0.26349776919E+03  0.79796708989E+02 0.  0.
        -11    1    3    3    0    0  0.33630865731E+02  0.11717391883E+02 -0.42753605407E+03  0.42901679446E+03  0.00000000000E+00 0.  1.
         12    1    3    3    0    0 -0.34854208070E+02 -0.24620780036E+02 -0.78361270188E+03  0.78477376687E+03  0.00000000000E+00 0. -1.
         13    1    5    5    0    0  0.98244778281E+01  0.23512323816E+02 -0.19212790782E+02  0.31913650143E+02  0.00000000000E+00 0. -1.
        -14    1    5    5    0    0 -0.10597603836E+03  0.63020996479E+02 -0.19603223585E+03  0.23158411904E+03  0.00000000000E+00 0.  1.
          5    1    4    4  501    0 -0.25119507936E+01 -0.12579546996E+02  0.73512398942E+01  0.15364505440E+02  0.41800000000E+01 0. -1.
         -5    1    4    4    0  501  0.99886853660E+02 -0.61050385146E+02 -0.35363164196E+03  0.37252831256E+03  0.41800000000E+01 0. -1.
</event>
<event>
11    1  0.1078607E-008  0.2043341E+03  0.7561462E-02  0.1051500E+00
         22   -1    0    0    0    0  0.00000000000E+00  0.00000000000E+00  0.87081990781E+03  0.87081990781E+03  0.00000000000E+00 0. -1.
         22   -1    0    0    0    0 -0.00000000000E+00 -0.00000000000E+00 -0.44980194902E+03  0.44980194902E+03  0.00000000000E+00 0.  1.
        -24    2    1    2    0    0  0.14403839013E+03 -0.62805678820E+02 -0.28937108526E+03  0.33844647419E+03  0.78222629611E+02 0.  0.
         25    2    1    2    0    0 -0.17114781655E+03  0.51256688553E+02 -0.44360535146E+02  0.22256224241E+03  0.12508905402E+03 0.  0.
         24    2    1    2    0    0  0.27109426422E+02  0.11548990267E+02  0.75474957920E+03  0.75961314023E+03  0.80603320870E+02 0.  0.
        -11    1    5    5    0    0  0.52498276169E+02 -0.72940683946E+01  0.40877863754E+03  0.41220049362E+03  0.00000000000E+00 0.  1.
         12    1    5    5    0    0 -0.25388849747E+02  0.18843058662E+02  0.34597094166E+03  0.34741264661E+03  0.00000000000E+00 0. -1.
         11    1    3    3    0    0 -0.97928479001E+01 -0.31476060583E+01 -0.13092272471E+02  0.16649771541E+02  0.00000000000E+00 0. -1.
        -12    1    3    3    0    0  0.15383123803E+03 -0.59658072762E+02 -0.27627881279E+03  0.32179670265E+03  0.00000000000E+00 0.  1.
          5    1    4    4  501    0 -0.45002655721E+02 -0.16786527576E+02 -0.61509273661E+02  0.78152988915E+02  0.41800000000E+01 0. -1.
         -5    1    4    4    0  501 -0.12614516083E+03  0.68043216129E+02  0.17148738515E+02  0.14440925350E+03  0.41800000000E+01 0. -1.
</event>
<event>
11    1  0.1078607E-008  0.1859671E+03  0.7561462E-02  0.1064916E+00
         22   -1    0    0    0    0  0.00000000000E+00  0.00000000000E+00  0.18969414329E+04  0.18969414329E+04  0.00000000000E+00 0. -1.
         22   -1    0    0    0    0 -0.00000000000E+00 -0.00000000000E+00 -0.46967280636E+03  0.46967280636E+03  0.00000000000E+00 0. -1.
         24    2    1    2    0    0 -0.41239772823E+02 -0.61120466660E+02 -0.39969377238E+03  0.41529641743E+03  0.85320409898E+02 0.  0.
         25    2    1    2    0    0  0.12374399932E+03 -0.50762709520E+02  0.84880555397E+02  0.20184704607E+03  0.12509233100E+03 0.  0.
        -24    2    1    2    0    0 -0.82504226501E+02  0.11188317618E+03  0.17420818435E+04  0.17494707758E+04  0.80461501629E+02 0.  0.
        -11    1    3    3    0    0 -0.41072655623E+02  0.94586508069E+01 -0.15470850830E+03  0.16034697270E+03  0.00000000000E+00 0.  1.
         12    1    3    3    0    0 -0.16711719927E+00 -0.70579117467E+02 -0.24498526408E+03  0.25494944473E+03  0.00000000000E+00 0. -1.
         11    1    5    5    0    0 -0.70776910627E+02  0.93033147600E+02  0.16690680869E+04  0.16731565427E+04  0.00000000000E+00 0. -1.
        -12    1    5    5    0    0 -0.11727315873E+02  0.18850028580E+02  0.73013756631E+02  0.76314233092E+02  0.00000000000E+00 0.  1.
          5    1    4    4  501    0  0.12010679112E+03 -0.28107251538E+02  0.10468801191E+02  0.12386576226E+03  0.41800000000E+01 0.  1.
         -5    1    4    4    0  501  0.36372082016E+01 -0.22655457982E+02  0.74411754206E+02  0.77981283805E+02  0.41800000000E+01 0.  1.
</event>
<event>
11    1  0.1078607E-008  0.3150967E+03  0.7561462E-02  0.9939969E-01
         22   -1    0    0    0    0  0.00000000000E+00  0.00000000000E+00  0.33014345004E+03  0.33014345004E+03  0.00000000000E+00 0. -1.
         22   -1    0    0    0    0 -0.00000000000E+00 -0.00000000000E+00 -0.73967753663E+03  0.73967753663E+03  0.00000000000E+00 0. -1.
        -24    2    1    2    0    0  0.87548886126E+01 -0.24274608463E+03 -0.22982775436E+03  0.34384112188E+03  0.80022563944E+02 0.  0.
         25    2    1    2    0    0 -0.17190729538E+03  0.36807570895E+03 -0.24967472105E+03  0.49296656315E+03  0.12508685114E+03 0.  0.
         24    2    1    2    0    0  0.16315240677E+03 -0.12532962432E+03  0.69968388830E+02  0.23301330164E+03  0.84103512054E+02 0.  0.
        -13    1    5    5    0    0  0.48410850579E+02 -0.48688648349E+02  0.65599694755E+02  0.94960596480E+02  0.00000000000E+00 0.  1.
         14    1    5    5    0    0  0.11474155619E+03 -0.76640975975E+02  0.43686940746E+01  0.13805270516E+03  0.00000000000E+00 0. -1.
         13    1    3    3    0    0 -0.24420322275E+02 -0.19503193205E+03 -0.16360519018E+03  0.25573514603E+03  0.00000000000E+00 0. -1.
        -14    1    3    3    0    0  0.33175210887E+02 -0.47714152584E+02 -0.66222564180E+02  0.88105975852E+02  0.00000000000E+00 0.  1.
          5    1    4    4  501    0 -0.17765278407E+03  0.27630766355E+03 -0.22328507913E+03  0.39721547752E+03  0.41800000000E+01 0. -1.
         -5    1    4    4    0  501  0.57454886937E+01  0.91768045406E+02 -0.26389641922E+02  0.95751085627E+02  0.41800000000E+01 0. -1.
</event>
<event>
11    1  0.1078607E-008  0.1300882E+03  0.7561462E-02  0.1119161E+00
         22   -1    0    0    0    0  0.00000000000E+00  0.00000000000E+00  0.19312874325E+04  0.19312874325E+04  0.00000000000E+00 0. -1.
         22   -1    0    0    0    0 -0.00000000000E+00 -0.00000000000E+00 -0.13842650967E+04  0.13842650967E+04  0.00000000000E+00 0. -1.
        -24    2    1    2    0    0  0.41476664861E+01 -0.84650522223E+00 -0.13181645366E+04  0.13206338555E+04  0.80610887049E+02 0.  0.
         25    2    1    2    0    0 -0.36508787062E+02  0.15808834409E+02  0.36399256371E+01  0.13131349316E+03  0.12508866315E+03 0.  0.
         24    2    1    2    0    0  0.32361120576E+02 -0.14962329187E+02  0.18615469467E+04  0.18636051805E+04  0.79975751090E+02 0.  0.
        -11    1    5    5    0    0 -0.19144251712E+02  0.14399258489E+02  0.30921619020E+03  0.31014269829E+03  0.00000000000E+00 0.  1.
         12    1    5    5    0    0  0.51505372288E+02 -0.29361587676E+02  0.15523307565E+04  0.15534624822E+04  0.00000000000E+00 0. -1.
         11    1    3    3    0    0 -0.26702430473E+02  0.20236069781E+02 -0.94716644302E+03  0.94775882433E+03  0.00000000000E+00 0. -1.
        -12    1    3    3    0    0  0.30850096959E+02 -0.21082575003E+02 -0.37099809358E+03  0.37287503120E+03  0.00000000000E+00 0.  1.
          5    1    4    4  501    0 -0.14120064375E+02 -0.30057626466E+02  0.51367936031E+02  0.61310475278E+02  0.41800000000E+01 0. -1.
         -5    1    4    4    0  501 -0.22388722687E+02  0.45866460875E+02 -0.47728010394E+02  0.70003017884E+02  0.41800000000E+01 0. -1.
</event>
<event>
11    1  0.1078607E-008  0.2117340E+03  0.7561462E-02  0.1046523E+00
         22   -1    0    0    0    0  0.00000000000E+00  0.00000000000E+00  0.27292584765E+04  0.27292584765E+04  0.00000000000E+00 0. -1.
         22   -1    0    0    0    0 -0.00000000000E+00 -0.00000000000E+00 -0.72376119185E+03  0.72376119185E+03  0.00000000000E+00 0.  1.
        -24    2    1    2    0    0 -0.36236644618E+02 -0.15470108094E+02 -0.65154843438E+03  0.65743990514E+03  0.78482150020E+02 0.  0.
         25    2    1    2    0    0  0.18733067417E+03 -0.61450411821E+02  0.14149889670E+03  0.27301637110E+03  0.12508823495E+03 0.  0.
         24    2    1    2    0    0 -0.15109402956E+03  0.76920519915E+02  0.25155468223E+04  0.25225633921E+04  0.81265489502E+02 0.  0.
        -11    1    5    5    0    0 -0.68145049895E+02  0.23883554718E+02  0.57434940320E+03  0.57887080508E+03  0.00000000000E+00 0.  1.
         12    1    5    5    0    0 -0.82948979660E+02  0.53036965197E+02  0.19411974191E+04  0.19436925870E+04  0.00000000000E+00 0. -1.
         13    1    3    3    0    0 -0.10411613317E+02  0.31314781189E+02 -0.19473582901E+03  0.19751217764E+03  0.00000000000E+00 0. -1.
        -14    1    3    3    0    0 -0.25825031302E+02 -0.46784889284E+02 -0.45681260536E+03  0.45992772750E+03  0.00000000000E+00 0.  1.
          5    1    4    4  501    0  0.16678600845E+03 -0.16131015657E+02  0.61164003703E+02  0.17842726818E+03  0.41800000000E+01 0.  1.
         -5    1    4    4    0  501  0.20544665724E+02 -0.45319396164E+02  0.80334893002E+02  0.94589102925E+02  0.41800000000E+01 0.  1.
</event>
<event>
11    1  0.1078607E-008  0.2295848E+03  0.7561462E-02  0.1035374E+00
         22   -1    0    0    0    0  0.00000000000E+00  0.00000000000E+00  0.24913013332E+04  0.24913013332E+04  0.00000000000E+00 0.  1.
         22   -1    0    0    0    0 -0.00000000000E+00 -0.00000000000E+00 -0.39198677469E+03  0.39198677469E+03  0.00000000000E+00 0. -1.
         24    2    1    2    0    0  0.15572830658E+03 -0.11438583426E+03 -0.33388790168E+03  0.39397618871E+03  0.80004261303E+02 0.  0.
         25    2    1    2    0    0 -0.13123656160E+03  0.12821819344E+03  0.42809996648E+03  0.48226511983E+03  0.12508846579E+03 0.  0.
        -24    2    1    2    0    0 -0.24491744980E+02 -0.13832359174E+02  0.20051024937E+04  0.20070467994E+04  0.83723740890E+02 0.  0.
        -13    1    3    3    0    0  0.31888093170E+02 -0.70633181801E+02 -0.13407997820E+03  0.15486554624E+03  0.00000000000E+00 0.  1.
         14    1    3    3    0    0  0.12384021341E+03 -0.43752652462E+02 -0.19980792348E+03  0.23911064247E+03  0.00000000000E+00 0. -1.
         11    1    5    5    0    0 -0.46680069982E+02 -0.40513237792E+01  0.17846025206E+04  0.17852175214E+04  0.00000000000E+00 0. -1.
        -12    1    5    5    0    0  0.22188325002E+02 -0.97810353947E+01  0.22049997314E+03  0.22182927799E+03  0.00000000000E+00 0.  1.
          5    1    4    4  501    0 -0.10757649665E+03  0.70907682601E+02  0.38663209783E+03  0.40755668753E+03  0.41800000000E+01 0.  1.
         -5    1    4    4    0  501 -0.23660064955E+02  0.57310510835E+02  0.41467868658E+02  0.74708432301E+02  0.41800000000E+01 0.  1.
</event>
<event>
11    1  0.1078607E-008  0.1738704E+03  0.7561462E-02  0.1074712E+00
         22   -1    0    0    0    0  0.00000000000E+00  0.00000000000E+00  0.38525895765E+03  0.38525895765E+03  0.00000000000E+00 0. -1.
         22   -1    0    0    0    0 -0.00000000000E+00 -0.00000000000E+00 -0.21423848277E+03  0.21423848277E+03  0.00000000000E+00 0.  1.
         24    2    1    2    0    0 -0.14151320955E+02 -0.78560597525E+02 -0.91344571709E+01  0.11308489943E+03  0.79578444335E+02 0.  0.
         25    2    1    2    0    0  0.13183846592E+03  0.51072124381E+02 -0.66963261188E+02  0.20030319687E+03  0.12509016485E+03 0.  0.
        -24    2    1    2    0    0 -0.11768714497E+03  0.27488473145E+02  0.24711819324E+03  0.28610934412E+03  0.78646520054E+02 0.  0.
        -13    1    3    3    0    0 -0.14639333146E+02 -0.69216487020E+02  0.27025610217E+02  0.75733848165E+02  0.00000000000E+00 0.  1.
         14    1    3    3    0    0  0.48801219129E+00 -0.93441105057E+01 -0.36160067388E+02  0.37351051264E+02  0.00000000000E+00 0. -1.
         13    1    5    5    0    0 -0.53900655275E+02  0.45043381297E+02  0.17323523975E+03  0.18693484193E+03  0.00000000000E+00 0. -1.
        -14    1    5    5    0    0 -0.63786489693E+02 -0.17554908152E+02  0.73882953489E+02  0.99174502186E+02  0.00000000000E+00 0.  1.
          5    1    4    4  501    0  0.13657247552E+03  0.42145942512E+02 -0.94013444220E+02  0.17112662456E+03  0.41800000000E+01 0. -1.
         -5    1    4    4    0  501 -0.47340095964E+01  0.89261818690E+01  0.27050183033E+02  0.29176572309E+02  0.41800000000E+01 0. -1.
</event>
<event>
11    1  0.1078607E-008  0.1356023E+03  0.7561462E-02  0.1112571E+00
         22   -1    0    0    0    0  0.00000000000E+00  0.00000000000E+00  0.76631401524E+02  0.76631401524E+02  0.00000000000E+00 0. -1.
         22   -1    0    0    0    0 -0.00000000000E+00 -0.00000000000E+00 -0.17851078020E+04  0.17851078020E+04  0.00000000000E+00 0. -1.
         24    2    1    2    0    0 -0.25187357483E+02  0.45412206397E+02 -0.15462486544E+04  0.15488510340E+04  0.73198038531E+02 0.  0.
         25    2    1    2    0    0  0.36507907619E+02 -0.47764591201E+02 -0.18431237293E+03  0.23072635005E+03  0.12509721939E+03 0.  0.
        -24    2    1    2    0    0 -0.11320550136E+02  0.23523848040E+01  0.22084626941E+02  0.82161819385E+02  0.78288857751E+02 0.  0.
        -13    1    3    3    0    0  0.80302176460E+00  0.13226432694E+02 -0.42154528146E+02  0.44188093520E+02  0.00000000000E+00 0.  1.
         14    1    3    3    0    0 -0.25990379247E+02  0.32185773703E+02 -0.15040941263E+04  0.15046629405E+04  0.00000000000E+00 0. -1.
         11    1    5    5    0    0 -0.29098238213E+02 -0.57972073038E+01  0.43822241247E+02  0.52921677104E+02  0.00000000000E+00 0. -1.
        -12    1    5    5    0    0  0.17777688076E+02  0.81495921078E+01 -0.21737614306E+02  0.29240142281E+02  0.00000000000E+00 0.  1.
          5    1    4    4  501    0  0.31119158556E+02  0.33255661972E+02 -0.25634460625E+02  0.52430325709E+02  0.41800000000E+01 0.  1.
         -5    1    4    4    0  501  0.53887490634E+01 -0.81020253173E+02 -0.15867791231E+03  0.17829602434E+03  0.41800000000E+01 0.  1.
</event>
<event>
11    1  0.1078607E-008  0.1622627E+03  0.7561462E-02  0.1084968E+00
         22   -1    0    0    0    0  0.00000000000E+00  0.00000000000E+00  0.10805429678E+03  0.10805429678E+03  0.00000000000E+00 0.  1.
         22   -1    0    0    0    0 -0.00000000000E+00 -0.00000000000E+00 -0.16789969809E+04  0.16789969809E+04  0.00000000000E+00 0.  1.
        -24    2    1    2    0    0  0.97410005865E+01 -0.14817298027E+02 -0.13734836693E+04  0.13760203171E+04  0.81609335485E+02 0.  0.
         25    2    1    2    0    0 -0.77108160243E+02 -0.64663421075E+02 -0.22509162991E+03  0.27647871238E+03  0.12508880903E+03 0.  0.
         24    2    1    2    0    0  0.67367159656E+02  0.79480719102E+02  0.27632615176E+02  0.13455224819E+03  0.80530908116E+02 0.  0.
        -11    1    5    5    0    0  0.84283837953E+01  0.22638492083E+02  0.44791966420E+02  0.50890659585E+02  0.00000000000E+00 0.  1.
         12    1    5    5    0    0  0.58938775861E+02  0.56842227019E+02 -0.17159351245E+02  0.83661588603E+02  0.00000000000E+00 0. -1.
         13    1    3    3    0    0 -0.30132974567E+02 -0.79934772801E+01 -0.97286328207E+03  0.97336265464E+03  0.00000000000E+00 0. -1.
        -14    1    3    3    0    0  0.39873975153E+02 -0.68238207471E+01 -0.40062038727E+03  0.40265766244E+03  0.00000000000E+00 0.  1.
          5    1    4    4  501    0  0.11269296301E+02 -0.63358847410E+02 -0.55042081215E+02  0.84784690178E+02  0.41800000000E+01 0.  1.
         -5    1    4    4    0  501 -0.88377456544E+02 -0.13045736653E+01 -0.17004954869E+03  0.19169402220E+03  0.41800000000E+01 0.  1.
</event>
<event>
11    1  0.1078607E-008  0.1284834E+03  0.7561462E-02  0.1121146E+00
         22   -1    0    0    0    0  0.00000000000E+00  0.00000000000E+00  0.29897774440E+03  0.29897774440E+03  0.00000000000E+00 0. -1.
         22   -1    0    0    0    0 -0.00000000000E+00 -0.00000000000E+00 -0.13196931474E+04  0.13196931474E+04  0.00000000000E+00 0. -1.
         24    2    1    2    0    0 -0.70353910381E+01 -0.31710456456E+02 -0.10312468169E+04  0.10347673462E+04  0.78856918334E+02 0.  0.
         25    2    1    2    0    0 -0.85371685660E+01  0.55956947353E+02 -0.26327713318E+03  0.29692704327E+03  0.12508699759E+03 0.  0.
        -24    2    1    2    0    0  0.15572559604E+02 -0.24246490896E+02  0.27380854707E+03  0.28697650236E+03  0.80956750937E+02 0.  0.
        -11    1    3    3    0    0  0.26012560393E+02  0.81624915958E+01 -0.19222307312E+03  0.19414682436E+03  0.00000000000E+00 0.  1.
         12    1    3    3    0    0 -0.33047951431E+02 -0.39872948052E+02 -0.83902374379E+03  0.84062052183E+03  0.00000000000E+00 0. -1.
         11    1    5    5    0    0  0.23349121905E+02 -0.50352374187E+02  0.21684000627E+03  0.22383058638E+03  0.00000000000E+00 0. -1.
        -12    1    5    5    0    0 -0.77765623006E+01  0.26105883290E+02  0.56968540803E+02  0.63145915979E+02  0.00000000000E+00 0.  1.
          5    1    4    4  501    0 -0.14575976623E+01 -0.28093213758E+02 -0.10335528616E+02  0.30259689390E+02  0.41800000000E+01 0.  1.
         -5    1    4    4    0  501 -0.70795709037E+01  0.84050161110E+02 -0.25294160456E+03  0.26666735388E+03  0.41800000000E+01 0.  1.
</event>
<event>
11    1  0.1078607E-008  0.1440628E+03  0.7561462E-02  0.1103105E+00
         22   -1    0    0    0    0  0.00000000000E+00  0.00000000000E+00  0.60586921609E+03  0.60586921609E+03  0.00000000000E+00 0.  1.
         22   -1    0    0    0    0 -0.00000000000E+00 -0.00000000000E+00 -0.33752435972E+03  0.33752435972E+03  0.00000000000E+00 0. -1.
        -24    2    1    2    0    0 -0.80115987164E+02 -0.39705807571E+00 -0.24820564269E+03  0.27295115831E+03  0.80483319416E+02 0.  0.
         25    2    1    2    0    0  0.31436412972E+02 -0.29997419311E+01 -0.15523135810E+02  0.12994494961E+03  0.12508987038E+03 0.  0.
         24    2    1    2    0    0  0.48679574193E+02  0.33968000068E+01  0.53207363487E+03  0.54049746789E+03  0.81571567837E+02 0.  0.
        -11    1    5    5    0    0  0.57457940429E+02  0.31552599262E+02  0.36339992889E+03  0.36926479626E+03  0.00000000000E+00 0.  1.
         12    1    5    5    0    0 -0.87783662368E+01 -0.28155799255E+02  0.16867370598E+03  0.17123267164E+03  0.00000000000E+00 0. -1.
         11    1    3    3    0    0 -0.68320722714E+02  0.16948891941E+02 -0.24052341536E+03  0.25061224915E+03  0.00000000000E+00 0. -1.
        -12    1    3    3    0    0 -0.11795264450E+02 -0.17345950017E+02 -0.76822273311E+01  0.22338909154E+02  0.00000000000E+00 0.  1.
          5    1    4    4  501    0 -0.40110288324E+01  0.52864442286E+02 -0.31424254600E+02  0.61771302298E+02  0.41800000000E+01 0. -1.
         -5    1    4    4    0  501  0.35447441804E+02 -0.55864184217E+02  0.15901118790E+02  0.68173647309E+02  0.41800000000E+01 0. -1.
</event>
<event>
11    1  0.1078607E-008  0.1387606E+03  0.7561462E-02  0.1108950E+00
         22   -1    0    0    0    0  0.00000000000E+00  0.00000000000E+00  0.35011824264E+03  0.35011824264E+03  0.00000000000E+00 0.  1.
         22   -1    0    0    0    0 -0.00000000000E+00 -0.00000000000E+00 -0.37032392787E+03  0.37032392787E+03  0.00000000000E+00 0. -1.
        -24    2    1    2    0    0  0.48553587280E+02  0.21245935781E+02 -0.28412697259E+03  0.29925785362E+03  0.77577611304E+02 0.  0.
         25    2    1    2    0    0  0.15740112680E+02 -0.32323545894E+02 -0.80750590736E+01  0.13040434682E+03  0.12509006485E+03 0.  0.
         24    2    1    2    0    0 -0.64293699960E+02  0.11077610113E+02  0.27199634643E+03  0.29077997007E+03  0.79464364469E+02 0.  0.
        -11    1    5    5    0    0 -0.56658107562E+01 -0.11074362451E+02  0.17407792778E+03  0.17452182630E+03  0.00000000000E+00 0.  1.
         12    1    5    5    0    0 -0.58627889204E+02  0.22151972564E+02  0.97918418651E+02  0.11625814377E+03  0.00000000000E+00 0. -1.
         11    1    3    3    0    0  0.36472923234E+02 -0.59484506928E+01 -0.25484228388E+03  0.25750776270E+03  0.00000000000E+00 0. -1.
        -12    1    3    3    0    0  0.12080664046E+02  0.27194386473E+02 -0.29284688708E+02  0.41750090924E+02  0.00000000000E+00 0.  1.
          5    1    4    4  501    0  0.54618812304E+02 -0.41643786472E+02 -0.39534737113E+02  0.79359230388E+02  0.41800000000E+01 0.  1.
         -5    1    4    4    0  501 -0.38878699624E+02  0.93202405781E+01  0.31459678039E+02  0.51045116429E+02  0.41800000000E+01 0.  1.
</event>
<event>
11    1  0.1182210E-008  0.2891433E+04  0.7561462E-02  0.7775883E-01
         22   -1    0    0    0    0  0.00000000000E+00  0.00000000000E+00  0.40597474040E+04  0.40597474040E+04  0.00000000000E+00 0. -1.
         22   -1    0    0    0    0 -0.00000000000E+00 -0.00000000000E+00 -0.51483390910E+03  0.51483390910E+03  0.00000000000E+00 0. -1.
        -24    2    1    2    0    0  0.65158390635E+03  0.87567850975E+03  0.12992569075E+04  0.16985604220E+04  0.75263244365E+02 0.  0.
         25    2    1    2    0    0 -0.71198709191E+03 -0.11810021987E+04  0.13893412640E+04  0.19615321438E+04  0.12508953167E+03 0.  0.
         24    2    1    2    0    0  0.60403185559E+02  0.30532368891E+03  0.85631532344E+03  0.91448874739E+03  0.78374971123E+02 0.  0.
        -13    1    5    5    0    0  0.31231750760E+02  0.41891822102E+02  0.19910221578E+03  0.20584469714E+03  0.00000000000E+00 0.  1.
         14    1    5    5    0    0  0.29171434799E+02  0.26343186681E+03  0.65721310767E+03  0.70864405025E+03  0.00000000000E+00 0. -1.
         11    1    3    3    0    0  0.28835490578E+03  0.32717152027E+03  0.52994784496E+03  0.68631951287E+03  0.00000000000E+00 0. -1.
        -12    1    3    3    0    0  0.36322900058E+03  0.54850698947E+03  0.76930906256E+03  0.10122409091E+04  0.00000000000E+00 0.  1.
          5    1    4    4  501    0 -0.10295556353E+02 -0.23140552437E+02  0.69804623073E+01  0.26602310083E+02  0.41800000000E+01 0. -1.
         -5    1    4    4    0  501 -0.70169153556E+03 -0.11578616462E+04  0.13823608017E+04  0.19349298337E+04  0.41800000000E+01 0. -1.
</event>
<event>
11    1  0.1078607E-008  0.1541590E+03  0.7561462E-02  0.1092703E+00
         22   -1    0    0    0    0  0.00000000000E+00  0.00000000000E+00  0.61882513709E+03  0.61882513709E+03  0.00000000000E+00 0.  1.
         22   -1    0    0    0    0 -0.00000000000E+00 -0.00000000000E+00 -0.13192433562E+03  0.13192433562E+03  0.00000000000E+00 0. -1.
         24    2    1    2    0    0  0.10404073862E+02 -0.25308891888E+02 -0.77648542927E+02  0.11614812554E+03  0.81928664612E+02 0.  0.
         25    2    1    2    0    0 -0.83188162799E+02  0.65760878089E+02  0.25479822018E+03  0.30300928707E+03  0.12509089305E+03 0.  0.
        -24    2    1    2    0    0  0.72784088937E+02 -0.40451986201E+02  0.30975112421E+03  0.33159206011E+03  0.84104985499E+02 0.  0.
        -11    1    3    3    0    0 -0.16383236785E+02 -0.10729056171E+02  0.10957123192E+02  0.22440624824E+02  0.00000000000E+00 0.  1.
         12    1    3    3    0    0  0.26787310647E+02 -0.14579835717E+02 -0.88605666119E+02  0.93707500711E+02  0.00000000000E+00 0. -1.
         11    1    5    5    0    0 -0.14229173992E+02 -0.66063014353E+01  0.10982820023E+03  0.11094298615E+03  0.00000000000E+00 0. -1.
        -12    1    5    5    0    0  0.87013262929E+02 -0.33845684765E+02  0.19992292399E+03  0.22064907396E+03  0.00000000000E+00 0.  1.
          5    1    4    4  501    0 -0.64395152838E+02  0.10038964218E+03  0.21996513155E+03  0.25025376613E+03  0.41800000000E+01 0. -1.
         -5    1    4    4    0  501 -0.18793009961E+02 -0.34628764086E+02  0.34833088636E+02  0.52755520938E+02  0.41800000000E+01 0. -1.
</event>
<event>
11    1  0.1078607E-008  0.1462621E+03  0.7561462E-02  0.1100760E+00
         22   -1    0    0    0    0  0.00000000000E+00  0.00000000000E+00  0.30316404677E+03  0.30316404677E+03  0.00000000000E+00 0.  1.
         22   -1    0    0    0    0 -0.00000000000E+00 -0.00000000000E+00 -0.49245695958E+03  0.49245695958E+03  0.00000000000E+00 0.  1.
         24    2    1    2    0    0  0.20442049292E+02  0.11516235815E+02 -0.40075747727E+03  0.40943584063E+03  0.80502490259E+02 0.  0.
         25    2    1    2    0    0 -0.48163311947E+02  0.59495232431E+02 -0.12086086568E+00  0.14665318662E+03  0.12509098784E+03 0.  0.
        -24    2    1    2    0    0  0.27721262655E+02 -0.71011468246E+02  0.21158542533E+03  0.23953197910E+03  0.82438339236E+02 0.  0.
        -13    1    3    3    0    0  0.36833050673E+02  0.17375001896E+02 -0.38072668517E+03  0.38289864601E+03  0.00000000000E+00 0.  1.
         14    1    3    3    0    0 -0.16391001381E+02 -0.58587660818E+01 -0.20030792093E+02  0.26537194617E+02  0.00000000000E+00 0. -1.
         11    1    5    5    0    0  0.12135734965E+02  0.15019297881E+02  0.15236525979E+02  0.24596891996E+02  0.00000000000E+00 0. -1.
        -12    1    5    5    0    0  0.15585527690E+02 -0.86030766127E+02  0.19634889935E+03  0.21493508710E+03  0.00000000000E+00 0.  1.
          5    1    4    4  501    0 -0.53053681919E+02 -0.20179497583E+02 -0.26084574413E+02  0.62608168079E+02  0.41800000000E+01 0.  1.
         -5    1    4    4    0  501  0.48903699720E+01  0.79674730014E+02  0.25963713547E+02  0.84045018546E+02  0.41800000000E+01 0.  1.
</event>
<event>
11    1  0.1078607E-008  0.2083041E+03  0.7561462E-02  0.1048802E+00
         22   -1    0    0    0    0  0.00000000000E+00  0.00000000000E+00  0.57727034682E+03  0.57727034682E+03  0.00000000000E+00 0.  1.
         22   -1    0    0    0    0 -0.00000000000E+00 -0.00000000000E+00 -0.59923412174E+03  0.59923412174E+03  0.00000000000E+00 0.  1.
        -24    2    1    2    0    0  0.12896423262E+03 -0.51350264429E+01 -0.43775343076E+03  0.46309550620E+03  0.78557239797E+02 0.  0.
         25    2    1    2    0    0 -0.20481408634E+03 -0.13417694691E+03  0.15731059719E+02  0.27540228837E+03  0.12508673452E+03 0.  0.
         24    2    1    2    0    0  0.75849853722E+02  0.13931197336E+03  0.40005859612E+03  0.43800667399E+03  0.81498097530E+02 0.  0.
        -13    1    5    5    0    0  0.85788796224E+02  0.13861907045E+03  0.33922098340E+03  0.37635865850E+03  0.00000000000E+00 0.  1.
         14    1    5    5    0    0 -0.99389425022E+01  0.69290290948E+00  0.60837612718E+02  0.61648015489E+02  0.00000000000E+00 0. -1.
         11    1    3    3    0    0  0.10475421162E+03  0.13031350247E+02 -0.22900031804E+03  0.25215948645E+03  0.00000000000E+00 0. -1.
        -12    1    3    3    0    0  0.24210021005E+02 -0.18166376690E+02 -0.20875311272E+03  0.21093601975E+03  0.00000000000E+00 0.  1.
          5    1    4    4  501    0 -0.86799452442E+02 -0.72109728936E+02 -0.53665430550E+02  0.12502563252E+03  0.41800000000E+01 0.  1.
         -5    1    4    4    0  501 -0.11801463390E+03 -0.62067217977E+02  0.69396490269E+02  0.15037665585E+03  0.41800000000E+01 0.  1.
</event>
<event>
11    1  0.1078607E-008  0.1520569E+03  0.7561462E-02  0.1094795E+00
         22   -1    0    0    0    0  0.00000000000E+00  0.00000000000E+00  0.53946792894E+03  0.53946792894E+03  0.00000000000E+00 0.  1.
         22   -1    0    0    0    0 -0.00000000000E+00 -0.00000000000E+00 -0.14959907144E+04  0.14959907144E+04  0.00000000000E+00 0. -1.
         24    2    1    2    0    0  0.75642034302E+02  0.59650379833E+02 -0.11096550127E+04  0.11167076412E+04  0.80136280780E+02 0.  0.
         25    2    1    2    0    0 -0.33138992577E+02 -0.42013007598E+02 -0.36672008967E+03  0.39114467835E+03  0.12508896672E+03 0.  0.
        -24    2    1    2    0    0 -0.42503041725E+02 -0.17637372235E+02  0.51985231691E+03  0.52760632381E+03  0.77488167252E+02 0.  0.
        -11    1    3    3    0    0  0.13128207181E+02 -0.69491207987E+00 -0.22300655291E+02  0.25887293272E+02  0.00000000000E+00 0.  1.
         12    1    3    3    0    0  0.62513827121E+02  0.60345291913E+02 -0.10873543574E+04  0.10908203479E+04  0.00000000000E+00 0. -1.
         13    1    5    5    0    0 -0.10732155030E+02 -0.36821603766E+02  0.11873854273E+03  0.12477920974E+03  0.00000000000E+00 0. -1.
        -14    1    5    5    0    0 -0.31770886695E+02  0.19184231531E+02  0.40111377419E+03  0.40282711406E+03  0.00000000000E+00 0.  1.
          5    1    4    4  501    0 -0.17299958414E+02  0.43309121350E+02 -0.95722933587E+02  0.10656134838E+03  0.41800000000E+01 0.  1.
         -5    1    4    4    0  501 -0.15839034163E+02 -0.85322128948E+02 -0.27099715609E+03  0.28458332997E+03  0.41800000000E+01 0.  1.
</event>
<event>
11    1  0.1078607E-008  0.1332640E+03  0.7561462E-02  0.1115322E+00
         22   -1    0    0    0    0  0.00000000000E+00  0.00000000000E+00  0.60297960587E+03  0.60297960587E+03  0.00000000000E+00 0.  1.
         22   -1    0    0    0    0 -0.00000000000E+00 -0.00000000000E+00 -0.14147215385E+03  0.14147215385E+03  0.00000000000E+00 0.  1.
        -24    2    1    2    0    0  0.25221253417E+02  0.35625586197E+02 -0.68251950246E+02  0.11429438923E+03  0.80620001750E+02 0.  0.
         25    2    1    2    0    0 -0.61367317817E+02 -0.57193844700E+02  0.79471289498E+02  0.17030222306E+03  0.12510027081E+03 0.  0.
         24    2    1    2    0    0  0.36146064401E+02  0.21568258503E+02  0.45028811276E+03  0.45985514743E+03  0.83280516192E+02 0.  0.
        -11    1    5    5    0    0 -0.95165761481E+01 -0.21826511156E+02  0.21376931694E+03  0.21509133566E+03  0.00000000000E+00 0.  1.
         12    1    5    5    0    0  0.45662640549E+02  0.43394769659E+02  0.23651879582E+03  0.24476381177E+03  0.00000000000E+00 0. -1.
         11    1    3    3    0    0  0.38656518545E+02 -0.77252487695E+01 -0.10409785114E+02  0.40772166005E+02  0.00000000000E+00 0. -1.
        -12    1    3    3    0    0 -0.13435265129E+02  0.43350834967E+02 -0.57842165132E+02  0.73522223229E+02  0.00000000000E+00 0.  1.
          5    1    4    4  501    0 -0.27037712381E+02  0.24058030503E+02  0.73211120739E+02  0.81775102093E+02  0.41800000000E+01 0. -1.
         -5    1    4    4    0  501 -0.34329605437E+02 -0.81251875203E+02  0.62601687588E+01  0.88527120965E+02  0.41800000000E+01 0. -1.
</event>
<event>
11    1  0.1078607E-008  0.1651901E+03  0.7561462E-02  0.1082295E+00
         22   -1    0    0    0    0  0.00000000000E+00  0.00000000000E+00  0.30120732097E+03  0.30120732097E+03  0.00000000000E+00 0.  1.
         22   -1    0    0    0    0 -0.00000000000E+00 -0.00000000000E+00 -0.10609538596E+04  0.10609538596E+04  0.00000000000E+00 0. -1.
         24    2    1    2    0    0 -0.75278490219E+02  0.71751660253E+02 -0.79270451977E+03  0.80342644323E+03  0.79362725346E+02 0.  0.
         25    2    1    2    0    0  0.68369696424E+02 -0.11867042387E+03 -0.22165644651E+03  0.28902816445E+03  0.12509442303E+03 0.  0.
        -24    2    1    2    0    0  0.69087937948E+01  0.46918763616E+02  0.25461442767E+03  0.26970657288E+03  0.75259729378E+02 0.  0.
        -11    1    3    3    0    0 -0.19673255445E+02  0.54571227248E+02 -0.58032456838E+03  0.58321664970E+03  0.00000000000E+00 0.  1.
         12    1    3    3    0    0 -0.55605234774E+02  0.17180433006E+02 -0.21237995140E+03  0.22020979353E+03  0.00000000000E+00 0. -1.
         13    1    5    5    0    0  0.31675994474E+02  0.18608602806E+02  0.52229759854E+02  0.63856061096E+02  0.00000000000E+00 0. -1.
        -14    1    5    5    0    0 -0.24767200680E+02  0.28310160810E+02  0.20238466782E+03  0.20585051178E+03  0.00000000000E+00 0.  1.
          5    1    4    4  501    0 -0.32497756333E+00 -0.78527401014E+02 -0.34995514285E+02  0.86074483678E+02  0.41800000000E+01 0. -1.
         -5    1    4    4    0  501  0.68694673988E+02 -0.40143022855E+02 -0.18666093223E+03  0.20295368077E+03  0.41800000000E+01 0. -1.
</event>
<event>
11    1  0.1078607E-008  0.1432118E+03  0.7561462E-02  0.1104024E+00
         22   -1    0    0    0    0  0.00000000000E+00  0.00000000000E+00  0.53805052271E+03  0.53805052271E+03  0.00000000000E+00 0. -1.
         22   -1    0    0    0    0 -0.00000000000E+00 -0.00000000000E+00 -0.17870496667E+04  0.17870496667E+04  0.00000000000E+00 0.  1.
         24    2    1    2    0    0 -0.14024259313E+02  0.66275352378E+02 -0.15187900796E+04  0.15224911168E+04  0.81650430832E+02 0.  0.
         25    2    1    2    0    0  0.11479638078E+02 -0.94341013687E+02 -0.23931283063E+03  0.28627323339E+03  0.12509885809E+03 0.  0.
        -24    2    1    2    0    0  0.25446212348E+01  0.28065661309E+02  0.50910376619E+03  0.51633583921E+03  0.81375043240E+02 0.  0.
        -13    1    3    3    0    0  0.76306373464E+01  0.14175214418E+02 -0.10760543001E+04  0.10761747164E+04  0.00000000000E+00 0.  1.
         14    1    3    3    0    0 -0.21654896659E+02  0.52100137960E+02 -0.44273577945E+03  0.44631640047E+03  0.00000000000E+00 0. -1.
         11    1    5    5    0    0 -0.20377072714E+01  0.73859724115E+01  0.48140771845E+03  0.48146868664E+03  0.00000000000E+00 0. -1.
        -12    1    5    5    0    0  0.45823285062E+01  0.20679688897E+02  0.27696047742E+02  0.34867152564E+02  0.00000000000E+00 0.  1.
          5    1    4    4  501    0 -0.49479171825E+02 -0.20083373422E+02 -0.13045368747E+03  0.14102186819E+03  0.41800000000E+01 0. -1.
         -5    1    4    4    0  501  0.60958809903E+02 -0.74257640265E+02 -0.10885914316E+03  0.14525136520E+03  0.41800000000E+01 0. -1.
</event>
<event>
11    1  0.1078607E-008  0.1560501E+03  0.7561462E-02  0.1090852E+00
         22   -1    0    0    0    0  0.00000000000E+00  0.00000000000E+00  0.11812853449E+04  0.11812853449E+04  0.00000000000E+00 0. -1.
         22   -1    0    0    0    0 -0.00000000000E+00 -0.00000000000E+00 -0.10121365754E+04  0.10121365754E+04  0.00000000000E+00 0.  1.
         24    2    1    2    0    0  0.43449978654E+02  0.12233260296E+02 -0.98159245128E+03  0.98595358703E+03  0.80889937987E+02 0.  0.
         25    2    1    2    0    0 -0.12759119259E+03 -0.33045909877E+02  0.31685947159E+03  0.36526588850E+03  0.12509076696E+03 0.  0.
        -24    2    1    2    0    0  0.84141213936E+02  0.20812649581E+02  0.83388174925E+03  0.84220244479E+03  0.80207705433E+02 0.  0.
        -11    1    3    3    0    0  0.48839886162E+02  0.37971902019E+02 -0.80985668991E+03  0.81221613996E+03  0.00000000000E+00 0.  1.
         12    1    3    3    0    0 -0.53899075078E+01 -0.25738641723E+02 -0.17173576137E+03  0.17373744706E+03  0.00000000000E+00 0. -1.
         11    1    5    5    0    0  0.51217867613E+02 -0.19070588752E+02  0.60914717411E+03  0.61159401325E+03  0.00000000000E+00 0. -1.
        -12    1    5    5    0    0  0.32923346323E+02  0.39883238333E+02  0.22473457514E+03  0.23060843154E+03  0.00000000000E+00 0.  1.
          5    1    4    4  501    0 -0.59416190005E+02 -0.72108323531E+02  0.22878066764E+03  0.24715978686E+03  0.41800000000E+01 0.  1.
         -5    1    4    4    0  501 -0.68175002585E+02  0.39062413654E+02  0.88078803955E+02  0.11810610164E+03  0.41800000000E+01 0.  1.
</event>
<event>
11    1  0.1078607E-008  0.1362305E+03  0.7561462E-02  0.1111842E+00
         22   -1    0    0    0    0  0.00000000000E+00  0.00000000000E+00  0.54576238341E+03  0.54576238341E+03  0.00000000000E+00 0.  1.
         22   -1    0    0    0    0 -0.00000000000E+00 -0.00000000000E+00 -0.13124124431E+03  0.13124124431E+03  0.00000000000E+00 0. -1.
        -24    2    1    2    0    0 -0.10843106298E+01 -0.25792424091E+02 -0.35921128209E+02  0.83548531134E+02  0.70877392254E+02 0.  0.
         25    2    1    2    0    0  0.54860148927E+02  0.26471036993E+02  0.68354135750E+01  0.13931522968E+03  0.12510658896E+03 0.  0.
         24    2    1    2    0    0 -0.53775838298E+02 -0.67861290170E+00  0.44360685374E+03  0.45413986691E+03  0.81016521358E+02 0.  0.
        -13    1    5    5    0    0 -0.13511231583E+02 -0.33830860937E+02  0.28154365099E+03  0.28389066195E+03  0.00000000000E+00 0.  1.
         14    1    5    5    0    0 -0.40264606715E+02  0.33152248035E+02  0.16206320274E+03  0.17024920495E+03  0.00000000000E+00 0. -1.
         13    1    3    3    0    0 -0.16595282424E+02  0.69086676911E+01 -0.43056807203E+02  0.46658565500E+02  0.00000000000E+00 0. -1.
        -14    1    3    3    0    0  0.15510971794E+02 -0.32701091783E+02  0.71356789938E+01  0.36889965634E+02  0.00000000000E+00 0.  1.
          5    1    4    4  501    0  0.70590032340E+02  0.14357252816E+02  0.52574328943E+02  0.89278305528E+02  0.41800000000E+01 0. -1.
         -5    1    4    4    0  501 -0.15729883413E+02  0.12113784177E+02 -0.45738915368E+02  0.50036924149E+02  0.41800000000E+01 0. -1.
</event>
<event>
11    1  0.1078607E-008  0.2417503E+03  0.7561462E-02  0.1028388E+00
         22   -1    0    0    0    0  0.00000000000E+00  0.00000000000E+00  0.56013505845E+03  0.56013505845E+03  0.00000000000E+00 0.  1.
         22   -1    0    0    0    0 -0.00000000000E+00 -0.00000000000E+00 -0.12353001250E+04  0.12353001250E+04  0.00000000000E+00 0. -1.
         24    2    1    2    0    0  0.15700808824E+03  0.37172954483E+01 -0.10788134355E+04  0.10932367756E+04  0.81626349237E+02 0.  0.
         25    2    1    2    0    0 -0.12362984110E+03 -0.20979706825E+03  0.42108320620E+02  0.27698228909E+03  0.12508769063E+03 0.  0.
        -24    2    1    2    0    0 -0.33378247138E+02  0.20607977280E+03  0.36154004831E+03  0.42521611875E+03  0.80712830268E+02 0.  0.
        -11    1    3    3    0    0  0.81104386302E+02  0.47075327453E+01 -0.30244882932E+03  0.31316988473E+03  0.00000000000E+00 0.  1.
         12    1    3    3    0    0  0.75903701937E+02 -0.99023729704E+00 -0.77636460615E+03  0.78006689086E+03  0.00000000000E+00 0. -1.
         13    1    5    5    0    0  0.37694325914E+01  0.27629462044E+02  0.10730892476E+02  0.29878886329E+02  0.00000000000E+00 0. -1.
        -14    1    5    5    0    0 -0.37147679729E+02  0.17845031076E+03  0.35080915584E+03  0.39533723242E+03  0.00000000000E+00 0.  1.
          5    1    4    4  501    0 -0.51748371978E+02 -0.46084024738E+02  0.66918893561E+02  0.96422207265E+02  0.41800000000E+01 0.  1.
         -5    1    4    4    0  501 -0.71881469124E+02 -0.16371304351E+03 -0.24810572941E+02  0.18056008183E+03  0.41800000000E+01 0.  1.
</event>
<event>
11    1  0.1078607E-008  0.3112130E+03  0.7561462E-02  0.9955542E-01
         22   -1    0    0    0    0  0.00000000000E+00  0.00000000000E+00  0.86278524584E+03  0.86278524584E+03  0.00000000000E+00 0.  1.
         22   -1    0    0    0    0 -0.00000000000E+00 -0.00000000000E+00 -0.58268826583E+03  0.58268826583E+03  0.00000000000E+00 0.  1.
         24    2    1    2    0    0 -0.46371610623E+02  0.85095207810E+02 -0.57153746254E+02  0.13912262388E+03  0.81835402492E+02 0.  0.
         25    2    1    2    0    0  0.26489100022E+03 -0.25963444733E+03 -0.37183409848E+03  0.53989393118E+03  0.12509025498E+03 0.  0.
        -24    2    1    2    0    0 -0.21851938960E+03  0.17453923952E+03  0.70908482475E+03  0.76645695661E+03  0.80251528872E+02 0.  0.
        -11    1    3    3    0    0 -0.68017053499E+02  0.50012563586E+02 -0.29270005145E+02  0.89354962281E+02  0.00000000000E+00 0.  1.
         12    1    3    3    0    0  0.21645442875E+02  0.35082644224E+02 -0.27883741109E+02  0.49767661601E+02  0.00000000000E+00 0. -1.
         11    1    5    5    0    0 -0.13123999107E+03  0.59025672453E+02  0.30567096813E+03  0.33785012361E+03  0.00000000000E+00 0. -1.
        -12    1    5    5    0    0 -0.87279398522E+02  0.11551356707E+03  0.40341385662E+03  0.42860683300E+03  0.00000000000E+00 0.  1.
          5    1    4    4  501    0  0.16538152338E+03 -0.11386337358E+03 -0.12547317692E+03  0.23680563052E+03  0.41800000000E+01 0.  1.
         -5    1    4    4    0  501  0.99509476835E+02 -0.14577107376E+03 -0.24636092157E+03  0.30308830066E+03  0.41800000000E+01 0.  1.
</event>
<event>
11    1  0.1104069E-008  0.1708275E+03  0.7561462E-02  0.1077314E+00
         22   -1    0    0    0    0  0.00000000000E+00  0.00000000000E+00  0.21149549626E+04  0.21149549626E+04  0.00000000000E+00 0. -1.
         22   -1    0    0    0    0 -0.00000000000E+00 -0.00000000000E+00 -0.56944625601E+03  0.56944625601E+03  0.00000000000E+00 0. -1.
         24    2    1    2    0    0  0.56118964925E+02 -0.53612376194E+02 -0.51757782239E+03  0.53094144785E+03  0.89377814407E+02 0.  0.
         25    2    1    2    0    0 -0.85057550854E+00 -0.53600311902E+02  0.66261868835E+02  0.15135993741E+03  0.12508188709E+03 0.  0.
        -24    2    1    2    0    0 -0.55268389416E+02  0.10721268810E+03  0.19968246601E+04  0.20020998333E+04  0.80906513678E+02 0.  0.
        -11    1    3    3    0    0  0.42780906019E+02 -0.48125907917E+02 -0.15196721695E+03  0.16504649030E+03  0.00000000000E+00 0.  1.
         12    1    3    3    0    0  0.13338058905E+02 -0.54864682768E+01 -0.36561060544E+03  0.36589495755E+03  0.00000000000E+00 0. -1.
         11    1    5    5    0    0 -0.50390560976E+02  0.19991596180E+02  0.99410801686E+03  0.99558506505E+03  0.00000000000E+00 0. -1.
        -12    1    5    5    0    0 -0.48778284401E+01  0.87221091916E+02  0.10027166433E+04  0.10065147683E+04  0.00000000000E+00 0.  1.
          5    1    4    4  501    0  0.25704821112E+02  0.31099104287E+02  0.43808865941E+02  0.59704114187E+02  0.41800000000E+01 0.  1.
         -5    1    4    4    0  501 -0.26555396620E+02 -0.84699416190E+02  0.22453002894E+02  0.91655823227E+02  0.41800000000E+01 0.  1.
</event>
<event>
11    1  0.1078607E-008  0.1675033E+03  0.7561462E-02  0.1080225E+00
         22   -1    0    0    0    0  0.00000000000E+00  0.00000000000E+00  0.59195139986E+03  0.59195139986E+03  0.00000000000E+00 0.  1.
         22   -1    0    0    0    0 -0.00000000000E+00 -0.00000000000E+00 -0.11520741625E+03  0.11520741625E+03  0.00000000000E+00 0.  1.
         24    2    1    2    0    0 -0.92494489575E+02 -0.90674585896E+02  0.54669940326E+02  0.16079466831E+03  0.78032120649E+02 0.  0.
         25    2    1    2    0    0 -0.28814874660E+02 -0.54970137075E+02  0.19174632279E+03  0.23720521865E+03  0.12509056910E+03 0.  0.
        -24    2    1    2    0    0  0.12130936423E+03  0.14564472297E+03  0.23032772049E+03  0.30915892915E+03  0.81240614637E+02 0.  0.
        -13    1    3    3    0    0 -0.16861496949E+02 -0.39333642233E+02  0.54611716312E+02  0.69382166651E+02  0.00000000000E+00 0.  1.
         14    1    3    3    0    0 -0.75632992627E+02 -0.51340943663E+02  0.58224014313E-01  0.91412501661E+02  0.00000000000E+00 0. -1.
         13    1    5    5    0    0 -0.90445911392E+01  0.25107846644E+01  0.26183198613E+02  0.27814898132E+02  0.00000000000E+00 0. -1.
        -14    1    5    5    0    0  0.13035395537E+03  0.14313393831E+03  0.20414452187E+03  0.28134403102E+03  0.00000000000E+00 0.  1.
          5    1    4    4  501    0  0.31579534488E+02 -0.60663210369E+02  0.14544941955E+03  0.16078027907E+03  0.41800000000E+01 0. -1.
         -5    1    4    4    0  501 -0.60394409147E+02  0.56930732939E+01  0.46296903241E+02  0.76424939578E+02  0.41800000000E+01 0. -1.
</event>
<event>
11    1  0.1078607E-008  0.1420476E+03  0.7561462E-02  0.1105293E+00
         22   -1    0    0    0    0  0.00000000000E+00  0.00000000000E+00  0.81552699990E+03  0.81552699990E+03  0.00000000000E+00 0.  1.
         22   -1    0    0    0    0 -0.00000000000E+00 -0.00000000000E+00 -0.97841066685E+03  0.97841066685E+03  0.00000000000E+00 0. -1.
        -24    2    1    2    0    0  0.41268751086E+02  0.51528712610E+02 -0.90030920042E+03  0.90621537570E+03  0.79443896971E+02 0.  0.
         25    2    1    2    0    0 -0.90507848149E+02 -0.69692411109E+02  0.27884964983E+02  0.17167577305E+03  0.12508515914E+03 0.  0.
         24    2    1    2    0    0  0.49239097063E+02  0.18163698499E+02  0.70954056849E+03  0.71604651800E+03  0.80748925647E+02 0.  0.
        -13    1    5    5    0    0  0.37139537204E+02  0.44273181050E+02  0.60044633583E+03  0.60322074069E+03  0.00000000000E+00 0.  1.
         14    1    5    5    0    0  0.12099559860E+02 -0.26109482551E+02  0.10909423265E+03  0.11282577731E+03  0.00000000000E+00 0. -1.
         13    1    3    3    0    0  0.48019266024E+02  0.59435354609E+02 -0.50302834694E+03  0.50879851524E+03  0.00000000000E+00 0. -1.
        -14    1    3    3    0    0 -0.67505149388E+01 -0.79066419987E+01 -0.39728085348E+03  0.39741686046E+03  0.00000000000E+00 0.  1.
          5    1    4    4  501    0 -0.38086599294E+02 -0.25593873489E+02  0.75285998669E+02  0.88267147918E+02  0.41800000000E+01 0.  1.
         -5    1    4    4    0  501 -0.52421248855E+02 -0.44098537620E+02 -0.47401033686E+02  0.83408625131E+02  0.41800000000E+01 0.  1.
</event>
<event>
11    1  0.1078607E-008  0.1674599E+03  0.7561462E-02  0.1080264E+00
         22   -1    0    0    0    0  0.00000000000E+00  0.00000000000E+00  0.11008541985E+04  0.11008541985E+04  0.00000000000E+00 0. -1.
         22   -1    0    0    0    0 -0.00000000000E+00 -0.00000000000E+00 -0.94376803258E+03  0.94376803258E+03  0.00000000000E+00 0.  1.
         24    2    1    2    0    0 -0.72563660663E+00  0.26464360224E+02 -0.89618221308E+03  0.90035536713E+03  0.82439912540E+02 0.  0.
         25    2    1    2    0    0  0.47279369769E+02 -0.12478618635E+03  0.16507784741E+03  0.24636440281E+03  0.12505115816E+03 0.  0.
        -24    2    1    2    0    0 -0.46553733163E+02  0.98321826130E+02  0.88819053157E+03  0.89790246111E+03  0.74242694804E+02 0.  0.
        -13    1    3    3    0    0  0.10303238182E+02  0.31584440580E+02 -0.87709599197E+03  0.87772496418E+03  0.00000000000E+00 0.  1.
         14    1    3    3    0    0 -0.11028874789E+02 -0.51200803556E+01 -0.19086221105E+02  0.22630402958E+02  0.00000000000E+00 0. -1.
         11    1    5    5    0    0 -0.52036765510E+02  0.10833890810E+03  0.80079622862E+03  0.80976523990E+03  0.00000000000E+00 0. -1.
        -12    1    5    5    0    0  0.54830323469E+01 -0.10017081974E+02  0.87394302949E+02  0.88137221212E+02  0.00000000000E+00 0.  1.
          5    1    4    4  501    0  0.81292059820E+01 -0.10012909022E+03  0.17216128822E+03  0.19937126238E+03  0.41800000000E+01 0. -1.
         -5    1    4    4    0  501  0.39150163787E+02 -0.24657096130E+02 -0.70834408165E+01  0.46993140435E+02  0.41800000000E+01 0. -1.
</event>
<event>
11    1  0.1078607E-008  0.1304378E+03  0.7561462E-02  0.1118732E+00
         22   -1    0    0    0    0  0.00000000000E+00  0.00000000000E+00  0.98171021681E+03  0.98171021681E+03  0.00000000000E+00 0. -1.
         22   -1    0    0    0    0 -0.00000000000E+00 -0.00000000000E+00 -0.50798017488E+03  0.50798017488E+03  0.00000000000E+00 0. -1.
         24    2    1    2    0    0  0.27675949714E+02  0.14881055084E+01 -0.30655960206E+03  0.32456167035E+03  0.10292383395E+03 0.  0.
         25    2    1    2    0    0 -0.60453648419E+02 -0.25709576898E+02 -0.16450767932E+03  0.21687075741E+03  0.12511803593E+03 0.  0.
        -24    2    1    2    0    0  0.32777698705E+02  0.24221471389E+02  0.94479732330E+03  0.94825796393E+03  0.69929441712E+02 0.  0.
        -13    1    3    3    0    0 -0.19512304673E+02  0.22937386970E+01 -0.63241016456E+01  0.20639416961E+02  0.00000000000E+00 0.  1.
         14    1    3    3    0    0  0.47188254387E+02 -0.80563318861E+00 -0.30023550041E+03  0.30392225339E+03  0.00000000000E+00 0. -1.
         13    1    5    5    0    0  0.54537649024E+02  0.22830985163E+02  0.69723448127E+03  0.69973675830E+03  0.00000000000E+00 0. -1.
        -14    1    5    5    0    0 -0.21759950319E+02  0.13904862265E+01  0.24756284204E+03  0.24852120563E+03  0.00000000000E+00 0.  1.
          5    1    4    4  501    0 -0.14506239235E+02 -0.73379359251E+02 -0.90376669557E+02  0.11738984684E+03  0.41800000000E+01 0. -1.
         -5    1    4    4    0  501 -0.45947409185E+02  0.47669782354E+02 -0.74131009762E+02  0.99480910575E+02  0.41800000000E+01 0. -1.
</event>
<event>
11    1  0.1078607E-008  0.1565551E+03  0.7561462E-02  0.1090363E+00
         22   -1    0    0    0    0  0.00000000000E+00  0.00000000000E+00  0.19145009590E+04  0.19145009590E+04  0.00000000000E+00 0.  1.
         22   -1    0    0    0    0 -0.00000000000E+00 -0.00000000000E+00 -0.43884824165E+03  0.43884824165E+03  0.00000000000E+00 0. -1.
        -24    2    1    2    0    0  0.35188734157E+02  0.36825172452E+02 -0.38865321422E+03  0.40022705897E+03  0.80845763469E+02 0.  0.
         25    2    1    2    0    0 -0.81319190413E+02  0.46060816862E+02  0.10218717157E+03  0.18660941092E+03  0.12508574911E+03 0.  0.
         24    2    1    2    0    0  0.46130456256E+02 -0.82885989313E+02  0.17621187600E+04  0.17665127308E+04  0.80663482334E+02 0.  0.
        -13    1    5    5    0    0  0.53160746409E+02 -0.29102080082E+02  0.12634360191E+04  0.12648887581E+04  0.00000000000E+00 0.  1.
         14    1    5    5    0    0 -0.70302901530E+01 -0.53783909231E+02  0.49868274092E+03  0.50162397268E+03  0.00000000000E+00 0. -1.
         13    1    3    3    0    0  0.27441163487E+01  0.52625622227E+02 -0.29856128630E+03  0.30317623253E+03  0.00000000000E+00 0. -1.
        -14    1    3    3    0    0  0.32444617808E+02 -0.15800449775E+02 -0.90091927913E+02  0.97050826441E+02  0.00000000000E+00 0.  1.
          5    1    4    4  501    0 -0.51299640570E+02  0.49329727414E+02  0.12809822301E+03  0.14660048522E+03  0.41800000000E+01 0.  1.
         -5    1    4    4    0  501 -0.30019549842E+02 -0.32689105519E+01 -0.25911051435E+02  0.40008925697E+02  0.41800000000E+01 0.  1.
</event>
<event>
11    1  0.1078607E-008  0.8627396E+03  0.7561462E-02  0.8821790E-01
         22   -1    0    0    0    0  0.00000000000E+00  0.00000000000E+00  0.52234441711E+03  0.52234441711E+03  0.00000000000E+00 0.  1.
         22   -1    0    0    0    0 -0.00000000000E+00 -0.00000000000E+00 -0.42318475850E+04  0.42318475850E+04  0.00000000000E+00 0.  1.
        -24    2    1    2    0    0  0.16901747583E+02  0.37344936949E+02 -0.28265904440E+03  0.29613157921E+03  0.78214215059E+02 0.  0.
         25    2    1    2    0    0  0.40255447522E+03 -0.77799909262E+03 -0.34902093954E+04  0.36006307373E+04  0.12508952346E+03 0.  0.
         24    2    1    2    0    0 -0.41945622280E+03  0.74065415567E+03  0.63365271927E+02  0.85742968561E+03  0.81599061967E+02 0.  0.
        -11    1    5    5    0    0 -0.25642639503E+03  0.42350427944E+03 -0.89535028234E+00  0.49508703520E+03  0.00000000000E+00 0.  1.
         12    1    5    5    0    0 -0.16302982778E+03  0.31714987623E+03  0.64260622210E+02  0.36234265041E+03  0.00000000000E+00 0. -1.
         13    1    3    3    0    0 -0.22379643294E+02  0.40085065656E+02 -0.11314752720E+03  0.12210660847E+03  0.00000000000E+00 0. -1.
        -14    1    3    3    0    0  0.39281390878E+02 -0.27401287074E+01 -0.16951151721E+03  0.17402497074E+03  0.00000000000E+00 0.  1.
          5    1    4    4  501    0  0.32761597501E+03 -0.64092292327E+03 -0.26505604541E+04  0.27465619625E+04  0.41800000000E+01 0. -1.
         -5    1    4    4    0  501  0.74938500204E+02 -0.13707616936E+03 -0.83964894130E+03  0.85406877477E+03  0.41800000000E+01 0. -1.
</event>
<event>
11    1  0.1078607E-008  0.1676355E+03  0.7561462E-02  0.1080108E+00
         22   -1    0    0    0    0  0.00000000000E+00  0.00000000000E+00  0.30083088832E+03  0.30083088832E+03  0.00000000000E+00 0.  1.
         22   -1    0    0    0    0 -0.00000000000E+00 -0.00000000000E+00 -0.51369522180E+03  0.51369522180E+03  0.00000000000E+00 0.  1.
         24    2    1    2    0    0 -0.65348387240E+02  0.93189284517E+02 -0.44157168077E+03  0.46284263010E+03  0.79265985875E+02 0.  0.
         25    2    1    2    0    0  0.15136965277E+02 -0.92195096387E+02  0.81036465848E+02  0.17590940674E+03  0.12509255400E+03 0.  0.
        -24    2    1    2    0    0  0.50211421963E+02 -0.99418813055E+00  0.14767088144E+03  0.17577407328E+03  0.81041102559E+02 0.  0.
        -13    1    3    3    0    0 -0.12961776825E+02  0.22614461877E+02 -0.25801154478E+03  0.25932485185E+03  0.00000000000E+00 0.  1.
         14    1    3    3    0    0 -0.52386610415E+02  0.70574822640E+02 -0.18356013599E+03  0.20351777825E+03  0.00000000000E+00 0. -1.
         11    1    5    5    0    0 -0.16994145396E+02 -0.38369675043E+01  0.51343382314E+01  0.18162729047E+02  0.00000000000E+00 0. -1.
        -12    1    5    5    0    0  0.67205567359E+02  0.28427793738E+01  0.14253654321E+03  0.15761134423E+03  0.00000000000E+00 0.  1.
          5    1    4    4  501    0  0.11898354200E+02  0.20677702198E+02 -0.14248674121E+02  0.28100450442E+02  0.41800000000E+01 0.  1.
         -5    1    4    4    0  501  0.32386110773E+01 -0.11287279858E+03  0.95285139969E+02  0.14780895629E+03  0.41800000000E+01 0.  1.
</event>
<event>
11    1  0.1078607E-008  0.1556171E+03  0.7561462E-02  0.1091273E+00
         22   -1    0    0    0    0  0.00000000000E+00  0.00000000000E+00  0.18689735719E+03  0.18689735719E+03  0.00000000000E+00 0. -1.
         22   -1    0    0    0    0 -0.00000000000E+00 -0.00000000000E+00 -0.58190386479E+03  0.58190386479E+03  0.00000000000E+00 0.  1.
         24    2    1    2    0    0 -0.47888695514E+02  0.79604563198E+02 -0.40373933011E+03  0.41875154841E+03  0.60968836146E+02 0.  0.
         25    2    1    2    0    0 -0.20842165690E+02 -0.11309086739E+03 -0.98527448773E+02  0.19642084083E+03  0.12509815503E+03 0.  0.
        -24    2    1    2    0    0  0.68730861204E+02  0.33486304197E+02  0.10726027128E+03  0.15362883275E+03  0.79068252832E+02 0.  0.
        -11    1    3    3    0    0 -0.50915395995E+02  0.54725970142E+02 -0.20063466250E+03  0.21410646219E+03  0.00000000000E+00 0.  1.
         12    1    3    3    0    0  0.30267004807E+01  0.24878593056E+02 -0.20310466761E+03  0.20464508622E+03  0.00000000000E+00 0. -1.
         11    1    5    5    0    0  0.42042310100E+02  0.11913600628E+02  0.11082338553E+03  0.11912729535E+03  0.00000000000E+00 0. -1.
        -12    1    5    5    0    0  0.26688551104E+02  0.21572703569E+02 -0.35631142501E+01  0.34501537393E+02  0.00000000000E+00 0.  1.
          5    1    4    4  501    0 -0.34402830939E+01 -0.15608703048E+02  0.29921614266E+02  0.34179563468E+02  0.41800000000E+01 0.  1.
         -5    1    4    4    0  501 -0.17401882596E+02 -0.97482164347E+02 -0.12844906304E+03  0.16224127736E+03  0.41800000000E+01 0.  1.
</event>
<event>
11    1  0.1078607E-008  0.1910365E+03  0.7561462E-02  0.1061050E+00
         22   -1    0    0    0    0  0.00000000000E+00  0.00000000000E+00  0.36268870422E+03  0.36268870422E+03  0.00000000000E+00 0.  1.
         22   -1    0    0    0    0 -0.00000000000E+00 -0.00000000000E+00 -0.36488420884E+04  0.36488420884E+04  0.00000000000E+00 0.  1.
         24    2    1    2    0    0  0.86162258049E+02 -0.12246306479E+03 -0.33267959193E+04  0.33311766070E+04  0.82130150734E+02 0.  0.
         25    2    1    2    0    0 -0.93250843000E+02  0.46379591537E+02 -0.28977110780E+03  0.33235715109E+03  0.12508874744E+03 0.  0.
        -24    2    1    2    0    0  0.70885849508E+01  0.76083473248E+02  0.33041364291E+03  0.34799703449E+03  0.78037283755E+02 0.  0.
        -13    1    3    3    0    0  0.12934637301E+02 -0.30022565824E+02 -0.16114787309E+04  0.16118102740E+04  0.00000000000E+00 0.  1.
         14    1    3    3    0    0  0.73227620749E+02 -0.92440498961E+02 -0.17153171884E+04  0.17193663330E+04  0.00000000000E+00 0. -1.
         13    1    5    5    0    0  0.13092891514E+01 -0.15658930204E+02  0.30467221781E+02  0.34280722517E+02  0.00000000000E+00 0. -1.
        -14    1    5    5    0    0  0.57792957994E+01  0.91742403452E+02  0.29994642113E+03  0.31371631198E+03  0.00000000000E+00 0.  1.
          5    1    4    4  501    0  0.21221307352E+02  0.42043232574E+02 -0.10077105490E+03  0.11131152320E+03  0.41800000000E+01 0.  1.
         -5    1    4    4    0  501 -0.11447215035E+03  0.43363589636E+01 -0.18900005290E+03  0.22104562789E+03  0.41800000000E+01 0.  1.
</event>
<event>
11    1  0.1078607E-008  0.3193562E+03  0.7561462E-02  0.9923164E-01
         22   -1    0    0    0    0  0.00000000000E+00  0.00000000000E+00  0.28091164447E+04  0.28091164447E+04  0.00000000000E+00 0. -1.
         22   -1    0    0    0    0 -0.00000000000E+00 -0.00000000000E+00 -0.14933846228E+04  0.14933846228E+04  0.00000000000E+00 0. -1.
         24    2    1    2    0    0 -0.36854117985E+01  0.36425102005E+02 -0.68305201584E+03  0.68858745244E+03  0.79071189439E+02 0.  0.
         25    2    1    2    0    0 -0.10191561341E+03  0.23819655639E+03 -0.77279095714E+03  0.82460780492E+03  0.12509107391E+03 0.  0.
        -24    2    1    2    0    0  0.10560102521E+03 -0.27462165840E+03  0.27715747949E+04  0.27893058101E+04  0.10968786067E+03 0.  0.
        -11    1    3    3    0    0 -0.26274574852E+02  0.68056608982E+01 -0.54263931099E+03  0.54331767147E+03  0.00000000000E+00 0.  1.
         12    1    3    3    0    0  0.22589163053E+02  0.29619441107E+02 -0.14041270486E+03  0.14526978097E+03  0.00000000000E+00 0. -1.
         11    1    5    5    0    0  0.81274848635E+02 -0.24404458727E+03  0.19620981793E+04  0.19788867140E+04  0.00000000000E+00 0. -1.
        -12    1    5    5    0    0  0.24326176571E+02 -0.30577071133E+02  0.80947661560E+03  0.81041909612E+03  0.00000000000E+00 0.  1.
          5    1    4    4  501    0  0.42804222997E+01  0.12492960909E+02 -0.19206250517E+03  0.19256135225E+03  0.41800000000E+01 0.  1.
         -5    1    4    4    0  501 -0.10619603571E+03  0.22570359548E+03 -0.58072845197E+03  0.63204645268E+03  0.41800000000E+01 0.  1.
</event>
<event>
11    1  0.1078607E-008  0.1492169E+03  0.7561462E-02  0.1097682E+00
         22   -1    0    0    0    0  0.00000000000E+00  0.00000000000E+00  0.14364991206E+04  0.14364991206E+04  0.00000000000E+00 0. -1.
         22   -1    0    0    0    0 -0.00000000000E+00 -0.00000000000E+00 -0.84108687319E+03  0.84108687319E+03  0.00000000000E+00 0. -1.
         24    2    1    2    0    0  0.33184955287E+02  0.95968563778E+01 -0.76462516796E+03  0.76918991330E+03  0.76211116892E+02 0.  0.
         25    2    1    2    0    0 -0.17364808861E+02  0.70731090182E+02  0.13130441569E+01  0.14475348131E+03  0.12508965809E+03 0.  0.
        -24    2    1    2    0    0 -0.15820146425E+02 -0.80327946560E+02  0.13587243712E+04  0.13636425992E+04  0.81770198226E+02 0.  0.
        -13    1    3    3    0    0  0.44520041749E+02  0.34723470915E+01 -0.22381520703E+03  0.22822650637E+03  0.00000000000E+00 0.  1.
         14    1    3    3    0    0 -0.11335086462E+02  0.61245092863E+01 -0.54080996094E+03  0.54096340694E+03  0.00000000000E+00 0. -1.
         13    1    5    5    0    0 -0.45891006157E+02 -0.70145697049E+02  0.10146965219E+04  0.10181529525E+04  0.00000000000E+00 0. -1.
        -14    1    5    5    0    0  0.30070859731E+02 -0.10182249511E+02  0.34402784933E+03  0.34548964662E+03  0.00000000000E+00 0.  1.
          5    1    4    4  501    0 -0.49691057184E+02  0.42513888205E+02 -0.46516841784E+02  0.80361189787E+02  0.41800000000E+01 0.  1.
         -5    1    4    4    0  501  0.32326248322E+02  0.28217201976E+02  0.47829885941E+02  0.64392291519E+02  0.41800000000E+01 0.  1.
</event>
<event>
11    1  0.1078607E-008  0.1349363E+03  0.7561462E-02  0.1113348E+00
         22   -1    0    0    0    0  0.00000000000E+00  0.00000000000E+00  0.39020185412E+03  0.39020185412E+03  0.00000000000E+00 0. -1.
         22   -1    0    0    0    0 -0.00000000000E+00 -0.00000000000E+00 -0.89284983552E+03  0.89284983552E+03  0.00000000000E+00 0.  1.
         24    2    1    2    0    0  0.31718620097E+02 -0.89786192168E+01 -0.83926146569E+03  0.84386156559E+03  0.81583378331E+02 0.  0.
         25    2    1    2    0    0  0.41158017545E+01 -0.32557541168E+02  0.53600932243E+02  0.13999202253E+03  0.12509105933E+03 0.  0.
        -24    2    1    2    0    0 -0.35834421852E+02  0.41536160385E+02  0.28301255205E+03  0.29919810152E+03  0.80087707697E+02 0.  0.
        -11    1    3    3    0    0  0.53365435754E+02 -0.14431223719E+02 -0.74264667175E+03  0.74470142273E+03  0.00000000000E+00 0.  1.
         12    1    3    3    0    0 -0.21646815657E+02  0.54526045020E+01 -0.96614793942E+02  0.99160142862E+02  0.00000000000E+00 0. -1.
         11    1    5    5    0    0 -0.45536442449E+02  0.41233985412E+02  0.28289760300E+03  0.28949069575E+03  0.00000000000E+00 0. -1.
        -12    1    5    5    0    0  0.97020205977E+01  0.30217497265E+00  0.11494905035E+00  0.97074057645E+01  0.00000000000E+00 0.  1.
          5    1    4    4  501    0  0.43010442038E+02  0.21042641273E+02 -0.88466407643E+01  0.48871528816E+02  0.41800000000E+01 0.  1.
         -5    1    4    4    0  501 -0.38894640283E+02 -0.53600182440E+02  0.62447573007E+02  0.91120493715E+02  0.41800000000E+01 0.  1.
</event>
<event>
11    1  0.1078607E-008  0.3555386E+03  0.7561462E-02  0.9790896E-01
         22   -1    0    0    0    0  0.00000000000E+00  0.00000000000E+00  0.87399380565E+03  0.87399380565E+03  0.00000000000E+00 0.  1.
         22   -1    0    0    0    0 -0.00000000000E+00 -0.00000000000E+00 -0.21386005920E+04  0.21386005920E+04  0.00000000000E+00 0. -1.
         24    2    1    2    0    0  0.29619984446E+03 -0.13534127610E+03 -0.14321445369E+04  0.14708581830E+04  0.79587756891E+02 0.  0.
         25    2    1    2    0    0 -0.29892235444E+03  0.19007833242E+03 -0.63255211014E+03  0.73570064589E+03  0.12509565095E+03 0.  0.
        -24    2    1    2    0    0  0.27225099827E+01 -0.54737056326E+02  0.80008986068E+03  0.80603556877E+03  0.80907327066E+02 0.  0.
        -11    1    3    3    0    0  0.10012478328E+03 -0.21368838846E+02 -0.58446953644E+03  0.59336855202E+03  0.00000000000E+00 0.  1.
         12    1    3    3    0    0  0.19607506117E+03 -0.11397243725E+03 -0.84767500048E+03  0.87748963100E+03  0.00000000000E+00 0. -1.
         11    1    5    5    0    0 -0.28286664699E+02 -0.98066479116E+00  0.12827634244E+03  0.13136177958E+03  0.00000000000E+00 0. -1.
        -12    1    5    5    0    0  0.31009174681E+02 -0.53756391535E+02  0.67181351823E+03  0.67467378920E+03  0.00000000000E+00 0.  1.
          5    1    4    4  501    0 -0.23042722704E+03  0.13259343130E+03 -0.35149123356E+03  0.44072813009E+03  0.41800000000E+01 0. -1.
         -5    1    4    4    0  501 -0.68495127403E+02  0.57484901126E+02 -0.28106087659E+03  0.29497251581E+03  0.41800000000E+01 0. -1.
</event>
<event>
11    1  0.1078607E-008  0.1822853E+03  0.7561462E-02  0.1067809E+00
         22   -1    0    0    0    0  0.00000000000E+00  0.00000000000E+00  0.45561976790E+03  0.45561976790E+03  0.00000000000E+00 0.  1.
         22   -1    0    0    0    0 -0.00000000000E+00 -0.00000000000E+00 -0.22257927587E+03  0.22257927587E+03  0.00000000000E+00 0.  1.
         24    2    1    2    0    0 -0.27150069680E+02  0.99709440655E+02 -0.56940734356E+02  0.14376719226E+03  0.82144138569E+02 0.  0.
         25    2    1    2    0    0  0.10510236940E+03 -0.18783506989E+03  0.47959575168E+02  0.25352474719E+03  0.12508459161E+03 0.  0.
        -24    2    1    2    0    0 -0.77952299717E+02  0.88125629231E+02  0.24202165122E+03  0.28090710431E+03  0.80570677263E+02 0.  0.
        -13    1    3    3    0    0 -0.43728083002E+02  0.92000221204E+02 -0.67929482072E+02  0.12243610774E+03  0.00000000000E+00 0.  1.
         14    1    3    3    0    0  0.16578013321E+02  0.77092194509E+01  0.10988747716E+02  0.21331084515E+02  0.00000000000E+00 0. -1.
         11    1    5    5    0    0 -0.16091231570E+02 -0.97445772505E+01  0.93225230834E+01  0.20995093614E+02  0.00000000000E+00 0. -1.
        -12    1    5    5    0    0 -0.61861068147E+02  0.97870206482E+02  0.23269912813E+03  0.25991201070E+03  0.00000000000E+00 0.  1.
          5    1    4    4  501    0  0.48962189826E+02 -0.17241998541E+03  0.21036812695E+01  0.17929820210E+03  0.41800000000E+01 0.  1.
         -5    1    4    4    0  501  0.56140179571E+02 -0.15415084479E+02  0.45855893898E+02  0.74226545096E+02  0.41800000000E+01 0.  1.
</event>
<event>
11    1  0.1078607E-008  0.1424756E+03  0.7561462E-02  0.1104825E+00
         22   -1    0    0    0    0  0.00000000000E+00  0.00000000000E+00  0.10325497339E+04  0.10325497339E+04  0.00000000000E+00 0. -1.
         22   -1    0    0    0    0 -0.00000000000E+00 -0.00000000000E+00 -0.51551799748E+03  0.51551799748E+03  0.00000000000E+00 0.  1.
        -24    2    1    2    0    0  0.61988047715E+02 -0.28196435721E+02 -0.47211097972E+03  0.48377888492E+03  0.80719732842E+02 0.  0.
         25    2    1    2    0    0 -0.85920681316E+02 -0.18446263603E+02  0.13322800843E+03  0.20277986567E+03  0.12508934236E+03 0.  0.
         24    2    1    2    0    0  0.23932633601E+02  0.46642699324E+02  0.85591470768E+03  0.86150898076E+03  0.82821644337E+02 0.  0.
        -13    1    5    5    0    0  0.51523730360E+02  0.21029265327E+02  0.37293566827E+03  0.37706489820E+03  0.00000000000E+00 0.  1.
         14    1    5    5    0    0 -0.27591096759E+02  0.25613433997E+02  0.48297903941E+03  0.48444408256E+03  0.00000000000E+00 0. -1.
         13    1    3    3    0    0  0.36971919776E+02 -0.13321500604E+02 -0.67380663204E+02  0.78003455078E+02  0.00000000000E+00 0. -1.
        -14    1    3    3    0    0  0.25016127939E+02 -0.14874935117E+02 -0.40473031652E+03  0.40577542984E+03  0.00000000000E+00 0.  1.
          5    1    4    4  501    0 -0.88496477068E+02 -0.62541207205E+02  0.97084748612E+02  0.14555394143E+03  0.41800000000E+01 0.  1.
         -5    1    4    4    0  501  0.25757957514E+01  0.44094943602E+02  0.36143259818E+02  0.57225924241E+02  0.41800000000E+01 0.  1.
</event>
<event>
11    1  0.1078607E-008  0.2734929E+03  0.7561462E-02  0.1012079E+00
         22   -1    0    0    0    0  0.00000000000E+00  0.00000000000E+00  0.32415271792E+03  0.32415271792E+03  0.00000000000E+00 0. -1.
         22   -1    0    0    0    0 -0.00000000000E+00 -0.00000000000E+00 -0.78914934721E+03  0.78914934721E+03  0.00000000000E+00 0.  1.
        -24    2    1    2    0    0  0.61606413895E+02  0.16047256979E+01 -0.13403389143E+03  0.16940114389E+03  0.83269070613E+02 0.  0.
         25    2    1    2    0    0 -0.17099620823E+03  0.21274231822E+03 -0.53826425677E+03  0.61633974164E+03  0.12508904755E+03 0.  0.
         24    2    1    2    0    0  0.10938979433E+03 -0.21434704392E+03  0.20730151891E+03  0.32756117961E+03  0.80072618928E+02 0.  0.
        -11    1    5    5    0    0  0.34359649433E+02 -0.89226109033E+02  0.35066350287E+02  0.10184072351E+03  0.00000000000E+00 0.  1.
         12    1    5    5    0    0  0.75030144901E+02 -0.12512093488E+03  0.17223516862E+03  0.22572045610E+03  0.00000000000E+00 0. -1.
         13    1    3    3    0    0 -0.12318982683E+02  0.23430805126E+02 -0.32192106224E+02  0.41678431668E+02  0.00000000000E+00 0. -1.
        -14    1    3    3    0    0  0.73925396578E+02 -0.21826079428E+02 -0.10184178521E+03  0.12772271222E+03  0.00000000000E+00 0.  1.
          5    1    4    4  501    0 -0.16016531704E+03  0.22889513599E+03 -0.51335103811E+03  0.58445929951E+03  0.41800000000E+01 0.  1.
         -5    1    4    4    0  501 -0.10830891186E+02 -0.16152817771E+02 -0.24913218663E+02  0.31880442123E+02  0.41800000000E+01 0.  1.
</event>
<event>
11    1  0.1078607E-008  0.1274850E+03  0.7561462E-02  0.1122398E+00
         22   -1    0    0    0    0  0.00000000000E+00  0.00000000000E+00  0.62168093093E+03  0.62168093093E+03  0.00000000000E+00 0. -1.
         22   -1    0    0    0    0 -0.00000000000E+00 -0.00000000000E+00 -0.26973863865E+03  0.26973863865E+03  0.00000000000E+00 0. -1.
         24    2    1    2    0    0 -0.38633518575E+01 -0.25104924571E+02 -0.22925169924E+03  0.24442034464E+03  0.80868909608E+02 0.  0.
         25    2    1    2    0    0  0.52071869373E+02 -0.20839822879E+01  0.12360441154E+03  0.18341500505E+03  0.12508873236E+03 0.  0.
        -24    2    1    2    0    0 -0.48208517516E+02  0.27188906859E+02  0.45758957998E+03  0.46358421989E+03  0.49586363123E+02 0.  0.
        -13    1    3    3    0    0 -0.43325957137E+01 -0.24765859805E+02 -0.13253506977E+02  0.28421376544E+02  0.00000000000E+00 0.  1.
         14    1    3    3    0    0  0.46924385621E+00 -0.33906476673E+00 -0.21599819227E+03  0.21599896809E+03  0.00000000000E+00 0. -1.
         13    1    5    5    0    0 -0.16114951748E+02  0.27603861998E+02  0.34591957712E+03  0.34739317595E+03  0.00000000000E+00 0. -1.
        -14    1    5    5    0    0 -0.32093565768E+02 -0.41495513887E+00  0.11167000286E+03  0.11619104394E+03  0.00000000000E+00 0.  1.
          5    1    4    4  501    0  0.27578733731E+02 -0.14756526419E+02 -0.19845802588E+02  0.37278276604E+02  0.41800000000E+01 0. -1.
         -5    1    4    4    0  501  0.24493135642E+02  0.12672544131E+02  0.14345021413E+03  0.14613672845E+03  0.41800000000E+01 0. -1.
</event>
<event>
11    1  0.1635850E-008  0.1851260E+03  0.7561462E-02  0.1065570E+00
         22   -1    0    0    0    0  0.00000000000E+00  0.00000000000E+00  0.12913344363E+04  0.12913344363E+04  0.00000000000E+00 0. -1.
         22   -1    0    0    0    0 -0.00000000000E+00 -0.00000000000E+00 -0.13819670693E+04  0.13819670693E+04  0.00000000000E+00 0. -1.
        -24    2    1    2    0    0  0.11257587532E+03  0.51960658387E+02 -0.91673912034E+03  0.92864169944E+03  0.81188382550E+02 0.  0.
         25    2    1    2    0    0 -0.16401719323E+03 -0.13013575652E+03 -0.42361630665E+03  0.48880982280E+03  0.12508921937E+03 0.  0.
         24    2    1    2    0    0  0.51441317910E+02  0.78175098136E+02  0.12497227939E+04  0.12558499834E+04  0.81206920542E+02 0.  0.
        -13    1    5    5    0    0 -0.83242897564E+01  0.65380543748E+01  0.20312707928E+02  0.22905153532E+02  0.00000000000E+00 0.  1.
         14    1    5    5    0    0  0.59765607667E+02  0.71637043761E+02  0.12294100860E+04  0.12329448299E+04  0.00000000000E+00 0. -1.
         13    1    3    3    0    0  0.91100088494E+02  0.42645628645E+02 -0.87519461028E+03  0.88095600436E+03  0.00000000000E+00 0. -1.
        -14    1    3    3    0    0  0.21475786828E+02  0.93150297415E+01 -0.41544510062E+02  0.47685695080E+02  0.00000000000E+00 0.  1.
          5    1    4    4  501    0 -0.17264161507E+03 -0.13501660180E+03 -0.42476530924E+03  0.47799335806E+03  0.41800000000E+01 0. -1.
         -5    1    4    4    0  501  0.86244218354E+01  0.48808452815E+01  0.11490025828E+01  0.10816464746E+02  0.41800000000E+01 0. -1.
</event>
<event>
11    1  0.1078607E-008  0.1495401E+03  0.7561462E-02  0.1097350E+00
         22   -1    0    0    0    0  0.00000000000E+00  0.00000000000E+00  0.23308011061E+03  0.23308011061E+03  0.00000000000E+00 0. -1.
         22   -1    0    0    0    0 -0.00000000000E+00 -0.00000000000E+00 -0.88398490309E+03  0.88398490309E+03  0.00000000000E+00 0.  1.
         24    2    1    2    0    0 -0.52897602576E+02 -0.24997667708E+02 -0.68510470609E+03  0.69236173597E+03  0.81075738520E+02 0.  0.
         25    2    1    2    0    0  0.10779023444E+03  0.79074671087E+02 -0.13094543548E+03  0.22508900133E+03  0.12508722237E+03 0.  0.
        -24    2    1    2    0    0 -0.54892631862E+02 -0.54077003379E+02  0.16514534908E+03  0.19961427640E+03  0.81457655812E+02 0.  0.
        -11    1    3    3    0    0 -0.42055963341E+02 -0.45809353539E+02 -0.62083932642E+03  0.62394604747E+03  0.00000000000E+00 0.  1.
         12    1    3    3    0    0 -0.10841639235E+02  0.20811685831E+02 -0.64265379667E+02  0.68415688494E+02  0.00000000000E+00 0. -1.
         11    1    5    5    0    0 -0.40337263716E+02 -0.17141009030E+02  0.15137700160E+03  0.15759411680E+03  0.00000000000E+00 0. -1.
        -12    1    5    5    0    0 -0.14555368146E+02 -0.36935994349E+02  0.13768347479E+02  0.42020159599E+02  0.00000000000E+00 0.  1.
          5    1    4    4  501    0 -0.90718666279E+01  0.47709777607E+02 -0.80120987699E+02  0.93783616444E+02  0.41800000000E+01 0.  1.
         -5    1    4    4    0  501  0.11686210107E+03  0.31364893480E+02 -0.50824447780E+02  0.13130538489E+03  0.41800000000E+01 0.  1.
</event>
<event>
11    1  0.1078607E-008  0.1431450E+03  0.7561462E-02  0.1104096E+00
         22   -1    0    0    0    0  0.00000000000E+00  0.00000000000E+00  0.25136079880E+04  0.25136079880E+04  0.00000000000E+00 0.  1.
         22   -1    0    0    0    0 -0.00000000000E+00 -0.00000000000E+00 -0.49085865346E+02  0.49085865346E+02  0.00000000000E+00 0. -1.
        -24    2    1    2    0    0 -0.47183155665E+02  0.44809439938E+02  0.36116646044E+02  0.11098549270E+03  0.82336087968E+02 0.  0.
         25    2    1    2    0    0  0.65951735199E+02 -0.92726256042E+02  0.67903650798E+03  0.69977524865E+03  0.12508808701E+03 0.  0.
         24    2    1    2    0    0 -0.18768579534E+02  0.47916816104E+02  0.17493689686E+04  0.17519331120E+04  0.79558529915E+02 0.  0.
        -11    1    5    5    0    0 -0.45810542382E+02  0.20171509141E+02  0.12759501499E+04  0.12769315881E+04  0.00000000000E+00 0.  1.
         12    1    5    5    0    0  0.27041962848E+02  0.27745306962E+02  0.47341881873E+03  0.47500152394E+03  0.00000000000E+00 0. -1.
         13    1    3    3    0    0  0.32316884560E+00  0.41097727514E+02 -0.12452842325E+02  0.42944160568E+02  0.00000000000E+00 0. -1.
        -14    1    3    3    0    0 -0.47506324510E+02  0.37117124240E+01  0.48569488369E+02  0.68041332130E+02  0.00000000000E+00 0.  1.
          5    1    4    4  501    0  0.51913735233E+02 -0.89887331112E+02  0.67675502705E+03  0.68468212130E+03  0.41800000000E+01 0.  1.
         -5    1    4    4    0  501  0.14037999965E+02 -0.28389249304E+01  0.22814809377E+01  0.15093127345E+02  0.41800000000E+01 0.  1.
</event>
<event>
11    1  0.1078607E-008  0.2192712E+03  0.7561462E-02  0.1041675E+00
         22   -1    0    0    0    0  0.00000000000E+00  0.00000000000E+00  0.57537941773E+03  0.57537941773E+03  0.00000000000E+00 0.  1.
         22   -1    0    0    0    0 -0.00000000000E+00 -0.00000000000E+00 -0.11964605963E+04  0.11964605963E+04  0.00000000000E+00 0.  1.
        -24    2    1    2    0    0  0.54856738051E+02 -0.12926897292E+03 -0.10886000691E+04  0.11005283727E+04  0.79955360200E+02 0.  0.
         25    2    1    2    0    0 -0.22010581945E+03  0.83615412528E+02  0.16187423255E+03  0.31191157371E+03  0.12508978249E+03 0.  0.
         24    2    1    2    0    0  0.16524908140E+03  0.45653560393E+02  0.30564465798E+03  0.35940006761E+03  0.79738605246E+02 0.  0.
        -13    1    5    5    0    0  0.15707352961E+03  0.24484788626E+02  0.29318919662E+03  0.33351387316E+03  0.00000000000E+00 0.  1.
         14    1    5    5    0    0  0.81755517893E+01  0.21168771768E+02  0.12455461360E+02  0.25886194446E+02  0.00000000000E+00 0. -1.
         11    1    3    3    0    0  0.10933453914E+02 -0.43993750369E+02 -0.14152217394E+03  0.14860523612E+03  0.00000000000E+00 0. -1.
        -12    1    3    3    0    0  0.43923284137E+02 -0.85275222552E+02 -0.94707789517E+03  0.95192313660E+03  0.00000000000E+00 0.  1.
          5    1    4    4  501    0 -0.18210881414E+03  0.11365906517E+02  0.92052037110E+02  0.20441099275E+03  0.41800000000E+01 0.  1.
         -5    1    4    4    0  501 -0.37997005305E+02  0.72249506011E+02  0.69822195443E+02  0.10750058096E+03  0.41800000000E+01 0.  1.
</event>
<event>
11    1  0.1078607E-008  0.1382256E+03  0.7561462E-02  0.1109556E+00
         22   -1    0    0    0    0  0.00000000000E+00  0.00000000000E+00  0.85978490807E+03  0.85978490807E+03  0.00000000000E+00 0. -1.
         22   -1    0    0    0    0 -0.00000000000E+00 -0.00000000000E+00 -0.90932705343E+03  0.90932705343E+03  0.00000000000E+00 0. -1.
        -24    2    1    2    0    0 -0.41962043008E+02 -0.41125465978E+02 -0.87346230420E+03  0.87901179288E+03  0.79203649871E+02 0.  0.
         25    2    1    2    0    0  0.69713844934E+02  0.17243578034E+02  0.14221058362E+03  0.20255690663E+03  0.12509232260E+03 0.  0.
         24    2    1    2    0    0 -0.27751801926E+02  0.23881887944E+02  0.68170957523E+03  0.68754326199E+03  0.81530884198E+02 0.  0.
        -13    1    5    5    0    0 -0.45843632353E+02 -0.16861213661E+01  0.21786607686E+03  0.22264345730E+03  0.00000000000E+00 0.  1.
         14    1    5    5    0    0  0.18091830426E+02  0.25568009310E+02  0.46384349836E+03  0.46489980469E+03  0.00000000000E+00 0. -1.
         11    1    3    3    0    0 -0.45248485840E+02 -0.49164344087E+02 -0.86222274311E+03  0.86480784972E+03  0.00000000000E+00 0. -1.
        -12    1    3    3    0    0  0.32864428321E+01  0.80388781084E+01 -0.11239561092E+02  0.14203943159E+02  0.00000000000E+00 0.  1.
          5    1    4    4  501    0  0.86480446162E+02 -0.29755667393E+02  0.72798059813E+02  0.11696707752E+03  0.41800000000E+01 0. -1.
         -5    1    4    4    0  501 -0.16766601228E+02  0.46999245427E+02  0.69412523803E+02  0.85589829116E+02  0.41800000000E+01 0. -1.
</event>
<event>
11    1  0.1078607E-008  0.1359967E+03  0.7561462E-02  0.1112113E+00
         22   -1    0    0    0    0  0.00000000000E+00  0.00000000000E+00  0.57930764143E+03  0.57930764143E+03  0.00000000000E+00 0.  1.
         22   -1    0    0    0    0 -0.00000000000E+00 -0.00000000000E+00 -0.10058410442E+04  0.10058410442E+04  0.00000000000E+00 0.  1.
        -24    2    1    2    0    0  0.51039350193E+02 -0.16029019416E+02 -0.96590924832E+03  0.97074481373E+03  0.80640391014E+02 0.  0.
         25    2    1    2    0    0 -0.46752785744E+02  0.35494179445E+01  0.98239540539E+02  0.16582394725E+03  0.12509257697E+03 0.  0.
         24    2    1    2    0    0 -0.42865644486E+01  0.12479601472E+02  0.44113630497E+03  0.44857992470E+03  0.80303139348E+02 0.  0.
        -13    1    5    5    0    0 -0.30593715430E+02  0.94509669407E+01  0.38691458419E+03  0.38823728783E+03  0.00000000000E+00 0.  1.
         14    1    5    5    0    0  0.26307150982E+02  0.30286345308E+01  0.54221720780E+02  0.60342636868E+02  0.00000000000E+00 0. -1.
         11    1    3    3    0    0  0.19390640995E+02  0.15720482987E+02 -0.82380129754E+02  0.86079128259E+02  0.00000000000E+00 0. -1.
        -12    1    3    3    0    0  0.31648709198E+02 -0.31749502403E+02 -0.88352911857E+03  0.88466568547E+03  0.00000000000E+00 0.  1.
          5    1    4    4  501    0  0.26909853493E+02  0.12292165354E+02 -0.12567452953E+02  0.32413744274E+02  0.41800000000E+01 0.  1.
         -5    1    4    4    0  501 -0.73662639237E+02 -0.87427474094E+01  0.11080699349E+03  0.13341020298E+03  0.41800000000E+01 0.  1.
</event>
<event>
11    1  0.1078607E-008  0.1530999E+03  0.7561462E-02  0.1093753E+00
         22   -1    0    0    0    0  0.00000000000E+00  0.00000000000E+00  0.71004391079E+03  0.71004391079E+03  0.00000000000E+00 0. -1.
         22   -1    0    0    0    0 -0.00000000000E+00 -0.00000000000E+00 -0.72121193345E+03  0.72121193345E+03  0.00000000000E+00 0.  1.
         24    2    1    2    0    0 -0.35423488512E+02  0.80032160880E+02 -0.68294776895E+03  0.69366212728E+03  0.84199295714E+02 0.  0.
         25    2    1    2    0    0  0.93267982584E+02 -0.11839272065E+03  0.38826691269E+03  0.43487262446E+03  0.12508897286E+03 0.  0.
        -24    2    1    2    0    0 -0.57844494073E+02  0.38360559774E+02  0.28351283359E+03  0.30272109251E+03  0.80268393519E+02 0.  0.
        -13    1    3    3    0    0 -0.29252651102E+02  0.54656881771E+02 -0.64270939969E+03  0.64569223688E+03  0.00000000000E+00 0.  1.
         14    1    3    3    0    0 -0.61708374093E+01  0.25375279109E+02 -0.40238369259E+02  0.47969890398E+02  0.00000000000E+00 0. -1.
         13    1    5    5    0    0 -0.44711646155E+02  0.63553177088E+02  0.20758938805E+03  0.22165624659E+03  0.00000000000E+00 0. -1.
        -14    1    5    5    0    0 -0.13132847918E+02 -0.25192617314E+02  0.75923445540E+02  0.81064845921E+02  0.00000000000E+00 0.  1.
          5    1    4    4  501    0  0.55693324130E+02 -0.11132633407E+03  0.37342292903E+03  0.39364635821E+03  0.41800000000E+01 0. -1.
         -5    1    4    4    0  501  0.37574658455E+02 -0.70663865886E+01  0.14843983662E+02  0.41226266243E+02  0.41800000000E+01 0. -1.
</event>
<event>
11    1  0.1078607E-008  0.1753717E+03  0.7561462E-02  0.1073449E+00
         22   -1    0    0    0    0  0.00000000000E+00  0.00000000000E+00  0.15609146962E+04  0.15609146962E+04  0.00000000000E+00 0.  1.
         22   -1    0    0    0    0 -0.00000000000E+00 -0.00000000000E+00 -0.33108695022E+03  0.33108695022E+03  0.00000000000E+00 0.  1.
        -24    2    1    2    0    0 -0.22604233697E+02 -0.11903789433E+03 -0.24986560968E+03  0.28947800828E+03  0.81754037881E+02 0.  0.
         25    2    1    2    0    0 -0.10361592996E+02  0.13972073327E+03  0.86962837419E+02  0.20697072313E+03  0.12508037107E+03 0.  0.
         24    2    1    2    0    0  0.32965826693E+02 -0.20682838942E+02  0.13927305182E+04  0.13955529150E+04  0.79718985087E+02 0.  0.
        -13    1    5    5    0    0  0.29737037087E+02  0.26752816570E+02  0.75024399878E+03  0.75130956488E+03  0.00000000000E+00 0.  1.
         14    1    5    5    0    0  0.32287896062E+01 -0.47435655512E+02  0.64248651943E+03  0.64424335010E+03  0.00000000000E+00 0. -1.
         11    1    3    3    0    0  0.27012392778E+02 -0.75150792554E+02 -0.14094430002E+03  0.16199569961E+03  0.00000000000E+00 0. -1.
        -12    1    3    3    0    0 -0.49616626475E+02 -0.43887101774E+02 -0.10892130966E+03  0.12748230867E+03  0.00000000000E+00 0.  1.
          5    1    4    4  501    0 -0.18557794884E+01 -0.70465963955E+01 -0.22249662151E+02  0.23782731216E+02  0.41800000000E+01 0.  1.
         -5    1    4    4    0  501 -0.85058135075E+01  0.14676732967E+03  0.10921249957E+03  0.18318799192E+03  0.41800000000E+01 0.  1.
</event>
<event>
11    1  0.1078607E-008  0.1975255E+03  0.7561462E-02  0.1056287E+00
         22   -1    0    0    0    0  0.00000000000E+00  0.00000000000E+00  0.70992167865E+03  0.70992167865E+03  0.00000000000E+00 0.  1.
         22   -1    0    0    0    0 -0.00000000000E+00 -0.00000000000E+00 -0.35261309850E+03  0.35261309850E+03  0.00000000000E+00 0.  1.
        -24    2    1    2    0    0 -0.33766577065E+01  0.10601065677E+03 -0.27944591189E+03  0.30963998926E+03  0.80853225730E+02 0.  0.
         25    2    1    2    0    0 -0.41591908825E+02  0.73801120995E+02  0.10364618094E+03  0.18321215881E+03  0.12509065502E+03 0.  0.
         24    2    1    2    0    0  0.44968566532E+02 -0.17981177777E+03  0.53310831110E+03  0.56968262907E+03  0.77326445003E+02 0.  0.
        -11    1    5    5    0    0  0.35174518420E+02 -0.18513180272E+03  0.48554930657E+03  0.52083506049E+03  0.00000000000E+00 0.  1.
         12    1    5    5    0    0  0.97940481113E+01  0.53200249548E+01  0.47559004537E+02  0.48847568583E+02  0.00000000000E+00 0. -1.
         11    1    3    3    0    0 -0.48748767077E+01  0.50569470444E+01  0.44566808968E+01  0.83186021026E+01  0.00000000000E+00 0. -1.
        -12    1    3    3    0    0  0.14982190012E+01  0.10095370973E+03 -0.28390259279E+03  0.30132138716E+03  0.00000000000E+00 0.  1.
          5    1    4    4  501    0 -0.39322191994E+02  0.63078701015E+02  0.13254558563E+03  0.15202289951E+03  0.41800000000E+01 0.  1.
         -5    1    4    4    0  501 -0.22697168317E+01  0.10722419980E+02 -0.28899404689E+02  0.31189259307E+02  0.41800000000E+01 0.  1.
</event>
<event>
11    1  0.1078607E-008  0.1646367E+03  0.7561462E-02  0.1082796E+00
         22   -1    0    0    0    0  0.00000000000E+00  0.00000000000E+00  0.79187782126E+03  0.79187782126E+03  0.00000000000E+00 0. -1.
         22   -1    0    0    0    0 -0.00000000000E+00 -0.00000000000E+00 -0.31043337481E+03  0.31043337481E+03  0.00000000000E+00 0. -1.
        -24    2    1    2    0    0  0.10082616347E+03 -0.53094372660E+02 -0.26747136423E+03  0.30212264758E+03  0.82171989455E+02 0.  0.
         25    2    1    2    0    0 -0.24944369905E+02 -0.76572782525E+01  0.20324970206E+03  0.24008106336E+03  0.12509044767E+03 0.  0.
         24    2    1    2    0    0 -0.75881793570E+02  0.60751650913E+02  0.54566610863E+03  0.56010748513E+03  0.80747031589E+02 0.  0.
        -13    1    5    5    0    0 -0.79355492451E+02  0.15453399765E+02  0.35942253448E+03  0.36840285021E+03  0.00000000000E+00 0.  1.
         14    1    5    5    0    0  0.34736988815E+01  0.45298251148E+02  0.18624357414E+03  0.19170463492E+03  0.00000000000E+00 0. -1.
         11    1    3    3    0    0  0.83388456841E+02  0.12674652450E+01 -0.15927841285E+03  0.17979113995E+03  0.00000000000E+00 0. -1.
        -12    1    3    3    0    0  0.17437706633E+02 -0.54361837905E+02 -0.10819295137E+03  0.12233150763E+03  0.00000000000E+00 0.  1.
          5    1    4    4  501    0  0.37063845556E+02 -0.25920470429E+02  0.28279752737E+02  0.53505291790E+02  0.41800000000E+01 0. -1.
         -5    1    4    4    0  501 -0.62008215460E+02  0.18263192177E+02  0.17496994932E+03  0.18657577157E+03  0.41800000000E+01 0. -1.
</event>
<event>
11    1  0.1078607E-008  0.1449902E+03  0.7561462E-02  0.1102111E+00
         22   -1    0    0    0    0  0.00000000000E+00  0.00000000000E+00  0.10100456053E+04  0.10100456053E+04  0.00000000000E+00 0.  1.
         22   -1    0    0    0    0 -0.00000000000E+00 -0.00000000000E+00 -0.82256906736E+03  0.82256906736E+03  0.00000000000E+00 0.  1.
        -24    2    1    2    0    0 -0.73218060642E+02 -0.23717881823E+01 -0.79415561514E+03  0.80148785039E+03  0.79580924157E+02 0.  0.
         25    2    1    2    0    0  0.77693777326E+02 -0.69974852313E+01  0.23961693293E+03  0.28133378544E+03  0.12508851446E+03 0.  0.
         24    2    1    2    0    0 -0.44757166843E+01  0.93692734135E+01  0.74201522018E+03  0.74979303686E+03  0.10721565102E+03 0.  0.
        -13    1    5    5    0    0 -0.73345266648E+01 -0.19899322073E+02  0.68770567737E+03  0.68803261332E+03  0.00000000000E+00 0.  1.
         14    1    5    5    0    0  0.28588099805E+01  0.29268595487E+02  0.54309542810E+02  0.61760423545E+02  0.00000000000E+00 0. -1.
         13    1    3    3    0    0  0.86161549163E+01 -0.21556760800E+02 -0.13300754155E+03  0.13501828828E+03  0.00000000000E+00 0. -1.
        -14    1    3    3    0    0 -0.81834215559E+02  0.19184972617E+02 -0.66114807359E+03  0.66646956211E+03  0.00000000000E+00 0.  1.
          5    1    4    4  501    0 -0.20082676851E+02  0.41889209504E+01 -0.13814891163E+01  0.20981941769E+02  0.41800000000E+01 0.  1.
         -5    1    4    4    0  501  0.97776454177E+02 -0.11186406182E+02  0.24099842204E+03  0.26035184367E+03  0.41800000000E+01 0.  1.
</event>
<event>
11    1  0.1078607E-008  0.1326662E+03  0.7561462E-02  0.1116036E+00
         22   -1    0    0    0    0  0.00000000000E+00  0.00000000000E+00  0.17938292969E+04  0.17938292969E+04  0.00000000000E+00 0. -1.
         22   -1    0    0    0    0 -0.00000000000E+00 -0.00000000000E+00 -0.13521092429E+03  0.13521092429E+03  0.00000000000E+00 0. -1.
        -24    2    1    2    0    0 -0.12356881553E+02 -0.42917651846E+02 -0.10136958172E+03  0.13744483829E+03  0.81367524923E+02 0.  0.
         25    2    1    2    0    0  0.54457172383E+02  0.20174861014E+02  0.31618406973E+03  0.34495177172E+03  0.12508697062E+03 0.  0.
         24    2    1    2    0    0 -0.42100290830E+02  0.22742790832E+02  0.14438038846E+04  0.14466436112E+04  0.76931213373E+02 0.  0.
        -11    1    5    5    0    0 -0.37787688927E+02  0.25151958614E+02  0.36283798567E+03  0.36566642490E+03  0.00000000000E+00 0.  1.
         12    1    5    5    0    0 -0.43126019023E+01 -0.24091677815E+01  0.10809658990E+04  0.10809771863E+04  0.00000000000E+00 0. -1.
         11    1    3    3    0    0 -0.40950452108E+02 -0.48140642820E+02 -0.62266456222E+02  0.88721883374E+02  0.00000000000E+00 0. -1.
        -12    1    3    3    0    0  0.28593570555E+02  0.52229909742E+01 -0.39103125498E+02  0.48722954913E+02  0.00000000000E+00 0.  1.
          5    1    4    4  501    0 -0.21259487802E+02  0.45840598579E+02  0.72627978209E+02  0.88575515343E+02  0.41800000000E+01 0. -1.
         -5    1    4    4    0  501  0.75716660185E+02 -0.25665737565E+02  0.24355609152E+03  0.25637625638E+03  0.41800000000E+01 0. -1.
</event>
<event>
11    1  0.1078607E-008  0.1513781E+03  0.7561462E-02  0.1095479E+00
         22   -1    0    0    0    0  0.00000000000E+00  0.00000000000E+00  0.10539270409E+03  0.10539270409E+03  0.00000000000E+00 0. -1.
         22   -1    0    0    0    0 -0.00000000000E+00 -0.00000000000E+00 -0.63389817561E+03  0.63389817561E+03  0.00000000000E+00 0.  1.
        -24    2    1    2    0    0 -0.11057740341E+02 -0.78571299877E+02 -0.35530341916E+03  0.37270525209E+03  0.79830836666E+02 0.  0.
         25    2    1    2    0    0  0.25021852590E+02  0.10062612224E+03 -0.22197312910E+03  0.27508241084E+03  0.12508618281E+03 0.  0.
         24    2    1    2    0    0 -0.13964112249E+02 -0.22054822363E+02  0.48771076736E+02  0.91503216761E+02  0.72889019278E+02 0.  0.
        -13    1    5    5    0    0  0.18737271681E+02 -0.94485246477E+01 -0.98678235055E+01  0.23189090297E+02  0.00000000000E+00 0.  1.
         14    1    5    5    0    0 -0.32701383930E+02 -0.12606297716E+02  0.58638900241E+02  0.68314126464E+02  0.00000000000E+00 0. -1.
         13    1    3    3    0    0  0.66241998381E+01  0.30514893249E+01 -0.16160170313E+03  0.16176619568E+03  0.00000000000E+00 0. -1.
        -14    1    3    3    0    0 -0.17681940179E+02 -0.81622789202E+02 -0.19370171603E+03  0.21093905641E+03  0.00000000000E+00 0.  1.
          5    1    4    4  501    0 -0.30925610254E+02  0.36756918640E+02 -0.16705727676E+03  0.17387659577E+03  0.41800000000E+01 0.  1.
         -5    1    4    4    0  501  0.55947462844E+02  0.63869203601E+02 -0.54915852340E+02  0.10120581508E+03  0.41800000000E+01 0.  1.
</event>
<event>
11    1  0.1078607E-008  0.1422950E+03  0.7561462E-02  0.1105022E+00
         22   -1    0    0    0    0  0.00000000000E+00  0.00000000000E+00  0.34123104149E+03  0.34123104149E+03  0.00000000000E+00 0. -1.
         22   -1    0    0    0    0 -0.00000000000E+00 -0.00000000000E+00 -0.16110953044E+04  0.16110953044E+04  0.00000000000E+00 0.  1.
        -24    2    1    2    0    0  0.14976759012E+02  0.24594839829E+02 -0.15638384779E+04  0.15661077725E+04  0.79205811249E+02 0.  0.
         25    2    1    2    0    0 -0.41747910816E+02  0.44125838863E+02  0.13724774211E+03  0.19538563795E+03  0.12509447265E+03 0.  0.
         24    2    1    2    0    0  0.26771151805E+02 -0.68720678692E+02  0.15672647293E+03  0.19083293544E+03  0.80092419651E+02 0.  0.
        -13    1    5    5    0    0  0.48483152499E+02 -0.54244388428E+02  0.72714386787E+02  0.10286132314E+03  0.00000000000E+00 0.  1.
         14    1    5    5    0    0 -0.21712000695E+02 -0.14476290264E+02  0.84012086140E+02  0.87971612305E+02  0.00000000000E+00 0. -1.
         13    1    3    3    0    0  0.13923004493E+02  0.65199767651E+01 -0.53613168947E+02  0.55773936885E+02  0.00000000000E+00 0. -1.
        -14    1    3    3    0    0  0.10537545183E+01  0.18074863064E+02 -0.15102253090E+04  0.15103338356E+04  0.00000000000E+00 0.  1.
          5    1    4    4  501    0  0.85605170298E+01  0.30484823573E+02  0.13943642091E+03  0.14304752635E+03  0.41800000000E+01 0. -1.
         -5    1    4    4    0  501 -0.50308427846E+02  0.13641015289E+02 -0.21886787930E+01  0.52338111595E+02  0.41800000000E+01 0. -1.
</event>
<event>
11    1  0.1078607E-008  0.1252186E+03  0.7561462E-02  0.1125287E+00
         22   -1    0    0    0    0  0.00000000000E+00  0.00000000000E+00  0.18716783012E+04  0.18716783012E+04  0.00000000000E+00 0. -1.
         22   -1    0    0    0    0 -0.00000000000E+00 -0.00000000000E+00 -0.17543677267E+04  0.17543677267E+04  0.00000000000E+00 0. -1.
         24    2    1    2    0    0  0.58703762554E+02 -0.18348628127E+02 -0.17373602362E+04  0.17398689873E+04  0.70290103478E+02 0.  0.
         25    2    1    2    0    0 -0.58861955478E+02  0.16933813014E+02  0.32544733383E+03  0.35399853742E+03  0.12509002188E+03 0.  0.
        -24    2    1    2    0    0  0.15819292462E+00  0.14148151126E+01  0.15292234770E+04  0.15321785032E+04  0.95102557471E+02 0.  0.
        -13    1    3    3    0    0 -0.32387128890E+01 -0.25134469253E+02 -0.82181787763E+03  0.82220852270E+03  0.00000000000E+00 0.  1.
         14    1    3    3    0    0  0.61942475443E+02  0.67858411269E+01 -0.91554235861E+03  0.91766046461E+03  0.00000000000E+00 0. -1.
         13    1    5    5    0    0 -0.31208569121E+01 -0.38913727104E+02  0.33454574618E+03  0.33681578674E+03  0.00000000000E+00 0. -1.
        -14    1    5    5    0    0  0.32790498368E+01  0.40328542217E+02  0.11946777308E+04  0.11953627165E+04  0.00000000000E+00 0.  1.
          5    1    4    4  501    0  0.97608751549E+00  0.52411574346E+02  0.22928726068E+03  0.23524040083E+03  0.41800000000E+01 0.  1.
         -5    1    4    4    0  501 -0.59838042994E+02 -0.35477761332E+02  0.96160073150E+02  0.11875813659E+03  0.41800000000E+01 0.  1.
</event>
<event>
11    1  0.1078607E-008  0.2033800E+03  0.7561462E-02  0.1052159E+00
         22   -1    0    0    0    0  0.00000000000E+00  0.00000000000E+00  0.47910471804E+03  0.47910471804E+03  0.00000000000E+00 0. -1.
         22   -1    0    0    0    0 -0.00000000000E+00 -0.00000000000E+00 -0.15766748342E+04  0.15766748342E+04  0.00000000000E+00 0. -1.
         24    2    1    2    0    0  0.48901189931E+02  0.11032001737E+03 -0.53102404845E+03  0.55084014832E+03  0.82924642713E+02 0.  0.
         25    2    1    2    0    0 -0.11022945769E+03 -0.19719922721E+03 -0.10096099073E+04  0.10421118366E+04  0.12508735544E+03 0.  0.
        -24    2    1    2    0    0  0.61328267756E+02  0.86879209846E+02  0.44306383962E+03  0.46282756730E+03  0.81207373758E+02 0.  0.
        -11    1    3    3    0    0  0.39015197146E+02  0.12376101213E+02 -0.88617387888E+02  0.97613497662E+02  0.00000000000E+00 0.  1.
         12    1    3    3    0    0  0.98859927856E+01  0.97943916154E+02 -0.44240666056E+03  0.45322665066E+03  0.00000000000E+00 0. -1.
         13    1    5    5    0    0  0.56426645815E+01  0.75105336728E+02  0.28666339784E+03  0.29639256895E+03  0.00000000000E+00 0. -1.
        -14    1    5    5    0    0  0.55685603175E+02  0.11773873118E+02  0.15640044178E+03  0.16643499835E+03  0.00000000000E+00 0.  1.
          5    1    4    4  501    0 -0.12843507626E+03 -0.16662774396E+03 -0.94587134582E+03  0.96899455577E+03  0.41800000000E+01 0. -1.
         -5    1    4    4    0  501  0.18205618570E+02 -0.30571483249E+02 -0.63738561523E+02  0.73117280861E+02  0.41800000000E+01 0. -1.
</event>
<event>
11    1  0.1078607E-008  0.1983371E+03  0.7561462E-02  0.1055706E+00
         22   -1    0    0    0    0  0.00000000000E+00  0.00000000000E+00  0.90367537316E+03  0.90367537316E+03  0.00000000000E+00 0.  1.
         22   -1    0    0    0    0 -0.00000000000E+00 -0.00000000000E+00 -0.30761792524E+03  0.30761792524E+03  0.00000000000E+00 0.  1.
         24    2    1    2    0    0  0.75509652866E+02  0.12325866420E+03 -0.15605435910E+03  0.22795857027E+03  0.81961825207E+02 0.  0.
         25    2    1    2    0    0 -0.14707589668E+03 -0.12279744265E+03  0.51659646408E+01  0.22887583436E+03  0.12508768548E+03 0.  0.
        -24    2    1    2    0    0  0.71566243809E+02 -0.46122155237E+00  0.74694584238E+03  0.75445889376E+03  0.78474141941E+02 0.  0.
        -13    1    3    3    0    0  0.51260007365E+02  0.57754613671E+02 -0.13409297559E+03  0.15473884405E+03  0.00000000000E+00 0.  1.
         14    1    3    3    0    0  0.24249645501E+02  0.65504050529E+02 -0.21961383507E+02  0.73219726223E+02  0.00000000000E+00 0. -1.
         13    1    5    5    0    0  0.28051568882E+02  0.35546670802E+02  0.22835138624E+03  0.23279779192E+03  0.00000000000E+00 0. -1.
        -14    1    5    5    0    0  0.43514674927E+02 -0.36007892355E+02  0.51859445614E+03  0.52166110185E+03  0.00000000000E+00 0.  1.
          5    1    4    4  501    0 -0.76345802424E+02 -0.13197099890E+03  0.25399832570E+02  0.15462098820E+03  0.41800000000E+01 0. -1.
         -5    1    4    4    0  501 -0.70730094251E+02  0.91735562476E+01 -0.20233867929E+02  0.74254846161E+02  0.41800000000E+01 0. -1.
</event>
<event>
11    1  0.1078607E-008  0.1314241E+03  0.7561462E-02  0.1117531E+00
         22   -1    0    0    0    0  0.00000000000E+00  0.00000000000E+00  0.20360456375E+03  0.20360456375E+03  0.00000000000E+00 0. -1.
         22   -1    0    0    0    0 -0.00000000000E+00 -0.00000000000E+00 -0.49484844380E+03  0.49484844380E+03  0.00000000000E+00 0.  1.
        -24    2    1    2    0    0 -0.10610680664E+02  0.94115930784E+01 -0.31019372216E+03  0.32073171764E+03  0.80296480636E+02 0.  0.
         25    2    1    2    0    0 -0.23292849612E+02 -0.31603641000E+02 -0.14301233546E+03  0.19401492287E+03  0.12509162735E+03 0.  0.
         24    2    1    2    0    0  0.33903530276E+02  0.22192047921E+02  0.16196217758E+03  0.18370636703E+03  0.76644282025E+02 0.  0.
        -13    1    5    5    0    0 -0.28704453051E+01 -0.25576436663E+02  0.38466653312E+02  0.46282577561E+02  0.00000000000E+00 0.  1.
         14    1    5    5    0    0  0.36773975581E+02  0.47768484585E+02  0.12349552427E+03  0.13742378947E+03  0.00000000000E+00 0. -1.
         13    1    3    3    0    0 -0.20628383928E+02  0.51989649947E+01 -0.16722159983E+02  0.27059011345E+02  0.00000000000E+00 0. -1.
        -14    1    3    3    0    0  0.10017703264E+02  0.42126280837E+01 -0.29347156218E+03  0.29367270630E+03  0.00000000000E+00 0.  1.
          5    1    4    4  501    0 -0.74679670611E+02 -0.15218724165E+02 -0.73835583512E+02  0.10619712124E+03  0.41800000000E+01 0.  1.
         -5    1    4    4    0  501  0.51386820999E+02 -0.16384916834E+02 -0.69176751950E+02  0.87817801626E+02  0.41800000000E+01 0.  1.
</event>
<event>
11    1  0.1078607E-008  0.1414473E+03  0.7561462E-02  0.1105953E+00
         22   -1    0    0    0    0  0.00000000000E+00  0.00000000000E+00  0.11956843525E+04  0.11956843525E+04  0.00000000000E+00 0.  1.
         22   -1    0    0    0    0 -0.00000000000E+00 -0.00000000000E+00 -0.14344867857E+04  0.14344867857E+04  0.00000000000E+00 0.  1.
        -24    2    1    2    0    0  0.64518153860E+02 -0.16186797239E+02 -0.14096399275E+04  0.14141389973E+04  0.90993263208E+02 0.  0.
         25    2    1    2    0    0 -0.28631488628E+02 -0.23944225017E+02  0.18898404288E+03  0.22968132933E+03  0.12508179933E+03 0.  0.
         24    2    1    2    0    0 -0.35886665232E+02  0.40131022256E+02  0.98185345143E+03  0.98635081162E+03  0.77158096245E+02 0.  0.
        -11    1    5    5    0    0 -0.51199573434E+02  0.26035849955E+02  0.90208892531E+03  0.90391575436E+03  0.00000000000E+00 0.  1.
         12    1    5    5    0    0  0.15312908202E+02  0.14095172301E+02  0.79764526120E+02  0.82435057269E+02  0.00000000000E+00 0. -1.
         13    1    3    3    0    0 -0.72721828220E+01  0.25557362737E+02 -0.50384867132E+03  0.50454885495E+03  0.00000000000E+00 0. -1.
        -14    1    3    3    0    0  0.71790336682E+02 -0.41744159976E+02 -0.90579125619E+03  0.90959014239E+03  0.00000000000E+00 0.  1.
          5    1    4    4  501    0 -0.12497512112E+02 -0.47357854204E+02  0.12296683440E+02  0.50671836234E+02  0.41800000000E+01 0.  1.
         -5    1    4    4    0  501 -0.16133976517E+02  0.23413629187E+02  0.17668735944E+03  0.17900949309E+03  0.41800000000E+01 0.  1.
</event>
<event>
11    1  0.1078607E-008  0.1598656E+03  0.7561462E-02  0.1087204E+00
         22   -1    0    0    0    0  0.00000000000E+00  0.00000000000E+00  0.16839553751E+03  0.16839553751E+03  0.00000000000E+00 0.  1.
         22   -1    0    0    0    0 -0.00000000000E+00 -0.00000000000E+00 -0.44603595313E+03  0.44603595313E+03  0.00000000000E+00 0. -1.
         24    2    1    2    0    0 -0.11264871468E+02  0.83457979022E+02 -0.22151217959E+03  0.25040438223E+03  0.80886199936E+02 0.  0.
         25    2    1    2    0    0  0.26079152763E+02 -0.16647311867E+03 -0.10811812480E+03  0.23607551650E+03  0.12509476061E+03 0.  0.
        -24    2    1    2    0    0 -0.14814281296E+02  0.83015139647E+02  0.51989888786E+02  0.12795159190E+03  0.80979534416E+02 0.  0.
        -11    1    3    3    0    0  0.28986617725E+02  0.11331819344E+02 -0.88711885559E+02  0.94012939408E+02  0.00000000000E+00 0.  1.
         12    1    3    3    0    0 -0.40251489193E+02  0.72126159678E+02 -0.13280029404E+03  0.15639144282E+03  0.00000000000E+00 0. -1.
         13    1    5    5    0    0  0.23123357714E+02  0.38315130546E+02 -0.63991828173E+01  0.45207172456E+02  0.00000000000E+00 0. -1.
        -14    1    5    5    0    0 -0.37937639010E+02  0.44700009100E+02  0.58389071603E+02  0.82744419449E+02  0.00000000000E+00 0.  1.
          5    1    4    4  501    0 -0.22160551008E+02  0.38354264765E+01 -0.40561222494E+02  0.46567002131E+02  0.41800000000E+01 0.  1.
         -5    1    4    4    0  501  0.48239703771E+02 -0.17030854515E+03 -0.67556902310E+02  0.18950851437E+03  0.41800000000E+01 0.  1.
</event>
<event>
11    1  0.1078607E-008  0.3075855E+03  0.7561462E-02  0.9970310E-01
         22   -1    0    0    0    0  0.00000000000E+00  0.00000000000E+00  0.13436092002E+03  0.13436092002E+03  0.00000000000E+00 0.  1.
         22   -1    0    0    0    0 -0.00000000000E+00 -0.00000000000E+00 -0.19401442760E+04  0.19401442760E+04  0.00000000000E+00 0. -1.
         24    2    1    2    0    0  0.71792614436E+02 -0.84971504068E+02 -0.10955409289E+04  0.11038910568E+04  0.77402858877E+02 0.  0.
         25    2    1    2    0    0 -0.29840468096E+03 -0.72740210999E+02 -0.54840996592E+03  0.64088764328E+03  0.12508792378E+03 0.  0.
        -24    2    1    2    0    0  0.22661206652E+03  0.15771171507E+03 -0.16183246120E+03  0.32972649591E+03  0.79396491367E+02 0.  0.
        -13    1    3    3    0    0  0.33150211364E+02 -0.52788487128E+02 -0.28245451095E+03  0.28925094925E+03  0.00000000000E+00 0.  1.
         14    1    3    3    0    0  0.38642403073E+02 -0.32183016940E+02 -0.81308641792E+03  0.81464010760E+03  0.00000000000E+00 0. -1.
         11    1    5    5    0    0  0.55124372901E+02  0.51328041971E+02 -0.85554879507E+02  0.11398641054E+03  0.00000000000E+00 0. -1.
        -12    1    5    5    0    0  0.17148769362E+03  0.10638367310E+03 -0.76277581696E+02  0.21574008537E+03  0.00000000000E+00 0.  1.
          5    1    4    4  501    0 -0.21683308862E+03 -0.10000083880E+03 -0.34097803206E+03  0.41629346239E+03  0.41800000000E+01 0. -1.
         -5    1    4    4    0  501 -0.81571592335E+02  0.27260627800E+02 -0.20743193386E+03  0.22459418089E+03  0.41800000000E+01 0. -1.
</event>
<event>
11    1  0.1078607E-008  0.1338855E+03  0.7561462E-02  0.1114585E+00
         22   -1    0    0    0    0  0.00000000000E+00  0.00000000000E+00  0.57702242361E+03  0.57702242361E+03  0.00000000000E+00 0. -1.
         22   -1    0    0    0    0 -0.00000000000E+00 -0.00000000000E+00 -0.39958961345E+03  0.39958961345E+03  0.00000000000E+00 0. -1.
         24    2    1    2    0    0 -0.11002561772E+02 -0.47305709105E+02 -0.33602453398E+03  0.34880866504E+03  0.79975689401E+02 0.  0.
         25    2    1    2    0    0  0.31885689405E+02  0.29968887409E+02  0.28597770457E+02  0.13557489716E+03  0.12509152195E+03 0.  0.
        -24    2    1    2    0    0 -0.20883127633E+02  0.17336821696E+02  0.48485957369E+03  0.49222847486E+03  0.80395241491E+02 0.  0.
        -13    1    3    3    0    0 -0.14933530967E+02  0.20435625305E+02 -0.10633510073E+03  0.10930589543E+03  0.00000000000E+00 0.  1.
         14    1    3    3    0    0  0.39309691953E+01 -0.67741334410E+02 -0.22968943324E+03  0.23950276961E+03  0.00000000000E+00 0. -1.
         11    1    5    5    0    0 -0.17104007709E+01 -0.22209423505E+02  0.34287174440E+03  0.34359455332E+03  0.00000000000E+00 0. -1.
        -12    1    5    5    0    0 -0.19172726863E+02  0.39546245201E+02  0.14198782929E+03  0.14863392154E+03  0.00000000000E+00 0.  1.
          5    1    4    4  501    0 -0.15707982696E+02  0.67222814235E+02  0.28987031151E+02  0.74989118204E+02  0.41800000000E+01 0.  1.
         -5    1    4    4    0  501  0.47593672102E+02 -0.37253926826E+02 -0.38926069415E+00  0.60585778958E+02  0.41800000000E+01 0.  1.
</event>
<event>
11    1  0.1078607E-008  0.1355785E+03  0.7561462E-02  0.1112599E+00
         22   -1    0    0    0    0  0.00000000000E+00  0.00000000000E+00  0.45217650831E+03  0.45217650831E+03  0.00000000000E+00 0. -1.
         22   -1    0    0    0    0 -0.00000000000E+00 -0.00000000000E+00 -0.54092305114E+03  0.54092305114E+03  0.00000000000E+00 0.  1.
        -24    2    1    2    0    0 -0.76699844843E+01  0.41367475994E+02 -0.44530867334E+03  0.45472547744E+03  0.81886192702E+02 0.  0.
         25    2    1    2    0    0  0.10715154280E+02  0.13793033266E+02 -0.36996881438E+02  0.13161326211E+03  0.12509284244E+03 0.  0.
         24    2    1    2    0    0 -0.30451697960E+01 -0.55160509260E+02  0.39355901194E+03  0.40676081989E+03  0.86681681317E+02 0.  0.
        -11    1    5    5    0    0 -0.86065676770E+00 -0.78863588858E+02  0.29386112967E+03  0.30426069399E+03  0.00000000000E+00 0.  1.
         12    1    5    5    0    0 -0.21845130283E+01  0.23703079597E+02  0.99697882274E+02  0.10250012590E+03  0.00000000000E+00 0. -1.
         11    1    3    3    0    0 -0.24895959368E+02  0.55902007920E+02 -0.22192389238E+03  0.23020655354E+03  0.00000000000E+00 0. -1.
        -12    1    3    3    0    0  0.17225974883E+02 -0.14534531926E+02 -0.22338478095E+03  0.22451892390E+03  0.00000000000E+00 0.  1.
          5    1    4    4  501    0  0.40918588504E+02  0.14586618543E+02  0.33358556943E+02  0.54930556587E+02  0.41800000000E+01 0. -1.
         -5    1    4    4    0  501 -0.30203434223E+02 -0.79358527695E+00 -0.70355438381E+02  0.76682705522E+02  0.41800000000E+01 0. -1.
</event>
<event>
11    1  0.1078607E-008  0.1298421E+03  0.7561462E-02  0.1119463E+00
         22   -1    0    0    0    0  0.00000000000E+00  0.00000000000E+00  0.55897394784E+02  0.55897394784E+02  0.00000000000E+00 0.  1.
         22   -1    0    0    0    0 -0.00000000000E+00 -0.00000000000E+00 -0.15223720331E+04  0.15223720331E+04  0.00000000000E+00 0.  1.
        -24    2    1    2    0    0  0.19866844801E+02 -0.23704500653E+02 -0.10602953832E+04  0.10638206354E+04  0.80817385250E+02 0.  0.
         25    2    1    2    0    0  0.16809312983E+02  0.20142900891E+02 -0.40664451029E+03  0.42625749463E+03  0.12508958597E+03 0.  0.
         24    2    1    2    0    0 -0.36676157784E+02  0.35615997618E+01  0.46525517938E+00  0.88191297866E+02  0.80122799591E+02 0.  0.
        -13    1    5    5    0    0 -0.25106269671E+02 -0.27413645596E+02  0.26877453173E+02  0.45871889330E+02  0.00000000000E+00 0.  1.
         14    1    5    5    0    0 -0.11569888113E+02  0.30975245358E+02 -0.26412197994E+02  0.42319408535E+02  0.00000000000E+00 0. -1.
         11    1    3    3    0    0  0.26043878172E+02  0.23457653834E+01 -0.10698388170E+03  0.11013326995E+03  0.00000000000E+00 0. -1.
        -12    1    3    3    0    0 -0.61770333708E+01 -0.26050266037E+02 -0.95331150152E+03  0.95368736546E+03  0.00000000000E+00 0.  1.
          5    1    4    4  501    0 -0.35820491195E+02  0.49145931443E+02 -0.27208876255E+03  0.27883363727E+03  0.41800000000E+01 0.  1.
         -5    1    4    4    0  501  0.52629804178E+02 -0.29003030552E+02 -0.13455574774E+03  0.14742385736E+03  0.41800000000E+01 0.  1.
</event>
<event>
11    1  0.1078607E-008  0.1282479E+03  0.7561462E-02  0.1121441E+00
         22   -1    0    0    0    0  0.00000000000E+00  0.00000000000E+00  0.72181772396E+03  0.72181772396E+03  0.00000000000E+00 0.  1.
         22   -1    0    0    0    0 -0.00000000000E+00 -0.00000000000E+00 -0.86239755197E+03  0.86239755197E+03  0.00000000000E+00 0. -1.
        -24    2    1    2    0    0  0.21126262266E+02 -0.18427168083E+02 -0.83460142054E+03  0.83899838577E+03  0.81073304417E+02 0.  0.
         25    2    1    2    0    0 -0.34409088546E+02  0.39676856778E+02  0.18577391285E+03  0.23003843904E+03  0.12508996125E+03 0.  0.
         24    2    1    2    0    0  0.13282826280E+02 -0.21249688695E+02  0.50824767967E+03  0.51517845111E+03  0.80406155539E+02 0.  0.
        -11    1    5    5    0    0 -0.11867195313E+02 -0.35789377425E+01  0.44171388988E+03  0.44188776814E+03  0.00000000000E+00 0.  1.
         12    1    5    5    0    0  0.25150021593E+02 -0.17670750952E+02  0.66533789792E+02  0.73290682965E+02  0.00000000000E+00 0. -1.
         13    1    3    3    0    0  0.12378567198E+02 -0.50369197759E+02 -0.45198977517E+03  0.45495608785E+03  0.00000000000E+00 0. -1.
        -14    1    3    3    0    0  0.87476950674E+01  0.31942029676E+02 -0.38261164536E+03  0.38404229793E+03  0.00000000000E+00 0.  1.
          5    1    4    4  501    0  0.42545980537E+02 -0.10028779598E+02  0.63073260662E+02  0.76853402596E+02  0.41800000000E+01 0. -1.
         -5    1    4    4    0  501 -0.76955069083E+02  0.49705636376E+02  0.12270065218E+03  0.15318503645E+03  0.41800000000E+01 0. -1.
</event>
<event>
11    1  0.1078607E-008  0.2421592E+03  0.7561462E-02  0.1028161E+00
         22   -1    0    0    0    0  0.00000000000E+00  0.00000000000E+00  0.16871703779E+03  0.16871703779E+03  0.00000000000E+00 0. -1.
         22   -1    0    0    0    0 -0.00000000000E+00 -0.00000000000E+00 -0.17229785973E+04  0.17229785973E+04  0.00000000000E+00 0.  1.
        -24    2    1    2    0    0 -0.18757007690E+03 -0.11243478969E+03 -0.15014850586E+04  0.15191499263E+04  0.74397593359E+02 0.  0.
         25    2    1    2    0    0  0.99307454505E+02  0.10778527420E+03 -0.12870902052E+03  0.23172195463E+03  0.12509762763E+03 0.  0.
         24    2    1    2    0    0  0.88262622395E+02  0.46495154912E+01  0.75932519551E+02  0.14082375415E+03  0.79080172625E+02 0.  0.
        -11    1    5    5    0    0  0.29566200270E+02  0.16332704708E+02 -0.10786491709E+02  0.35457944736E+02  0.00000000000E+00 0.  1.
         12    1    5    5    0    0  0.58696422125E+02 -0.11683189216E+02  0.86719011260E+02  0.10536580942E+03  0.00000000000E+00 0. -1.
         11    1    3    3    0    0 -0.24429800016E+02  0.10630989741E+02 -0.17442220304E+03  0.17644528327E+03  0.00000000000E+00 0. -1.
        -12    1    3    3    0    0 -0.16314027688E+03 -0.12306577943E+03 -0.13270628555E+04  0.13427046431E+04  0.00000000000E+00 0.  1.
          5    1    4    4  501    0  0.11319043580E+03  0.36838516390E+02 -0.92214667080E+02  0.15063256046E+03  0.41800000000E+01 0.  1.
         -5    1    4    4    0  501 -0.13882981294E+02  0.70946757812E+02 -0.36494353440E+02  0.81089394168E+02  0.41800000000E+01 0.  1.
</event>
<event>
11    1  0.1078607E-008  0.1523655E+03  0.7561462E-02  0.1094486E+00
         22   -1    0    0    0    0  0.00000000000E+00  0.00000000000E+00  0.66899634658E+03  0.66899634658E+03  0.00000000000E+00 0.  1.
         22   -1    0    0    0    0 -0.00000000000E+00 -0.00000000000E+00 -0.42788232952E+03  0.42788232952E+03  0.00000000000E+00 0. -1.
        -24    2    1    2    0    0  0.59045524581E+02  0.66650391101E+02 -0.37380148368E+03  0.39196375775E+03  0.77326512771E+02 0.  0.
         25    2    1    2    0    0  0.91316244385E+01 -0.80322894761E+02  0.10024472401E+03  0.17953408489E+03  0.12509328102E+03 0.  0.
         24    2    1    2    0    0 -0.68177149020E+02  0.13672503660E+02  0.51467077674E+03  0.52538083346E+03  0.79397422764E+02 0.  0.
        -11    1    5    5    0    0 -0.75103932716E+02  0.25958436159E+02  0.49403972758E+03  0.50038954180E+03  0.00000000000E+00 0.  1.
         12    1    5    5    0    0  0.69267836967E+01 -0.12285932498E+02  0.20631049158E+02  0.24991291666E+02  0.00000000000E+00 0. -1.
         13    1    3    3    0    0  0.56028027801E+02  0.12478404734E+02 -0.25467624580E+03  0.26106482080E+03  0.00000000000E+00 0. -1.
        -14    1    3    3    0    0  0.30174967802E+01  0.54171986367E+02 -0.11912523788E+03  0.13089893695E+03  0.00000000000E+00 0.  1.
          5    1    4    4  501    0 -0.15263039016E+02 -0.10952408990E+03  0.74728931825E+02  0.13353041706E+03  0.41800000000E+01 0. -1.
         -5    1    4    4    0  501  0.24394663455E+02  0.29201195138E+02  0.25515792189E+02  0.46003667828E+02  0.41800000000E+01 0. -1.
</event>
<event>
11    1  0.1078607E-008  0.1867530E+03  0.7561462E-02  0.1064308E+00
         22   -1    0    0    0    0  0.00000000000E+00  0.00000000000E+00  0.17894480168E+03  0.17894480168E+03  0.00000000000E+00 0. -1.
         22   -1    0    0    0    0 -0.00000000000E+00 -0.00000000000E+00 -0.82615781818E+03  0.82615781818E+03  0.00000000000E+00 0. -1.
        -24    2    1    2    0    0 -0.36172623273E+02  0.82012360294E+01 -0.60451685113E+03  0.61130289644E+03  0.82914950077E+02 0.  0.
         25    2    1    2    0    0  0.11021876715E+03 -0.11772687731E+03 -0.10484831304E+03  0.22945315501E+03  0.12509111609E+03 0.  0.
         24    2    1    2    0    0 -0.74046143873E+02  0.10952564128E+03  0.62152147665E+02  0.16434656842E+03  0.75287499452E+02 0.  0.
        -11    1    5    5    0    0 -0.11914049733E+02 -0.69690732333E+00 -0.12625558190E+02  0.17373398644E+02  0.00000000000E+00 0.  1.
         12    1    5    5    0    0 -0.62132094141E+02  0.11022254860E+03  0.74777705855E+02  0.14697316978E+03  0.00000000000E+00 0. -1.
         11    1    3    3    0    0  0.16031617682E+02 -0.78423250146E+01 -0.37319256177E+03  0.37361906132E+03  0.00000000000E+00 0. -1.
        -12    1    3    3    0    0 -0.52204240955E+02  0.16043561044E+02 -0.23132428936E+03  0.23768383511E+03  0.00000000000E+00 0.  1.
          5    1    4    4  501    0  0.11440057766E+03 -0.63935989831E+02 -0.25767064193E+02  0.13362902739E+03  0.41800000000E+01 0. -1.
         -5    1    4    4    0  501 -0.41818105159E+01 -0.53790887475E+02 -0.79081248843E+02  0.95824127615E+02  0.41800000000E+01 0. -1.
</event>
<event>
11    1  0.1078607E-008  0.1682259E+03  0.7561462E-02  0.1079586E+00
         22   -1    0    0    0    0  0.00000000000E+00  0.00000000000E+00  0.28676817951E+03  0.28676817951E+03  0.00000000000E+00 0.  1.
         22   -1    0    0    0    0 -0.00000000000E+00 -0.00000000000E+00 -0.27397605821E+04  0.27397605821E+04  0.00000000000E+00 0.  1.
         24    2    1    2    0    0  0.11235446224E+03 -0.11246038610E+02 -0.26726710497E+04  0.26762872034E+04  0.81195174406E+02 0.  0.
         25    2    1    2    0    0 -0.81228684872E+02  0.41891802308E+02  0.60960561746E+02  0.16648534901E+03  0.12509260170E+03 0.  0.
        -24    2    1    2    0    0 -0.31125777370E+02 -0.30645763698E+02  0.15871808536E+03  0.18375620926E+03  0.81651313338E+02 0.  0.
        -11    1    3    3    0    0  0.91762552890E+02 -0.30757439204E+02 -0.24360628024E+04  0.24379844880E+04  0.00000000000E+00 0.  1.
         12    1    3    3    0    0  0.20591909353E+02  0.19511400594E+02 -0.23660824730E+03  0.23830271541E+03  0.00000000000E+00 0. -1.
         13    1    5    5    0    0  0.24319612878E+02 -0.16340311233E+02  0.25842364265E+02  0.39067596964E+02  0.00000000000E+00 0. -1.
        -14    1    5    5    0    0 -0.55445390249E+02 -0.14305452465E+02  0.13287572110E+03  0.14468861229E+03  0.00000000000E+00 0.  1.
          5    1    4    4  501    0 -0.23177522895E+02 -0.44661636619E+02  0.23102223125E+02  0.55525169665E+02  0.41800000000E+01 0. -1.
         -5    1    4    4    0  501 -0.58051161977E+02  0.86553438927E+02  0.37858338621E+02  0.11096017934E+03  0.41800000000E+01 0. -1.
</event>
<event>
11    1  0.1078607E-008  0.1496847E+03  0.7561462E-02  0.1097201E+00
         22   -1    0    0    0    0  0.00000000000E+00  0.00000000000E+00  0.86381118142E+03  0.86381118142E+03  0.00000000000E+00 0.  1.
         22   -1    0    0    0    0 -0.00000000000E+00 -0.00000000000E+00 -0.11247094372E+04  0.11247094372E+04  0.00000000000E+00 0. -1.
        -24    2    1    2    0    0  0.63820827519E+02 -0.52282233949E+02 -0.10897620777E+04  0.10959840432E+04  0.82420307226E+02 0.  0.
         25    2    1    2    0    0 -0.77343423600E+02  0.65116427025E+01  0.16129115011E+03  0.21837342952E+03  0.12509081880E+03 0.  0.
         24    2    1    2    0    0  0.13522596081E+02  0.45770591246E+02  0.66757267177E+03  0.67416314589E+03  0.81023870340E+02 0.  0.
        -13    1    5    5    0    0 -0.13577278023E+02  0.30464911412E+02  0.58451226419E+03  0.58546309901E+03  0.00000000000E+00 0.  1.
         14    1    5    5    0    0  0.27099874104E+02  0.15305679834E+02  0.83060407572E+02  0.88700046887E+02  0.00000000000E+00 0. -1.
         13    1    3    3    0    0  0.81066562857E+02 -0.26889512830E+02 -0.84471615369E+03  0.84902309380E+03  0.00000000000E+00 0. -1.
        -14    1    3    3    0    0 -0.17245735338E+02 -0.25392721119E+02 -0.24504592397E+03  0.24696094940E+03  0.00000000000E+00 0.  1.
          5    1    4    4  501    0 -0.71334272179E+02 -0.18359282469E+02  0.17436984484E+03  0.18933556673E+03  0.41800000000E+01 0.  1.
         -5    1    4    4    0  501 -0.60091514208E+01  0.24870925171E+02 -0.13078694723E+02  0.29037862789E+02  0.41800000000E+01 0.  1.
</event>
<event>
11    1  0.1078607E-008  0.1428995E+03  0.7561462E-02  0.1104363E+00
         22   -1    0    0    0    0  0.00000000000E+00  0.00000000000E+00  0.11246488707E+04  0.11246488707E+04  0.00000000000E+00 0. -1.
         22   -1    0    0    0    0 -0.00000000000E+00 -0.00000000000E+00 -0.12444201274E+03  0.12444201274E+03  0.00000000000E+00 0. -1.
         24    2    1    2    0    0 -0.36558761167E+02  0.56533235513E+02 -0.67534530704E+02  0.12543037472E+03  0.81482000033E+02 0.  0.
         25    2    1    2    0    0  0.47121184920E+01 -0.95013517276E+02  0.21780213981E+03  0.26857383597E+03  0.12507741898E+03 0.  0.
        -24    2    1    2    0    0  0.31846642675E+02  0.38480281763E+02  0.84993924887E+03  0.85508667276E+03  0.79256232772E+02 0.  0.
        -11    1    3    3    0    0  0.59969212740E+01  0.37676267602E+02  0.57821369093E+01  0.38586232161E+02  0.00000000000E+00 0.  1.
         12    1    3    3    0    0 -0.42555682441E+02  0.18856967911E+02 -0.73316667613E+02  0.86844142558E+02  0.00000000000E+00 0. -1.
         13    1    5    5    0    0  0.13615396167E+01  0.23444228450E+02  0.73122150917E+03  0.73159851087E+03  0.00000000000E+00 0. -1.
        -14    1    5    5    0    0  0.30485103058E+02  0.15036053313E+02  0.11871773970E+03  0.12348816189E+03  0.00000000000E+00 0.  1.
          5    1    4    4  501    0  0.27930255659E+02 -0.89673910651E+02  0.66030768400E+02  0.11488709331E+03  0.41800000000E+01 0. -1.
         -5    1    4    4    0  501 -0.23218137167E+02 -0.53396066253E+01  0.15177137141E+03  0.15368674267E+03  0.41800000000E+01 0. -1.
</event>
<event>
11    1  0.1078607E-008  0.4585404E+03  0.7561462E-02  0.9491256E-01
         22   -1    0    0    0    0  0.00000000000E+00  0.00000000000E+00  0.73969782153E+03  0.73969782153E+03  0.00000000000E+00 0. -1.
         22   -1    0    0    0    0 -0.00000000000E+00 -0.00000000000E+00 -0.90984036788E+03  0.90984036788E+03  0.00000000000E+00 0. -1.
         24    2    1    2    0    0 -0.33947084398E+02 -0.99453527972E+01 -0.55666302338E+03  0.56376442341E+03  0.81885828648E+02 0.  0.
         25    2    1    2    0    0  0.40034955523E+03 -0.22407180418E+03 -0.32285086221E+02  0.47663162158E+03  0.12508971220E+03 0.  0.
        -24    2    1    2    0    0 -0.36640247083E+03  0.23401715698E+03  0.41880556324E+03  0.60914214442E+03  0.81493876501E+02 0.  0.
        -11    1    3    3    0    0 -0.21832658898E+02  0.28470514773E+00 -0.31306148724E+02  0.38168324557E+02  0.00000000000E+00 0.  1.
         12    1    3    3    0    0 -0.12114425500E+02 -0.10230057945E+02 -0.52535687465E+03  0.52559609886E+03  0.00000000000E+00 0. -1.
         13    1    5    5    0    0 -0.33598469000E+03  0.21989176469E+03  0.41123073783E+03  0.57475979316E+03  0.00000000000E+00 0. -1.
        -14    1    5    5    0    0 -0.30417780832E+02  0.14125392290E+02  0.75748254132E+01  0.34382351259E+02  0.00000000000E+00 0.  1.
          5    1    4    4  501    0  0.35346646293E+03 -0.23046915385E+03 -0.52046274724E+02  0.42518332329E+03  0.41800000000E+01 0.  1.
         -5    1    4    4    0  501  0.46883092299E+02  0.63973496630E+01  0.19761188503E+02  0.51448298293E+02  0.41800000000E+01 0.  1.
</event>
<event>
11    1  0.1078607E-008  0.1077039E+04  0.7561462E-02  0.8609004E-01
         22   -1    0    0    0    0  0.00000000000E+00  0.00000000000E+00  0.22020238528E+04  0.22020238528E+04  0.00000000000E+00 0. -1.
         22   -1    0    0    0    0 -0.00000000000E+00 -0.00000000000E+00 -0.97133379055E+03  0.97133379055E+03  0.00000000000E+00 0. -1.
         24    2    1    2    0    0 -0.16631716752E+03  0.37384418077E+02 -0.30491756369E+03  0.35856088825E+03  0.80821995853E+02 0.  0.
         25    2    1    2    0    0 -0.91164150151E+03  0.26704874256E+03  0.59372795535E+02  0.95998861031E+03  0.12509094648E+03 0.  0.
        -24    2    1    2    0    0  0.10779586690E+04 -0.30443316064E+03  0.14762348304E+04  0.18548081448E+04  0.79809385632E+02 0.  0.
        -13    1    3    3    0    0 -0.10943010489E+03  0.17006493287E+02 -0.26200109627E+03  0.28444462223E+03  0.00000000000E+00 0.  1.
         14    1    3    3    0    0 -0.56887062628E+02  0.20377924791E+02 -0.42916467416E+02  0.74116266020E+02  0.00000000000E+00 0. -1.
         11    1    5    5    0    0  0.55862034816E+03 -0.14393144695E+03  0.69784488260E+03  0.90540622649E+03  0.00000000000E+00 0. -1.
        -12    1    5    5    0    0  0.51933832087E+03 -0.16050171368E+03  0.77838994777E+03  0.94940191827E+03  0.00000000000E+00 0.  1.
          5    1    4    4  501    0 -0.56826592241E+03  0.22819814098E+03  0.46684951892E+02  0.61416407194E+03  0.41800000000E+01 0.  1.
         -5    1    4    4    0  501 -0.34337557910E+03  0.38850601575E+02  0.12687843643E+02  0.34582453837E+03  0.41800000000E+01 0.  1.
</event>
<event>
11    1  0.1078607E-008  0.2282505E+03  0.7561462E-02  0.1036169E+00
         22   -1    0    0    0    0  0.00000000000E+00  0.00000000000E+00  0.30222842522E+03  0.30222842522E+03  0.00000000000E+00 0.  1.
         22   -1    0    0    0    0 -0.00000000000E+00 -0.00000000000E+00 -0.20672016398E+04  0.20672016398E+04  0.00000000000E+00 0. -1.
         24    2    1    2    0    0  0.10878143499E+03 -0.15330544395E+03 -0.17362599786E+04  0.17482501712E+04  0.80274454785E+02 0.  0.
         25    2    1    2    0    0 -0.22426079784E+03  0.11008468285E+03 -0.23683446438E+03  0.36626300491E+03  0.12508590009E+03 0.  0.
        -24    2    1    2    0    0  0.11547936285E+03  0.43220761100E+02  0.20812122845E+03  0.25491688886E+03  0.80403091119E+02 0.  0.
        -11    1    3    3    0    0 -0.28276392205E+01 -0.56459072015E+02 -0.50554125776E+03  0.50869203420E+03  0.00000000000E+00 0.  1.
         12    1    3    3    0    0  0.11160907422E+03 -0.96846371938E+02 -0.12307187209E+04  0.12395581370E+04  0.00000000000E+00 0. -1.
         11    1    5    5    0    0  0.54885564052E+01  0.25957334788E+02  0.84414353779E+02  0.88485538957E+02  0.00000000000E+00 0. -1.
        -12    1    5    5    0    0  0.10999080644E+03  0.17263426312E+02  0.12370687467E+03  0.16643134990E+03  0.00000000000E+00 0.  1.
          5    1    4    4  501    0 -0.34845980649E+02  0.16718505657E+02 -0.11728563732E+03  0.12356028456E+03  0.41800000000E+01 0. -1.
         -5    1    4    4    0  501 -0.18941481719E+03  0.93366177197E+02 -0.11954882706E+03  0.24270272036E+03  0.41800000000E+01 0. -1.
</event>
<event>
11    1  0.1078607E-008  0.1600393E+03  0.7561462E-02  0.1087040E+00
         22   -1    0    0    0    0  0.00000000000E+00  0.00000000000E+00  0.22591197911E+03  0.22591197911E+03  0.00000000000E+00 0. -1.
         22   -1    0    0    0    0 -0.00000000000E+00 -0.00000000000E+00 -0.25697451363E+04  0.25697451363E+04  0.00000000000E+00 0. -1.
         24    2    1    2    0    0  0.98001267343E+02  0.44528321355E+01 -0.21976153096E+04  0.22023434123E+04  0.10573258907E+03 0.  0.
         25    2    1    2    0    0 -0.11298817830E+03 -0.32928590879E+02 -0.33959731202E+03  0.38055768153E+03  0.12508874495E+03 0.  0.
        -24    2    1    2    0    0  0.14986910955E+02  0.28475758743E+02  0.19337946443E+03  0.21275602162E+03  0.82668199060E+02 0.  0.
        -13    1    3    3    0    0  0.57499057680E+01 -0.10909966689E+02 -0.26655333766E+02  0.29369977999E+02  0.00000000000E+00 0.  1.
         14    1    3    3    0    0  0.92251361575E+02  0.15362798824E+02 -0.21709599758E+04  0.21729734343E+04  0.00000000000E+00 0. -1.
         11    1    5    5    0    0  0.38543083927E+02  0.45509710847E+02  0.13074447524E+03  0.14370393490E+03  0.00000000000E+00 0. -1.
        -12    1    5    5    0    0 -0.23556172972E+02 -0.17033952104E+02  0.62634989190E+02  0.69052086718E+02  0.00000000000E+00 0.  1.
          5    1    4    4  501    0 -0.12168736475E+03 -0.44992183712E+02 -0.18966332886E+03  0.22982985457E+03  0.41800000000E+01 0. -1.
         -5    1    4    4    0  501  0.86991864551E+01  0.12063592834E+02 -0.14993398316E+03  0.15072782697E+03  0.41800000000E+01 0. -1.
</event>
<event>
11    1  0.1078607E-008  0.1425885E+03  0.7561462E-02  0.1104702E+00
         22   -1    0    0    0    0  0.00000000000E+00  0.00000000000E+00  0.79777059753E+03  0.79777059753E+03  0.00000000000E+00 0.  1.
         22   -1    0    0    0    0 -0.00000000000E+00 -0.00000000000E+00 -0.11922645883E+03  0.11922645883E+03  0.00000000000E+00 0.  1.
         24    2    1    2    0    0 -0.22959090683E+02  0.12832167854E+02 -0.59850453964E+02  0.10218011344E+03  0.78529703723E+02 0.  0.
         25    2    1    2    0    0  0.49214295687E+01  0.55353335202E+02  0.10496064234E+03  0.17248908151E+03  0.12509010598E+03 0.  0.
        -24    2    1    2    0    0  0.18037661114E+02 -0.68185503056E+02  0.63343395032E+03  0.64232786141E+03  0.79824132149E+02 0.  0.
        -11    1    3    3    0    0 -0.52040638842E+01  0.36127371465E+02 -0.62908697839E+02  0.72730829183E+02  0.00000000000E+00 0.  1.
         12    1    3    3    0    0 -0.17755026799E+02 -0.23295203610E+02  0.30582438750E+01  0.29449284261E+02  0.00000000000E+00 0. -1.
         11    1    5    5    0    0  0.44867984098E+02 -0.42458108046E+02  0.26892334486E+03  0.27592678802E+03  0.00000000000E+00 0. -1.
        -12    1    5    5    0    0 -0.26830322983E+02 -0.25727395010E+02  0.36451060546E+03  0.36640107339E+03  0.00000000000E+00 0.  1.
          5    1    4    4  501    0  0.42151820830E+02 -0.13390935710E+02  0.77857683823E+02  0.89640306162E+02  0.41800000000E+01 0.  1.
         -5    1    4    4    0  501 -0.37230391262E+02  0.68744270912E+02  0.27102958513E+02  0.82848775349E+02  0.41800000000E+01 0.  1.
</event>
<event>
11    1  0.1078607E-008  0.1527678E+03  0.7561462E-02  0.1094084E+00
         22   -1    0    0    0    0  0.00000000000E+00  0.00000000000E+00  0.16718208028E+04  0.16718208028E+04  0.00000000000E+00 0.  1.
         22   -1    0    0    0    0 -0.00000000000E+00 -0.00000000000E+00 -0.22441229918E+03  0.22441229918E+03  0.00000000000E+00 0. -1.
         24    2    1    2    0    0 -0.30100401623E+02 -0.48130305782E+02 -0.14456510460E+03  0.17410154284E+03  0.78674756049E+02 0.  0.
         25    2    1    2    0    0 -0.16149764787E+02 -0.28726239984E+02  0.38576651860E+01  0.12941658798E+03  0.12509100646E+03 0.  0.
        -24    2    1    2    0    0  0.46250166410E+02  0.76856545766E+02  0.15881159431E+04  0.15927149712E+04  0.81133990085E+02 0.  0.
        -11    1    3    3    0    0 -0.55938628285E+01  0.10560180723E+02  0.39131651330E+01  0.12574640337E+02  0.00000000000E+00 0.  1.
         12    1    3    3    0    0 -0.24506538795E+02 -0.58690486505E+02 -0.14847826973E+03  0.16152690250E+03  0.00000000000E+00 0. -1.
         13    1    5    5    0    0  0.20020650875E+02  0.16629156435E+02  0.10615722992E+03  0.10930101907E+03  0.00000000000E+00 0. -1.
        -14    1    5    5    0    0  0.26229515535E+02  0.60227389332E+02  0.14819587131E+04  0.14834139521E+04  0.00000000000E+00 0.  1.
          5    1    4    4  501    0  0.27633098751E+02 -0.25086290556E+02 -0.48242627052E+02  0.61137006676E+02  0.41800000000E+01 0.  1.
         -5    1    4    4    0  501 -0.43782863538E+02 -0.36399494283E+01  0.52100292238E+02  0.68279581302E+02  0.41800000000E+01 0.  1.
</event>
<event>
11    1  0.1078607E-008  0.1398667E+03  0.7561462E-02  0.1107707E+00
         22   -1    0    0    0    0  0.00000000000E+00  0.00000000000E+00  0.21591583985E+03  0.21591583985E+03  0.00000000000E+00 0.  1.
         22   -1    0    0    0    0 -0.00000000000E+00 -0.00000000000E+00 -0.70670860834E+03  0.70670860834E+03  0.00000000000E+00 0. -1.
         24    2    1    2    0    0  0.12223461040E+02  0.61208782476E+02 -0.53561357651E+03  0.54528573859E+03  0.80985834021E+02 0.  0.
         25    2    1    2    0    0 -0.59629607586E+02 -0.50706756714E+02 -0.11855707925E+03  0.18928954327E+03  0.12509150600E+03 0.  0.
        -24    2    1    2    0    0  0.47406146547E+02 -0.10502025762E+02  0.16337788728E+03  0.18804916633E+03  0.79451366449E+02 0.  0.
        -11    1    3    3    0    0  0.81928596289E+01  0.50749205063E+00 -0.23152689350E+01  0.85288315332E+01  0.00000000000E+00 0.  1.
         12    1    3    3    0    0  0.40306014106E+01  0.60701290425E+02 -0.53329830758E+03  0.53675690706E+03  0.00000000000E+00 0. -1.
         13    1    5    5    0    0  0.98785532166E+01  0.17161713776E+02  0.18044310868E+01  0.19883817665E+02  0.00000000000E+00 0. -1.
        -14    1    5    5    0    0  0.37527593330E+02 -0.27663739538E+02  0.16157345619E+03  0.16816534866E+03  0.00000000000E+00 0.  1.
          5    1    4    4  501    0  0.18583766953E+02 -0.18061918220E+02  0.15609775257E+02  0.30540575756E+02  0.41800000000E+01 0.  1.
         -5    1    4    4    0  501 -0.78213374539E+02 -0.32644838494E+02 -0.13416685451E+03  0.15874896751E+03  0.41800000000E+01 0.  1.
</event>
<event>
11    1  0.1078607E-008  0.1456769E+03  0.7561462E-02  0.1101380E+00
         22   -1    0    0    0    0  0.00000000000E+00  0.00000000000E+00  0.16918692712E+03  0.16918692712E+03  0.00000000000E+00 0.  1.
         22   -1    0    0    0    0 -0.00000000000E+00 -0.00000000000E+00 -0.59219887915E+03  0.59219887915E+03  0.00000000000E+00 0. -1.
         24    2    1    2    0    0 -0.32529086811E+02 -0.53283454860E+02 -0.29841124630E+03  0.31516707765E+03  0.79898353348E+02 0.  0.
         25    2    1    2    0    0  0.66126140276E+02  0.92803594368E+02 -0.24040434798E+03  0.29398506565E+03  0.12509114574E+03 0.  0.
        -24    2    1    2    0    0 -0.33597053466E+02 -0.39520139507E+02  0.11580364225E+03  0.15223366297E+03  0.84107081472E+02 0.  0.
        -11    1    3    3    0    0 -0.30667688373E+00 -0.10236897219E+02 -0.21914303640E+03  0.21938222015E+03  0.00000000000E+00 0.  1.
         12    1    3    3    0    0 -0.32222409927E+02 -0.43046557642E+02 -0.79268209903E+02  0.95784857506E+02  0.00000000000E+00 0. -1.
         11    1    5    5    0    0 -0.29084182847E+02 -0.63207072317E+02  0.61677113369E+02  0.92978976099E+02  0.00000000000E+00 0. -1.
        -12    1    5    5    0    0 -0.45128706184E+01  0.23686932810E+02  0.54126528880E+02  0.59254686868E+02  0.00000000000E+00 0.  1.
          5    1    4    4  501    0  0.36095953285E+02  0.82834999678E+02 -0.24552788615E+03  0.26166002807E+03  0.41800000000E+01 0.  1.
         -5    1    4    4    0  501  0.30030186991E+02  0.99685946901E+01  0.51235381696E+01  0.32325037574E+02  0.41800000000E+01 0.  1.
</event>
<event>
11    1  0.1078607E-008  0.1289747E+03  0.7561462E-02  0.1120535E+00
         22   -1    0    0    0    0  0.00000000000E+00  0.00000000000E+00  0.16001763954E+03  0.16001763954E+03  0.00000000000E+00 0. -1.
         22   -1    0    0    0    0 -0.00000000000E+00 -0.00000000000E+00 -0.18249381402E+03  0.18249381402E+03  0.00000000000E+00 0. -1.
         24    2    1    2    0    0  0.14032874449E+02  0.30314836226E+02 -0.61399641460E+02  0.10552737934E+03  0.79058212460E+02 0.  0.
         25    2    1    2    0    0 -0.94834783233E+01 -0.25123543111E+02 -0.29222744908E+02  0.13123603286E+03  0.12509116164E+03 0.  0.
        -24    2    1    2    0    0 -0.45493961259E+01 -0.51912931148E+01  0.68146211885E+02  0.10574804136E+03  0.80567335370E+02 0.  0.
        -11    1    3    3    0    0  0.65644342894E+01 -0.22077675517E+02  0.17914224147E+01  0.23102483590E+02  0.00000000000E+00 0.  1.
         12    1    3    3    0    0  0.74684401599E+01  0.52392511743E+02 -0.63191063875E+02  0.82424895746E+02  0.00000000000E+00 0. -1.
         13    1    5    5    0    0 -0.19654942913E+02  0.33453776470E+02  0.26685069784E+02  0.47091027706E+02  0.00000000000E+00 0. -1.
        -14    1    5    5    0    0  0.15105546787E+02 -0.38645069585E+02  0.41461142100E+02  0.58657013657E+02  0.00000000000E+00 0.  1.
          5    1    4    4  501    0 -0.64353201347E+02 -0.31744235734E+02 -0.99947338978E+01  0.72569953367E+02  0.41800000000E+01 0. -1.
         -5    1    4    4    0  501  0.54869723024E+02  0.66206926226E+01 -0.19228011010E+02  0.58666079492E+02  0.41800000000E+01 0. -1.
</event>
<event>
11    1  0.1078607E-008  0.2601451E+03  0.7561462E-02  0.1018629E+00
         22   -1    0    0    0    0  0.00000000000E+00  0.00000000000E+00  0.15688554770E+03  0.15688554770E+03  0.00000000000E+00 0.  1.
         22   -1    0    0    0    0 -0.00000000000E+00 -0.00000000000E+00 -0.16696869418E+04  0.16696869418E+04  0.00000000000E+00 0.  1.
        -24    2    1    2    0    0 -0.18670457050E+03 -0.13853976014E+03 -0.11995633845E+04  0.12244360955E+04  0.78990991256E+02 0.  0.
         25    2    1    2    0    0  0.21793960307E+03  0.59841872411E+02 -0.38599563233E+03  0.46445758465E+03  0.12509795954E+03 0.  0.
         24    2    1    2    0    0 -0.31235032573E+02  0.78697887732E+02  0.72757622783E+02  0.13767880931E+03  0.80577900605E+02 0.  0.
        -11    1    5    5    0    0 -0.53606691402E+02  0.56243361539E+02  0.27491397478E+02  0.82418262634E+02  0.00000000000E+00 0.  1.
         12    1    5    5    0    0  0.22371658829E+02  0.22454526192E+02  0.45266225305E+02  0.55260546673E+02  0.00000000000E+00 0. -1.
         13    1    3    3    0    0 -0.18266341370E+01  0.74328658821E+01 -0.79686716794E+02  0.80053462891E+02  0.00000000000E+00 0. -1.
        -14    1    3    3    0    0 -0.18487793636E+03 -0.14597262602E+03 -0.11198766677E+04  0.11443826326E+04  0.00000000000E+00 0.  1.
          5    1    4    4  501    0  0.21036375462E+03  0.41688014910E+02 -0.26088698526E+03  0.33774293675E+03  0.41800000000E+01 0.  1.
         -5    1    4    4    0  501  0.75758484518E+01  0.18153857500E+02 -0.12510864707E+03  0.12671464790E+03  0.41800000000E+01 0.  1.
</event>
<event>
11    1  0.1078607E-008  0.1940837E+03  0.7561462E-02  0.1058788E+00
         22   -1    0    0    0    0  0.00000000000E+00  0.00000000000E+00  0.25628818119E+03  0.25628818119E+03  0.00000000000E+00 0.  1.
         22   -1    0    0    0    0 -0.00000000000E+00 -0.00000000000E+00 -0.40039270686E+03  0.40039270686E+03  0.00000000000E+00 0.  1.
         24    2    1    2    0    0 -0.31179503753E+02  0.93282824941E+02 -0.23373342008E+03  0.26579421443E+03  0.79632944664E+02 0.  0.
         25    2    1    2    0    0  0.79439489480E+02  0.78768720244E+02 -0.14620744507E+02  0.16848543737E+03  0.12513365918E+03 0.  0.
        -24    2    1    2    0    0 -0.48259985727E+02 -0.17205154518E+03  0.10424963892E+03  0.22240123625E+03  0.81630645288E+02 0.  0.
        -11    1    3    3    0    0 -0.48373956296E+01  0.78472358064E+01 -0.12358671276E+03  0.12393004106E+03  0.00000000000E+00 0.  1.
         12    1    3    3    0    0 -0.26342108123E+02  0.85435589134E+02 -0.11014670732E+03  0.14186417337E+03  0.00000000000E+00 0. -1.
         13    1    5    5    0    0 -0.57301274530E+01 -0.38520860522E+01 -0.11801166701E+02  0.13672617273E+02  0.00000000000E+00 0. -1.
        -14    1    5    5    0    0 -0.42529858274E+02 -0.16819945913E+03  0.11605080562E+03  0.20872861898E+03  0.00000000000E+00 0.  1.
          5    1    4    4  501    0  0.44146625693E+02  0.38024359585E+02  0.55070594980E+02  0.80280877633E+02  0.41800000000E+01 0.  1.
         -5    1    4    4    0  501  0.35292863786E+02  0.40744360659E+02 -0.69691339488E+02  0.88204559742E+02  0.41800000000E+01 0.  1.
</event>
<event>
11    1  0.1078607E-008  0.1523681E+03  0.7561462E-02  0.1094483E+00
         22   -1    0    0    0    0  0.00000000000E+00  0.00000000000E+00  0.38652085718E+03  0.38652085718E+03  0.00000000000E+00 0. -1.
         22   -1    0    0    0    0 -0.00000000000E+00 -0.00000000000E+00 -0.48860113711E+03  0.48860113711E+03  0.00000000000E+00 0.  1.
         24    2    1    2    0    0 -0.29250948911E+02  0.78355143516E+02 -0.25133212167E+03  0.27682623827E+03  0.80434969301E+02 0.  0.
         25    2    1    2    0    0  0.14419257943E+02 -0.94695349560E+02 -0.19159952053E+03  0.24805767627E+03  0.12508840977E+03 0.  0.
        -24    2    1    2    0    0  0.14831690969E+02  0.16340206044E+02  0.34085136228E+03  0.35023807975E+03  0.77460182990E+02 0.  0.
        -13    1    3    3    0    0 -0.43707230049E+02  0.25604636006E+02 -0.17968138721E+03  0.18668508310E+03  0.00000000000E+00 0.  1.
         14    1    3    3    0    0  0.14456281138E+02  0.52750507511E+02 -0.71650734460E+02  0.90141155171E+02  0.00000000000E+00 0. -1.
         13    1    5    5    0    0  0.15728204948E+02  0.35996891781E+01  0.33628869446E+03  0.33667554145E+03  0.00000000000E+00 0. -1.
        -14    1    5    5    0    0 -0.89651397910E+00  0.12740516866E+02  0.45626678176E+01  0.13562538293E+02  0.00000000000E+00 0.  1.
          5    1    4    4  501    0  0.51646844410E+02 -0.98593238646E+01 -0.11938793384E+03  0.13052032007E+03  0.41800000000E+01 0. -1.
         -5    1    4    4    0  501 -0.37227586468E+02 -0.84836025696E+02 -0.72211586698E+02  0.11753735620E+03  0.41800000000E+01 0. -1.
</event>
<event>
11    1  0.1078607E-008  0.2677507E+03  0.7561462E-02  0.1014846E+00
         22   -1    0    0    0    0  0.00000000000E+00  0.00000000000E+00  0.15212121907E+04  0.15212121907E+04  0.00000000000E+00 0. -1.
         22   -1    0    0    0    0 -0.00000000000E+00 -0.00000000000E+00 -0.69330781830E+03  0.69330781830E+03  0.00000000000E+00 0.  1.
        -24    2    1    2    0    0  0.35910379160E+02  0.22144650582E+03 -0.50333875021E+03  0.55665874145E+03  0.78682569278E+02 0.  0.
         25    2    1    2    0    0  0.95712565761E+01 -0.33506356400E+03  0.42033696941E+02  0.36024487454E+03  0.12510130727E+03 0.  0.
         24    2    1    2    0    0 -0.45481635736E+02  0.11361705818E+03  0.12892094257E+04  0.12976163930E+04  0.82279676012E+02 0.  0.
        -13    1    5    5    0    0  0.20239204532E+02  0.79014531774E+01  0.13851359579E+03  0.14020725581E+03  0.00000000000E+00 0.  1.
         14    1    5    5    0    0 -0.65720840268E+02  0.10571560501E+03  0.11506958299E+04  0.11574091372E+04  0.00000000000E+00 0. -1.
         13    1    3    3    0    0  0.30574726894E+02  0.40168936611E+02 -0.65118491437E+02  0.82394024784E+02  0.00000000000E+00 0. -1.
        -14    1    3    3    0    0  0.53356522659E+01  0.18127756921E+03 -0.43822025877E+03  0.47426471667E+03  0.00000000000E+00 0.  1.
          5    1    4    4  501    0  0.29890728204E+02 -0.12071947149E+02 -0.59616383057E+01  0.33048465499E+02  0.41800000000E+01 0.  1.
         -5    1    4    4    0  501 -0.20319471628E+02 -0.32299161685E+03  0.47995335247E+02  0.32719640904E+03  0.41800000000E+01 0.  1.
</event>
<event>
11    1  0.1078607E-008  0.1475138E+03  0.7561462E-02  0.1099447E+00
         22   -1    0    0    0    0  0.00000000000E+00  0.00000000000E+00  0.15287338382E+04  0.15287338382E+04  0.00000000000E+00 0.  1.
         22   -1    0    0    0    0 -0.00000000000E+00 -0.00000000000E+00 -0.51245121585E+02  0.51245121585E+02  0.00000000000E+00 0. -1.
         24    2    1    2    0    0  0.70479681355E+01 -0.30675155690E+02  0.29877164945E+02  0.91933170754E+02  0.81045813391E+02 0.  0.
         25    2    1    2    0    0 -0.81684566715E+02  0.65662355784E+01  0.30176162427E+03  0.33678394792E+03  0.12509142979E+03 0.  0.
        -24    2    1    2    0    0  0.74636598579E+02  0.24108920112E+02  0.11458499274E+04  0.11512618412E+04  0.79245875574E+02 0.  0.
        -13    1    3    3    0    0  0.18962943756E+02  0.21747427259E+02  0.24596595853E+02  0.37914856664E+02  0.00000000000E+00 0.  1.
         14    1    3    3    0    0 -0.11914975621E+02 -0.52422582949E+02  0.52805690915E+01  0.54018314089E+02  0.00000000000E+00 0. -1.
         13    1    5    5    0    0  0.35690076858E+02  0.50432806913E+02  0.52207650049E+03  0.52571962296E+03  0.00000000000E+00 0. -1.
        -14    1    5    5    0    0  0.38946521721E+02 -0.26323886801E+02  0.62377342696E+03  0.62554221820E+03  0.00000000000E+00 0.  1.
          5    1    4    4  501    0 -0.74865080563E+02  0.55507693589E+02  0.14547988126E+03  0.17282289370E+03  0.41800000000E+01 0.  1.
         -5    1    4    4    0  501 -0.68194861513E+01 -0.48941458010E+02  0.15628174301E+03  0.16396105422E+03  0.41800000000E+01 0.  1.
</event>
<event>
11    1  0.1078607E-008  0.1484404E+03  0.7561462E-02  0.1098483E+00
         22   -1    0    0    0    0  0.00000000000E+00  0.00000000000E+00  0.69876832548E+03  0.69876832548E+03  0.00000000000E+00 0. -1.
         22   -1    0    0    0    0 -0.00000000000E+00 -0.00000000000E+00 -0.35754362191E+03  0.35754362191E+03  0.00000000000E+00 0. -1.
        -24    2    1    2    0    0  0.71526142848E+02  0.30083649902E+02 -0.29922250056E+03  0.31979740729E+03  0.81946700754E+02 0.  0.
         25    2    1    2    0    0 -0.11296301749E+03 -0.37156216030E+02  0.12752305589E+03  0.21459453387E+03  0.12508979365E+03 0.  0.
         24    2    1    2    0    0  0.41436874640E+02  0.70725661275E+01  0.51292414824E+03  0.52192000622E+03  0.86846273803E+02 0.  0.
        -13    1    5    5    0    0  0.34294455444E+02  0.19862437114E+02  0.85429520730E+02  0.94174460946E+02  0.00000000000E+00 0.  1.
         14    1    5    5    0    0  0.71424191955E+01 -0.12789870986E+02  0.42749462751E+03  0.42774554527E+03  0.00000000000E+00 0. -1.
         13    1    3    3    0    0  0.30894512655E+02  0.46958145799E+02 -0.90866146096E+02  0.10684659506E+03  0.00000000000E+00 0. -1.
        -14    1    3    3    0    0  0.40631630193E+02 -0.16874495897E+02 -0.20835635447E+03  0.21295081223E+03  0.00000000000E+00 0.  1.
          5    1    4    4  501    0 -0.46815688623E+02 -0.60323179422E+02  0.92214124905E+01  0.77026628676E+02  0.41800000000E+01 0.  1.
         -5    1    4    4    0  501 -0.66147328865E+02  0.23166963393E+02  0.11830164340E+03  0.13756790520E+03  0.41800000000E+01 0.  1.
</event>
<event>
11    1  0.1078607E-008  0.1542014E+03  0.7561462E-02  0.1092661E+00
         22   -1    0    0    0    0  0.00000000000E+00  0.00000000000E+00  0.15710843929E+04  0.15710843929E+04  0.00000000000E+00 0.  1.
         22   -1    0    0    0    0 -0.00000000000E+00 -0.00000000000E+00 -0.37777179824E+03  0.37777179824E+03  0.00000000000E+00 0. -1.
         24    2    1    2    0    0 -0.33630643584E+02  0.83282137655E+02 -0.34826757345E+03  0.36844100780E+03  0.79947100467E+02 0.  0.
         25    2    1    2    0    0  0.65382823563E+02 -0.84821598906E+02  0.35555469207E+03  0.39183712384E+03  0.12509026865E+03 0.  0.
        -24    2    1    2    0    0 -0.31752179980E+02  0.15394612502E+01  0.11860254760E+04  0.11885780595E+04  0.71069000390E+02 0.  0.
        -13    1    3    3    0    0 -0.42386865101E+02  0.24109957648E+02 -0.80869510712E+02  0.94434178949E+02  0.00000000000E+00 0.  1.
         14    1    3    3    0    0  0.87562215179E+01  0.59172180008E+02 -0.26739806274E+03  0.27400682885E+03  0.00000000000E+00 0. -1.
         13    1    5    5    0    0 -0.16574833129E+02  0.36151408538E+02  0.55664989511E+03  0.55806877278E+03  0.00000000000E+00 0. -1.
        -14    1    5    5    0    0 -0.15177346851E+02 -0.34611947288E+02  0.62937558093E+03  0.63050928671E+03  0.00000000000E+00 0.  1.
          5    1    4    4  501    0 -0.13505994426E-01  0.47051562331E+01 -0.88824470892E+01  0.10886181327E+02  0.41800000000E+01 0. -1.
         -5    1    4    4    0  501  0.65396329558E+02 -0.89526755139E+02  0.36443713915E+03  0.38095094251E+03  0.41800000000E+01 0. -1.
</event>
<event>
11    1  0.1078607E-008  0.1325007E+03  0.7561462E-02  0.1116234E+00
         22   -1    0    0    0    0  0.00000000000E+00  0.00000000000E+00  0.30885119960E+03  0.30885119960E+03  0.00000000000E+00 0.  1.
         22   -1    0    0    0    0 -0.00000000000E+00 -0.00000000000E+00 -0.11051748914E+04  0.11051748914E+04  0.00000000000E+00 0. -1.
        -24    2    1    2    0    0 -0.24415902053E+02 -0.14381483820E+02 -0.10270349345E+04  0.10305926109E+04  0.80730474907E+02 0.  0.
         25    2    1    2    0    0  0.18397610613E+02 -0.30986819011E+02 -0.36628253620E+01  0.13022657839E+03  0.12508753096E+03 0.  0.
         24    2    1    2    0    0  0.60182914399E+01  0.45368302831E+02  0.23437406804E+03  0.25320690173E+03  0.84190430473E+02 0.  0.
        -13    1    5    5    0    0  0.32648392026E+02  0.46695379032E+02  0.20815526688E+03  0.21581239783E+03  0.00000000000E+00 0.  1.
         14    1    5    5    0    0 -0.26630100586E+02 -0.13270762016E+01  0.26218801158E+02  0.37394503909E+02  0.00000000000E+00 0. -1.
         11    1    3    3    0    0 -0.15372109971E+02  0.33484464292E+02 -0.44571984528E+03  0.44724008272E+03  0.00000000000E+00 0. -1.
        -12    1    3    3    0    0 -0.90437920821E+01 -0.47865948111E+02 -0.58131508925E+03  0.58335252820E+03  0.00000000000E+00 0.  1.
          5    1    4    4  501    0 -0.17502768087E+02 -0.72569546999E+02 -0.65678571763E+01  0.75055280895E+02  0.41800000000E+01 0.  1.
         -5    1    4    4    0  501  0.35900378701E+02  0.41582727988E+02  0.29050318143E+01  0.55171297498E+02  0.41800000000E+01 0.  1.
</event>
<event>
11    1  0.1078607E-008  0.1350133E+03  0.7561462E-02  0.1113258E+00
         22   -1    0    0    0    0  0.00000000000E+00  0.00000000000E+00  0.21102985336E+04  0.21102985336E+04  0.00000000000E+00 0.  1.
         22   -1    0    0    0    0 -0.00000000000E+00 -0.00000000000E+00 -0.34901369251E+02  0.34901369251E+02  0.00000000000E+00 0.  1.
         24    2    1    2    0    0 -0.44237520285E+02  0.18767825192E+02  0.89796510205E+02  0.13983136776E+03  0.95813405643E+02 0.  0.
         25    2    1    2    0    0  0.69119115571E+02 -0.75826796179E+00  0.58257655627E+03  0.59984986932E+03  0.12508554953E+03 0.  0.
        -24    2    1    2    0    0 -0.24881595286E+02 -0.18009557230E+02  0.14030240979E+04  0.14055186658E+04  0.77863102187E+02 0.  0.
        -13    1    3    3    0    0 -0.33405867554E+02  0.47879785988E+02  0.17190362964E+02  0.60859957872E+02  0.00000000000E+00 0.  1.
         14    1    3    3    0    0 -0.10831652731E+02 -0.29111960797E+02  0.72606147241E+02  0.78971409887E+02  0.00000000000E+00 0. -1.
         13    1    5    5    0    0  0.26172117968E+02 -0.17283920313E+02  0.65793819584E+03  0.65868534461E+03  0.00000000000E+00 0. -1.
        -14    1    5    5    0    0 -0.51053713254E+02 -0.72563691649E+00  0.74508590202E+03  0.74683332114E+03  0.00000000000E+00 0.  1.
          5    1    4    4  501    0 -0.34922859378E+02 -0.11986552607E+02  0.18616379010E+03  0.18983601527E+03  0.41800000000E+01 0. -1.
         -5    1    4    4    0  501  0.10404197495E+03  0.11228284646E+02  0.39641276617E+03  0.41001385405E+03  0.41800000000E+01 0. -1.
</event>
<event>
11    1  0.1078607E-008  0.1404882E+03  0.7561462E-02  0.1107014E+00
         22   -1    0    0    0    0  0.00000000000E+00  0.00000000000E+00  0.24611655366E+04  0.24611655366E+04  0.00000000000E+00 0.  1.
         22   -1    0    0    0    0 -0.00000000000E+00 -0.00000000000E+00 -0.28769669708E+02  0.28769669708E+02  0.00000000000E+00 0.  1.
         24    2    1    2    0    0 -0.59766753168E+02  0.61889297167E+01  0.13694565436E+03  0.17167727035E+03  0.84312545161E+02 0.  0.
         25    2    1    2    0    0  0.71809674143E+02 -0.43390038825E+02  0.56027020397E+03  0.58016770944E+03  0.12511013091E+03 0.  0.
        -24    2    1    2    0    0 -0.12042920975E+02  0.37201109108E+02  0.17351800086E+04  0.17380902266E+04  0.92622993479E+02 0.  0.
        -13    1    3    3    0    0 -0.63628904495E+02  0.24652194856E+02  0.13673147785E+03  0.15281317101E+03  0.00000000000E+00 0.  1.
         14    1    3    3    0    0  0.38621513266E+01 -0.18463265139E+02  0.21417651181E+00  0.18864099344E+02  0.00000000000E+00 0. -1.
         13    1    5    5    0    0 -0.26564946351E+02  0.42626279514E+02  0.44635623714E+03  0.44917322550E+03  0.00000000000E+00 0. -1.
        -14    1    5    5    0    0  0.14522025377E+02 -0.54251704060E+01  0.12888237715E+04  0.12889170011E+04  0.00000000000E+00 0.  1.
          5    1    4    4  501    0 -0.13996120507E+01 -0.21902404514E+02  0.97611422742E+01  0.24380864133E+02  0.41800000000E+01 0. -1.
         -5    1    4    4    0  501  0.73209286194E+02 -0.21487634311E+02  0.55050906169E+03  0.55578684531E+03  0.41800000000E+01 0. -1.
</event>
<event>
11    1  0.1078607E-008  0.1518320E+03  0.7561462E-02  0.1095021E+00
         22   -1    0    0    0    0  0.00000000000E+00  0.00000000000E+00  0.17187600916E+04  0.17187600916E+04  0.00000000000E+00 0. -1.
         22   -1    0    0    0    0 -0.00000000000E+00 -0.00000000000E+00 -0.54187811569E+02  0.54187811569E+02  0.00000000000E+00 0.  1.
        -24    2    1    2    0    0 -0.33274999117E+02  0.12557874060E+02  0.29915529736E+02  0.90855364887E+02  0.78069409132E+02 0.  0.
         25    2    1    2    0    0  0.27503918974E+02 -0.97243353928E+02  0.28401258417E+03  0.32637892981E+03  0.12508925780E+03 0.  0.
         24    2    1    2    0    0  0.57710801432E+01  0.84685479868E+02  0.13506441662E+04  0.13557136085E+04  0.80714241838E+02 0.  0.
        -11    1    5    5    0    0  0.15933404246E+02  0.16507313792E+02  0.80640833442E+02  0.83840973263E+02  0.00000000000E+00 0.  1.
         12    1    5    5    0    0 -0.10162324103E+02  0.68178166077E+02  0.12700033327E+04  0.12718726353E+04  0.00000000000E+00 0. -1.
         13    1    3    3    0    0  0.22668396680E+01 -0.30023340151E+02  0.13619078655E+02  0.33045708031E+02  0.00000000000E+00 0. -1.
        -14    1    3    3    0    0 -0.35541838785E+02  0.42581214211E+02  0.16296451082E+02  0.57809656856E+02  0.00000000000E+00 0.  1.
          5    1    4    4  501    0  0.81086238152E+01  0.29673283946E+02  0.40152824593E+02  0.50754066666E+02  0.41800000000E+01 0. -1.
         -5    1    4    4    0  501  0.19395295159E+02 -0.12691663787E+03  0.24385975957E+03  0.27562486314E+03  0.41800000000E+01 0. -1.
</event>
<event>
11    1  0.1078607E-008  0.1496523E+03  0.7561462E-02  0.1097235E+00
         22   -1    0    0    0    0  0.00000000000E+00  0.00000000000E+00  0.91794012484E+03  0.91794012484E+03  0.00000000000E+00 0.  1.
         22   -1    0    0    0    0 -0.00000000000E+00 -0.00000000000E+00 -0.47755213377E+03  0.47755213377E+03  0.00000000000E+00 0.  1.
        -24    2    1    2    0    0 -0.35933923402E+01 -0.48035310929E+01 -0.45177415934E+03  0.45899820357E+03  0.80891739100E+02 0.  0.
         25    2    1    2    0    0 -0.62926817437E+02  0.53027378889E+02  0.32405289564E+03  0.35697160032E+03  0.12508699772E+03 0.  0.
         24    2    1    2    0    0  0.66520209778E+02 -0.48223847797E+02  0.56810925478E+03  0.57952245472E+03  0.79672280927E+02 0.  0.
        -11    1    5    5    0    0  0.27605013816E+02 -0.27297512297E+02  0.47366658806E+03  0.47525490803E+03  0.00000000000E+00 0.  1.
         12    1    5    5    0    0  0.38915195962E+02 -0.20926335499E+02  0.94442666728E+02  0.10426754669E+03  0.00000000000E+00 0. -1.
         11    1    3    3    0    0  0.16918232488E+02 -0.29664840676E+02 -0.98405471205E+02  0.10416269066E+03  0.00000000000E+00 0. -1.
        -12    1    3    3    0    0 -0.20511624828E+02  0.24861309583E+02 -0.35336868814E+03  0.35483551291E+03  0.00000000000E+00 0.  1.
          5    1    4    4  501    0 -0.49118146580E+02  0.19549821848E+02  0.31496985968E+03  0.31940299429E+03  0.41800000000E+01 0. -1.
         -5    1    4    4    0  501 -0.13808670858E+02  0.33477557041E+02  0.90830359573E+01  0.37568606023E+02  0.41800000000E+01 0. -1.
</event>
<event>
11    1  0.1078607E-008  0.1696217E+03  0.7561462E-02  0.1078361E+00
         22   -1    0    0    0    0  0.00000000000E+00  0.00000000000E+00  0.16137473338E+03  0.16137473338E+03  0.00000000000E+00 0. -1.
         22   -1    0    0    0    0 -0.00000000000E+00 -0.00000000000E+00 -0.21085187627E+04  0.21085187627E+04  0.00000000000E+00 0.  1.
        -24    2    1    2    0    0  0.30665281946E+02 -0.13238859247E+02 -0.14315434241E+04  0.14341897450E+04  0.80424017112E+02 0.  0.
         25    2    1    2    0    0 -0.74163621472E+02 -0.92759702806E+02 -0.63109182983E+03  0.65423951883E+03  0.12509134702E+03 0.  0.
         24    2    1    2    0    0  0.43498339526E+02  0.10599856205E+03  0.11549122464E+03  0.18146423226E+03  0.80394302798E+02 0.  0.
        -11    1    5    5    0    0  0.18672649101E+02 -0.91563369335E+01  0.89859408812E+01  0.22655097970E+02  0.00000000000E+00 0.  1.
         12    1    5    5    0    0  0.24825690425E+02  0.11515489899E+03  0.10650528376E+03  0.15880913429E+03  0.00000000000E+00 0. -1.
         13    1    3    3    0    0  0.46562650588E+02 -0.28779077764E+02 -0.64074543592E+03  0.64307933367E+03  0.00000000000E+00 0. -1.
        -14    1    3    3    0    0 -0.15897368641E+02  0.15540218517E+02 -0.79079798818E+03  0.79111041128E+03  0.00000000000E+00 0.  1.
          5    1    4    4  501    0 -0.88096898454E+02 -0.91577785743E+02 -0.34345507617E+03  0.36623273489E+03  0.41800000000E+01 0. -1.
         -5    1    4    4    0  501  0.13933276982E+02 -0.11819170630E+01 -0.28763675366E+03  0.28800678394E+03  0.41800000000E+01 0. -1.
</event>
<event>
11    1  0.1078607E-008  0.1642677E+03  0.7561462E-02  0.1083131E+00
         22   -1    0    0    0    0  0.00000000000E+00  0.00000000000E+00  0.10101776125E+04  0.10101776125E+04  0.00000000000E+00 0.  1.
         22   -1    0    0    0    0 -0.00000000000E+00 -0.00000000000E+00 -0.13649753080E+03  0.13649753080E+03  0.00000000000E+00 0.  1.
        -24    2    1    2    0    0  0.33586594363E+02  0.41970884824E+02 -0.93612974086E+02  0.13153408387E+03  0.75154586084E+02 0.  0.
         25    2    1    2    0    0 -0.81391399055E+02  0.60980053816E+02  0.40260756709E+03  0.43368652542E+03  0.12509205591E+03 0.  0.
         24    2    1    2    0    0  0.47804804692E+02 -0.10295093864E+03  0.56468548871E+03  0.58145453403E+03  0.79595721381E+02 0.  0.
        -11    1    5    5    0    0  0.28003560082E+02 -0.11126448427E+03  0.42889183437E+03  0.44397318661E+03  0.00000000000E+00 0.  1.
         12    1    5    5    0    0  0.19801244610E+02  0.83135456322E+01  0.13579365434E+03  0.13748134741E+03  0.00000000000E+00 0. -1.
         13    1    3    3    0    0 -0.19535210326E+02  0.16784689240E+02 -0.56276309978E+02  0.61890009695E+02  0.00000000000E+00 0. -1.
        -14    1    3    3    0    0  0.53121804689E+02  0.25186195584E+02 -0.37336664108E+02  0.69644074179E+02  0.00000000000E+00 0.  1.
          5    1    4    4  501    0 -0.10706672838E+03  0.18213511373E+02  0.23812193814E+03  0.26175283407E+03  0.41800000000E+01 0.  1.
         -5    1    4    4    0  501  0.25675329328E+02  0.42766542443E+02  0.16448562895E+03  0.17193369135E+03  0.41800000000E+01 0.  1.
</event>
<event>
11    1  0.1078607E-008  0.1421078E+03  0.7561462E-02  0.1105227E+00
         22   -1    0    0    0    0  0.00000000000E+00  0.00000000000E+00  0.73571668540E+03  0.73571668540E+03  0.00000000000E+00 0. -1.
         22   -1    0    0    0    0 -0.00000000000E+00 -0.00000000000E+00 -0.46221248188E+03  0.46221248188E+03  0.00000000000E+00 0. -1.
         24    2    1    2    0    0  0.23316902781E+02  0.63604090771E+02 -0.43767429644E+03  0.45021523524E+03  0.80906179980E+02 0.  0.
         25    2    1    2    0    0 -0.29195004829E+02 -0.44106116095E+02  0.31606477162E+03  0.34400740912E+03  0.12508581010E+03 0.  0.
        -24    2    1    2    0    0  0.58781020476E+01 -0.19497974676E+02  0.39511372834E+03  0.40370652292E+03  0.80308002233E+02 0.  0.
        -11    1    3    3    0    0 -0.18756474070E+02 -0.19886280224E+01 -0.32174461997E+02  0.37295522060E+02  0.00000000000E+00 0.  1.
         12    1    3    3    0    0  0.42073376851E+02  0.65592718793E+02 -0.40549983445E+03  0.41291971318E+03  0.00000000000E+00 0. -1.
         11    1    5    5    0    0 -0.20146330779E+02 -0.61018097385E+01  0.34521817375E+03  0.34585935612E+03  0.00000000000E+00 0. -1.
        -12    1    5    5    0    0  0.26024432826E+02 -0.13396164937E+02  0.49895554588E+02  0.57847166798E+02  0.00000000000E+00 0.  1.
          5    1    4    4  501    0  0.80118216547E+01 -0.77250345886E+02  0.24547157404E+03  0.25749868211E+03  0.41800000000E+01 0.  1.
         -5    1    4    4    0  501 -0.37206826483E+02  0.33144229791E+02  0.70593197578E+02  0.86508727014E+02  0.41800000000E+01 0.  1.
</event>
<event>
11    1  0.1078607E-008  0.2130517E+03  0.7561462E-02  0.1045659E+00
         22   -1    0    0    0    0  0.00000000000E+00  0.00000000000E+00  0.98592695577E+03  0.98592695577E+03  0.00000000000E+00 0. -1.
         22   -1    0    0    0    0 -0.00000000000E+00 -0.00000000000E+00 -0.16575330669E+03  0.16575330669E+03  0.00000000000E+00 0.  1.
        -24    2    1    2    0    0  0.14508992218E+02  0.76388901694E+02 -0.85781317285E+02  0.14082585293E+03  0.80173008554E+02 0.  0.
         25    2    1    2    0    0 -0.14865487278E+03  0.47783437585E+02  0.22431138172E+03  0.30056728691E+03  0.12507425747E+03 0.  0.
         24    2    1    2    0    0  0.13414588056E+03 -0.12417233928E+03  0.68164358465E+03  0.71028712263E+03  0.80348820541E+02 0.  0.
        -13    1    5    5    0    0  0.82727136850E+02 -0.10125447331E+03  0.34455303484E+03  0.36852820972E+03  0.00000000000E+00 0.  1.
         14    1    5    5    0    0  0.51418743712E+02 -0.22917865968E+02  0.33709054980E+03  0.34175891291E+03  0.00000000000E+00 0. -1.
         11    1    3    3    0    0  0.35597991453E+01  0.89451822788E+02 -0.53418665680E+02  0.10424900294E+03  0.00000000000E+00 0. -1.
        -12    1    3    3    0    0  0.10949193072E+02 -0.13062921094E+02 -0.32362651605E+02  0.36576849992E+02  0.00000000000E+00 0.  1.
          5    1    4    4  501    0 -0.24130238385E+02 -0.40425756560E+02  0.48353860128E+02  0.67617145660E+02  0.41800000000E+01 0. -1.
         -5    1    4    4    0  501 -0.12452463440E+03  0.88209194145E+02  0.17595752159E+03  0.23295014125E+03  0.41800000000E+01 0. -1.
</event>
<event>
11    1  0.1078607E-008  0.1638603E+03  0.7561462E-02  0.1083502E+00
         22   -1    0    0    0    0  0.00000000000E+00  0.00000000000E+00  0.12461183412E+03  0.12461183412E+03  0.00000000000E+00 0.  1.
         22   -1    0    0    0    0 -0.00000000000E+00 -0.00000000000E+00 -0.39823601180E+03  0.39823601180E+03  0.00000000000E+00 0.  1.
         24    2    1    2    0    0  0.92463682801E+02  0.66659126867E+02 -0.23641633570E+03  0.27420856389E+03  0.79402020698E+02 0.  0.
         25    2    1    2    0    0 -0.77990724266E+02 -0.16926446116E+02 -0.13228011050E+01  0.14838657109E+03  0.12509103496E+03 0.  0.
        -24    2    1    2    0    0 -0.14472958536E+02 -0.49732680750E+02 -0.35885040877E+02  0.10025271094E+03  0.77974764056E+02 0.  0.
        -13    1    3    3    0    0  0.12478536734E+02  0.51240013141E+02 -0.59927438845E+02  0.79828257856E+02  0.00000000000E+00 0.  1.
         14    1    3    3    0    0  0.79985146067E+02  0.15419113725E+02 -0.17648889686E+03  0.19438030603E+03  0.00000000000E+00 0. -1.
         13    1    5    5    0    0  0.26768626652E+02 -0.56715409957E-01 -0.82107282559E+00  0.26781276109E+02  0.00000000000E+00 0. -1.
        -14    1    5    5    0    0 -0.41241585187E+02 -0.49675965340E+02 -0.35063968051E+02  0.73471434835E+02  0.00000000000E+00 0.  1.
          5    1    4    4  501    0 -0.21990783309E+01  0.23357238650E+02 -0.45797194628E+02  0.51626078475E+02  0.41800000000E+01 0.  1.
         -5    1    4    4    0  501 -0.75791645935E+02 -0.40283684766E+02  0.44474393523E+02  0.96760492615E+02  0.41800000000E+01 0.  1.
</event>
<event>
11    1  0.1078607E-008  0.1993512E+03  0.7561462E-02  0.1054983E+00
         22   -1    0    0    0    0  0.00000000000E+00  0.00000000000E+00  0.27501619403E+03  0.27501619403E+03  0.00000000000E+00 0. -1.
         22   -1    0    0    0    0 -0.00000000000E+00 -0.00000000000E+00 -0.28409066628E+04  0.28409066628E+04  0.00000000000E+00 0. -1.
        -24    2    1    2    0    0  0.43600502677E+02  0.40388864399E+02 -0.24382415590E+04  0.24403084248E+04  0.80938521084E+02 0.  0.
         25    2    1    2    0    0 -0.19216037131E+03 -0.68928727910E+02 -0.33168606325E+03  0.40907202039E+03  0.12508994954E+03 0.  0.
         24    2    1    2    0    0  0.14855986863E+03  0.28539863511E+02  0.20403715350E+03  0.26654241156E+03  0.80803086401E+02 0.  0.
        -11    1    5    5    0    0  0.25195280087E+02  0.34535870528E+00 -0.14236643271E+01  0.25237833334E+02  0.00000000000E+00 0.  1.
         12    1    5    5    0    0  0.12336458855E+03  0.28194504806E+02  0.20546081783E+03  0.24130457822E+03  0.00000000000E+00 0. -1.
         13    1    3    3    0    0 -0.77565793070E+01  0.27885912337E+02 -0.16699277154E+04  0.16701785424E+04  0.00000000000E+00 0. -1.
        -14    1    3    3    0    0  0.51357081984E+02  0.12502952061E+02 -0.76831384354E+03  0.77012988245E+03  0.00000000000E+00 0.  1.
          5    1    4    4  501    0 -0.10192052733E+03 -0.53329817876E+02 -0.77250781815E+02  0.13862546324E+03  0.41800000000E+01 0.  1.
         -5    1    4    4    0  501 -0.90239843978E+02 -0.15598910034E+02 -0.25443528143E+03  0.27044655715E+03  0.41800000000E+01 0.  1.
</event>
<event>
11    1  0.1078607E-008  0.2684330E+03  0.7561462E-02  0.1014513E+00
         22   -1    0    0    0    0  0.00000000000E+00  0.00000000000E+00  0.12762362891E+04  0.12762362891E+04  0.00000000000E+00 0. -1.
         22   -1    0    0    0    0 -0.00000000000E+00 -0.00000000000E+00 -0.23561950995E+03  0.23561950995E+03  0.00000000000E+00 0. -1.
        -24    2    1    2    0    0 -0.20389856468E+03 -0.10959745614E+03 -0.44901893100E+02  0.24916696355E+03  0.80509432059E+02 0.  0.
         25    2    1    2    0    0  0.22580789587E+03  0.10962569860E+03  0.14009950059E+03  0.31350046926E+03  0.12509066525E+03 0.  0.
         24    2    1    2    0    0 -0.21909331190E+02 -0.28242457214E-01  0.94541917166E+03  0.94918836622E+03  0.81615714453E+02 0.  0.
        -11    1    5    5    0    0  0.23200523954E+02  0.23651887018E+02  0.32699419074E+03  0.32866833867E+03  0.00000000000E+00 0.  1.
         12    1    5    5    0    0 -0.45109855144E+02 -0.23680129475E+02  0.61842498092E+03  0.62052002755E+03  0.00000000000E+00 0. -1.
         13    1    3    3    0    0 -0.11531684740E+03 -0.93863381264E+02 -0.55214925909E+02  0.15860957626E+03  0.00000000000E+00 0. -1.
        -14    1    3    3    0    0 -0.88581717280E+02 -0.15734074880E+02  0.10313032809E+02  0.90557387298E+02  0.00000000000E+00 0.  1.
          5    1    4    4  501    0  0.15320789992E+03  0.50663539104E+02  0.22184109082E+02  0.16293882867E+03  0.41800000000E+01 0. -1.
         -5    1    4    4    0  501  0.72599995950E+02  0.58962159497E+02  0.11791539151E+03  0.15056164059E+03  0.41800000000E+01 0. -1.
</event>
<event>
11    1  0.1135122E-008  0.1543182E+03  0.7561462E-02  0.1092546E+00
         22   -1    0    0    0    0  0.00000000000E+00  0.00000000000E+00  0.12847672060E+04  0.12847672060E+04  0.00000000000E+00 0.  1.
         22   -1    0    0    0    0 -0.00000000000E+00 -0.00000000000E+00 -0.18958536230E+03  0.18958536230E+03  0.00000000000E+00 0.  1.
        -24    2    1    2    0    0 -0.75818873927E+02 -0.44971854613E+02 -0.93527098737E+02  0.15331134999E+03  0.83582788223E+02 0.  0.
         25    2    1    2    0    0  0.11165500901E+03 -0.34856075529E+01  0.45935071336E+02  0.17388533570E+03  0.12508832358E+03 0.  0.
         24    2    1    2    0    0 -0.35836135082E+02  0.48457462166E+02  0.11427738711E+04  0.11471558827E+04  0.80013400923E+02 0.  0.
        -13    1    5    5    0    0 -0.39445540324E+02  0.35908042015E+02  0.11169052323E+04  0.11181782667E+04  0.00000000000E+00 0.  1.
         14    1    5    5    0    0  0.36094052419E+01  0.12549420151E+02  0.25868638873E+02  0.28977616007E+02  0.00000000000E+00 0. -1.
         13    1    3    3    0    0  0.42267436023E+01  0.15276861760E+02  0.57562003280E+00  0.15861248536E+02  0.00000000000E+00 0. -1.
        -14    1    3    3    0    0 -0.80045617530E+02 -0.60248716373E+02 -0.94102718770E+02  0.13745010146E+03  0.00000000000E+00 0.  1.
          5    1    4    4  501    0  0.38092634595E+01  0.46971033953E+02  0.22814198145E+02  0.52523790378E+02  0.41800000000E+01 0. -1.
         -5    1    4    4    0  501  0.10784574555E+03 -0.50456641506E+02  0.23120873191E+02  0.12136154532E+03  0.41800000000E+01 0. -1.
</event>
<event>
11    1  0.1078607E-008  0.1383399E+03  0.7561462E-02  0.1109426E+00
         22   -1    0    0    0    0  0.00000000000E+00  0.00000000000E+00  0.99786361759E+03  0.99786361759E+03  0.00000000000E+00 0. -1.
         22   -1    0    0    0    0 -0.00000000000E+00 -0.00000000000E+00 -0.15069146945E+04  0.15069146945E+04  0.00000000000E+00 0.  1.
        -24    2    1    2    0    0  0.43239124136E+02 -0.43826786884E+02 -0.14594347023E+04  0.14628772944E+04  0.79182820733E+02 0.  0.
         25    2    1    2    0    0 -0.50767420813E+02 -0.17205862722E+02  0.65500712392E+02  0.15103325861E+03  0.12508928473E+03 0.  0.
         24    2    1    2    0    0  0.75282966765E+01  0.61032649606E+02  0.88488291293E+03  0.89086775915E+03  0.82740166307E+02 0.  0.
        -13    1    5    5    0    0 -0.63097345812E+01  0.41921079256E+02  0.15759949250E+03  0.16320168404E+03  0.00000000000E+00 0.  1.
         14    1    5    5    0    0  0.13838031258E+02  0.19111570350E+02  0.72728342043E+03  0.72766607511E+03  0.00000000000E+00 0. -1.
         11    1    3    3    0    0 -0.10232405920E+02  0.85756714364E+01 -0.61185367660E+02  0.62625022852E+02  0.00000000000E+00 0. -1.
        -12    1    3    3    0    0  0.53471530057E+02 -0.52402458321E+02 -0.13982493346E+04  0.14002522715E+04  0.00000000000E+00 0.  1.
          5    1    4    4  501    0  0.23461249377E+02 -0.48349981845E+02  0.37653331986E+02  0.65752541977E+02  0.41800000000E+01 0. -1.
         -5    1    4    4    0  501 -0.74228670189E+02  0.31144119124E+02  0.27847380406E+02  0.85280716634E+02  0.41800000000E+01 0. -1.
</event>
<event>
11    1  0.1078607E-008  0.1482771E+03  0.7561462E-02  0.1098652E+00
         22   -1    0    0    0    0  0.00000000000E+00  0.00000000000E+00  0.32887275336E+03  0.32887275336E+03  0.00000000000E+00 0.  1.
         22   -1    0    0    0    0 -0.00000000000E+00 -0.00000000000E+00 -0.83069103133E+03  0.83069103133E+03  0.00000000000E+00 0. -1.
         24    2    1    2    0    0  0.67427079462E+02 -0.49393693464E+02 -0.62241156776E+03  0.63272688617E+03  0.77207543661E+02 0.  0.
         25    2    1    2    0    0 -0.52292052346E+02  0.31437678453E+02 -0.17292228519E+03  0.22197091077E+03  0.12508469990E+03 0.  0.
        -24    2    1    2    0    0 -0.15135027116E+02  0.17956015011E+02  0.29351557498E+03  0.30486598775E+03  0.78996140488E+02 0.  0.
        -13    1    3    3    0    0  0.32349342114E+02 -0.37688998038E+02 -0.13385604108E+03  0.14277387801E+03  0.00000000000E+00 0.  1.
         14    1    3    3    0    0  0.35077737348E+02 -0.11704695426E+02 -0.48855552668E+03  0.48995300816E+03  0.00000000000E+00 0. -1.
         11    1    5    5    0    0 -0.43230215534E+02 -0.43391331200E+01  0.11851850807E+03  0.12623120203E+03  0.00000000000E+00 0. -1.
        -12    1    5    5    0    0  0.28095188418E+02  0.22295148131E+02  0.17499706691E+03  0.17863478572E+03  0.00000000000E+00 0.  1.
          5    1    4    4  501    0  0.22951297246E+02 -0.12604484878E+02  0.18851777851E+01  0.26583103272E+02  0.41800000000E+01 0.  1.
         -5    1    4    4    0  501 -0.75243349592E+02  0.44042163331E+02 -0.17480746297E+03  0.19538780750E+03  0.41800000000E+01 0.  1.
</event>
<event>
11    1  0.1078607E-008  0.1561921E+03  0.7561462E-02  0.1090714E+00
         22   -1    0    0    0    0  0.00000000000E+00  0.00000000000E+00  0.35002290773E+03  0.35002290773E+03  0.00000000000E+00 0.  1.
         22   -1    0    0    0    0 -0.00000000000E+00 -0.00000000000E+00 -0.45620197927E+03  0.45620197927E+03  0.00000000000E+00 0.  1.
        -24    2    1    2    0    0  0.20847193170E+02  0.14622753584E+02 -0.25309706129E+03  0.26661876644E+03  0.79868728548E+02 0.  0.
         25    2    1    2    0    0 -0.11201225341E+03  0.57828870085E+00 -0.14622620443E+03  0.22265934499E+03  0.12509197303E+03 0.  0.
         24    2    1    2    0    0  0.91165060237E+02 -0.15201042285E+02  0.29314419418E+03  0.31694677558E+03  0.77327873823E+02 0.  0.
        -13    1    5    5    0    0  0.95569190761E+02  0.78050550249E+00  0.27978002141E+03  0.29565341161E+03  0.00000000000E+00 0.  1.
         14    1    5    5    0    0 -0.44041305243E+01 -0.15981547787E+02  0.13364172768E+02  0.21293363970E+02  0.00000000000E+00 0. -1.
         11    1    3    3    0    0 -0.46368530986E+01  0.14595546795E+02 -0.34807651172E+01  0.15704971147E+02  0.00000000000E+00 0. -1.
        -12    1    3    3    0    0  0.25484046268E+02  0.27206788599E-01 -0.24961629617E+03  0.25091379529E+03  0.00000000000E+00 0.  1.
          5    1    4    4  501    0 -0.13908840692E+03  0.22172833900E+01 -0.13170162095E+03  0.19160712577E+03  0.41800000000E+01 0.  1.
         -5    1    4    4    0  501  0.27076153517E+02 -0.16389946892E+01 -0.14524583480E+02  0.31052219215E+02  0.41800000000E+01 0.  1.
</event>
<event>
11    1  0.1078607E-008  0.1505142E+03  0.7561462E-02  0.1096355E+00
         22   -1    0    0    0    0  0.00000000000E+00  0.00000000000E+00  0.12183238033E+04  0.12183238033E+04  0.00000000000E+00 0.  1.
         22   -1    0    0    0    0 -0.00000000000E+00 -0.00000000000E+00 -0.40794099329E+03  0.40794099329E+03  0.00000000000E+00 0.  1.
        -24    2    1    2    0    0 -0.80363040534E+02 -0.51523782698E+01 -0.34779280567E+03  0.36613162801E+03  0.81288179112E+02 0.  0.
         25    2    1    2    0    0  0.15610513476E+03  0.45932566626E+01  0.16102122930E+03  0.25683806795E+03  0.12509214907E+03 0.  0.
         24    2    1    2    0    0 -0.75742094229E+02  0.55912160722E+00  0.99715438640E+03  0.10032951007E+04  0.80913603401E+02 0.  0.
        -11    1    5    5    0    0 -0.32637653432E+02  0.66372388167E+01  0.82667984133E+03  0.82735048765E+03  0.00000000000E+00 0.  1.
         12    1    5    5    0    0 -0.43104440797E+02 -0.60781172095E+01  0.17047454508E+03  0.17594461300E+03  0.00000000000E+00 0. -1.
         13    1    3    3    0    0 -0.52519954914E+01  0.17612598079E+02 -0.13645651788E+02  0.22890847089E+02  0.00000000000E+00 0. -1.
        -14    1    3    3    0    0 -0.75111045043E+02 -0.22764976349E+02 -0.33414715388E+03  0.34324078092E+03  0.00000000000E+00 0.  1.
          5    1    4    4  501    0  0.91150213629E+02  0.51412451681E+02  0.40943242857E+02  0.11245187045E+03  0.41800000000E+01 0. -1.
         -5    1    4    4    0  501  0.64954921134E+02 -0.46819195018E+02  0.12007798644E+03  0.14438619750E+03  0.41800000000E+01 0. -1.
</event>
<event>
11    1  0.1078607E-008  0.1553640E+03  0.7561462E-02  0.1091520E+00
         22   -1    0    0    0    0  0.00000000000E+00  0.00000000000E+00  0.66515342078E+03  0.66515342078E+03  0.00000000000E+00 0. -1.
         22   -1    0    0    0    0 -0.00000000000E+00 -0.00000000000E+00 -0.49050152620E+03  0.49050152620E+03  0.00000000000E+00 0.  1.
        -24    2    1    2    0    0  0.22449444750E+02  0.36816519061E+02 -0.36543273476E+03  0.37655522365E+03  0.79958233992E+02 0.  0.
         25    2    1    2    0    0 -0.10845341430E+03 -0.50387264090E+01 -0.52793612461E+02  0.17384591546E+03  0.12509078691E+03 0.  0.
         24    2    1    2    0    0  0.86003969545E+02 -0.31777792652E+02  0.59287824180E+03  0.60525380787E+03  0.80131463592E+02 0.  0.
        -13    1    5    5    0    0 -0.14886857464E+02 -0.37153361057E+01  0.47634464136E+02  0.50044624297E+02  0.00000000000E+00 0.  1.
         14    1    5    5    0    0  0.10089082701E+03 -0.28062456546E+02  0.54524377766E+03  0.55520918357E+03  0.00000000000E+00 0. -1.
         11    1    3    3    0    0 -0.25926128066E+02  0.19204617059E+02 -0.21839511755E+03  0.22076550637E+03  0.00000000000E+00 0. -1.
        -12    1    3    3    0    0  0.48375572816E+02  0.17611902002E+02 -0.14703761720E+03  0.15578971728E+03  0.00000000000E+00 0.  1.
          5    1    4    4  501    0 -0.11766045370E+03 -0.43730981568E+02 -0.38202915778E+02  0.13127572620E+03  0.41800000000E+01 0.  1.
         -5    1    4    4    0  501  0.92070394086E+01  0.38692255159E+02 -0.14590696683E+02  0.42570189261E+02  0.41800000000E+01 0.  1.
</event>
<event>
11    1  0.1078607E-008  0.2019948E+03  0.7561462E-02  0.1053122E+00
         22   -1    0    0    0    0  0.00000000000E+00  0.00000000000E+00  0.17925682843E+03  0.17925682843E+03  0.00000000000E+00 0.  1.
         22   -1    0    0    0    0 -0.00000000000E+00 -0.00000000000E+00 -0.46990811568E+03  0.46990811568E+03  0.00000000000E+00 0.  1.
         24    2    1    2    0    0  0.12739579675E+03  0.76774354195E+02 -0.17849492123E+03  0.24672395589E+03  0.82995680697E+02 0.  0.
         25    2    1    2    0    0 -0.13128458476E+03 -0.11429072056E+03 -0.18841201690E+03  0.28538392359E+03  0.12508750829E+03 0.  0.
        -24    2    1    2    0    0  0.38887880195E+01  0.37516366361E+02  0.76255650875E+02  0.11705706463E+03  0.80404176955E+02 0.  0.
        -13    1    3    3    0    0  0.69452057787E+02  0.86686074274E+02 -0.10787693684E+03  0.15484023155E+03  0.00000000000E+00 0.  1.
         14    1    3    3    0    0  0.57943738958E+02 -0.99117200797E+01 -0.70617984393E+02  0.91883724343E+02  0.00000000000E+00 0. -1.
         11    1    5    5    0    0  0.33271913053E+01 -0.20723785490E+02 -0.14274821442E+00  0.20989660885E+02  0.00000000000E+00 0. -1.
        -12    1    5    5    0    0  0.56159671420E+00  0.58240151851E+02  0.76398399090E+02  0.96067403743E+02  0.00000000000E+00 0.  1.
          5    1    4    4  501    0 -0.14301359455E+03 -0.70478646101E+02 -0.10687934832E+03  0.19199165419E+03  0.41800000000E+01 0.  1.
         -5    1    4    4    0  501  0.11729009781E+02 -0.43812074455E+02 -0.81532668581E+02  0.93392269404E+02  0.41800000000E+01 0.  1.
</event>
<event>
11    1  0.1078607E-008  0.1355786E+03  0.7561462E-02  0.1112599E+00
         22   -1    0    0    0    0  0.00000000000E+00  0.00000000000E+00  0.10845314885E+03  0.10845314885E+03  0.00000000000E+00 0.  1.
         22   -1    0    0    0    0 -0.00000000000E+00 -0.00000000000E+00 -0.15611695365E+04  0.15611695365E+04  0.00000000000E+00 0.  1.
        -24    2    1    2    0    0 -0.22851443575E+02  0.48420124388E+02 -0.14263045757E+04  0.14297294836E+04  0.83156217875E+02 0.  0.
         25    2    1    2    0    0  0.28996981298E+02 -0.12885754576E+02 -0.69488396806E+02  0.14656896288E+03  0.12508779315E+03 0.  0.
         24    2    1    2    0    0 -0.61455377230E+01 -0.35534369811E+02  0.43076584870E+02  0.93324238894E+02  0.74520885189E+02 0.  0.
        -13    1    5    5    0    0 -0.94741201703E+01  0.14356715993E+02  0.39631903315E+02  0.43203726778E+02  0.00000000000E+00 0.  1.
         14    1    5    5    0    0  0.33285824474E+01 -0.49891085804E+02  0.34446815547E+01  0.50120512117E+02  0.00000000000E+00 0. -1.
         11    1    3    3    0    0 -0.18084806528E+02 -0.20822981350E+02 -0.29052559219E+03  0.29183176060E+03  0.00000000000E+00 0. -1.
        -12    1    3    3    0    0 -0.47666370473E+01  0.69243105738E+02 -0.11357789836E+04  0.11378977230E+04  0.00000000000E+00 0.  1.
          5    1    4    4  501    0  0.14633689935E+02 -0.13243253730E+02 -0.10558432082E+03  0.10749441778E+03  0.41800000000E+01 0.  1.
         -5    1    4    4    0  501  0.14363291363E+02  0.35749915306E+00  0.36095924016E+02  0.39074545103E+02  0.41800000000E+01 0.  1.
</event>
<event>
11    1  0.1078607E-008  0.1530869E+03  0.7561462E-02  0.1093766E+00
         22   -1    0    0    0    0  0.00000000000E+00  0.00000000000E+00  0.14921554323E+03  0.14921554323E+03  0.00000000000E+00 0.  1.
         22   -1    0    0    0    0 -0.00000000000E+00 -0.00000000000E+00 -0.76589636631E+03  0.76589636631E+03  0.00000000000E+00 0.  1.
        -24    2    1    2    0    0  0.32732885787E+01 -0.60461007546E+01 -0.58028035201E+03  0.58632430105E+03  0.83687689202E+02 0.  0.
         25    2    1    2    0    0  0.73049124303E+02 -0.40859061452E+02 -0.10126302495E+03  0.18140805222E+03  0.12509613793E+03 0.  0.
         24    2    1    2    0    0 -0.76322412882E+02  0.46905162206E+02  0.64862553872E+02  0.14737955626E+03  0.97408304371E+02 0.  0.
        -11    1    5    5    0    0 -0.61886093376E+02  0.56646923424E+02  0.85896967306E+02  0.12007102681E+03  0.00000000000E+00 0.  1.
         12    1    5    5    0    0 -0.14436319506E+02 -0.97417612177E+01 -0.21034413434E+02  0.27308529455E+02  0.00000000000E+00 0. -1.
         13    1    3    3    0    0  0.86612758875E+01  0.54071351583E+01 -0.58761479216E+01  0.11780658938E+02  0.00000000000E+00 0. -1.
        -14    1    3    3    0    0 -0.53879873088E+01 -0.11453235913E+02 -0.57440420409E+03  0.57454364212E+03  0.00000000000E+00 0.  1.
          5    1    4    4  501    0  0.67902790631E+02 -0.51652217569E+02 -0.12680874679E+03  0.15289431389E+03  0.41800000000E+01 0. -1.
         -5    1    4    4    0  501  0.51463336719E+01  0.10793156117E+02  0.25545721847E+02  0.28513738336E+02  0.41800000000E+01 0. -1.
</event>
<event>
11    1  0.1996636E-008  0.1673515E+03  0.7561462E-02  0.1080360E+00
         22   -1    0    0    0    0  0.00000000000E+00  0.00000000000E+00  0.38084360908E+03  0.38084360908E+03  0.00000000000E+00 0. -1.
         22   -1    0    0    0    0 -0.00000000000E+00 -0.00000000000E+00 -0.16593880684E+04  0.16593880684E+04  0.00000000000E+00 0.  1.
         24    2    1    2    0    0 -0.50605736950E+02  0.41267667832E+02 -0.12449967332E+04  0.12493273787E+04  0.80858347874E+02 0.  0.
         25    2    1    2    0    0  0.98551434101E+02  0.59564100418E+02 -0.38080678533E+03  0.41703992964E+03  0.12509287725E+03 0.  0.
        -24    2    1    2    0    0 -0.47945697151E+02 -0.10083176825E+03  0.34725905925E+03  0.37386436911E+03  0.81974855235E+02 0.  0.
        -11    1    3    3    0    0 -0.40458096275E+02  0.28454110878E+02 -0.12063848101E+04  0.12073983618E+04  0.00000000000E+00 0.  1.
         12    1    3    3    0    0 -0.10147640675E+02  0.12813556954E+02 -0.38611923107E+02  0.41929016911E+02  0.00000000000E+00 0. -1.
         13    1    5    5    0    0 -0.38306729886E+02 -0.79753384148E+02  0.33717143135E+03  0.34858654873E+03  0.00000000000E+00 0. -1.
        -14    1    5    5    0    0 -0.96389672652E+01 -0.21078384103E+02  0.10087627905E+02  0.25277820378E+02  0.00000000000E+00 0.  1.
          5    1    4    4  501    0  0.34905186055E+02  0.49359214501E+02 -0.32816062017E+03  0.33370880885E+03  0.41800000000E+01 0.  1.
         -5    1    4    4    0  501  0.63646248047E+02  0.10204885917E+02 -0.52646165156E+02  0.83331120793E+02  0.41800000000E+01 0.  1.
</event>
<event>
11    1  0.1078607E-008  0.1322954E+03  0.7561462E-02  0.1116480E+00
         22   -1    0    0    0    0  0.00000000000E+00  0.00000000000E+00  0.80489537736E+02  0.80489537736E+02  0.00000000000E+00 0.  1.
         22   -1    0    0    0    0 -0.00000000000E+00 -0.00000000000E+00 -0.76036246635E+03  0.76036246635E+03  0.00000000000E+00 0. -1.
         24    2    1    2    0    0 -0.11609218191E+02  0.27216526726E+02 -0.43564824235E+03  0.44382230437E+03  0.79456488210E+02 0.  0.
         25    2    1    2    0    0  0.89427354079E+00 -0.66235677861E+02 -0.26828319124E+03  0.30333918451E+03  0.12510325901E+03 0.  0.
        -24    2    1    2    0    0  0.10714944650E+02  0.39019151135E+02  0.24058504973E+02  0.93690515201E+02  0.81004918264E+02 0.  0.
        -11    1    3    3    0    0 -0.38296992518E+02  0.14091871471E+02 -0.11944259925E+03  0.12622113529E+03  0.00000000000E+00 0.  1.
         12    1    3    3    0    0  0.26687774328E+02  0.13124655255E+02 -0.31620564310E+03  0.31760116908E+03  0.00000000000E+00 0. -1.
         11    1    5    5    0    0  0.16433766841E+02  0.53320515303E+02 -0.96554344219E+01  0.56624848420E+02  0.00000000000E+00 0. -1.
        -12    1    5    5    0    0 -0.57188221915E+01 -0.14301364168E+02  0.33713939395E+02  0.37065666780E+02  0.00000000000E+00 0.  1.
          5    1    4    4  501    0  0.43411731728E+02 -0.63228414632E+02 -0.82657420108E+02  0.11283675096E+03  0.41800000000E+01 0.  1.
         -5    1    4    4    0  501 -0.42517458187E+02 -0.30072632286E+01 -0.18562577113E+03  0.19050243355E+03  0.41800000000E+01 0.  1.
</event>
<event>
11    1  0.1078607E-008  0.1332458E+03  0.7561462E-02  0.1115344E+00
         22   -1    0    0    0    0  0.00000000000E+00  0.00000000000E+00  0.96085287327E+03  0.96085287327E+03  0.00000000000E+00 0.  1.
         22   -1    0    0    0    0 -0.00000000000E+00 -0.00000000000E+00 -0.28833116711E+03  0.28833116711E+03  0.00000000000E+00 0. -1.
        -24    2    1    2    0    0 -0.32502948085E+01  0.42372713919E+02 -0.19761827782E+03  0.21746176830E+03  0.80191181814E+02 0.  0.
         25    2    1    2    0    0 -0.42247713173E+02 -0.34185199327E+02 -0.18766815190E+02  0.13766885056E+03  0.12508805675E+03 0.  0.
         24    2    1    2    0    0  0.45498007982E+02 -0.81875145927E+01  0.88890679916E+03  0.89405342152E+03  0.83899456582E+02 0.  0.
        -11    1    5    5    0    0  0.43639486551E+02 -0.11741989938E+02  0.88889433416E+03  0.89004236776E+03  0.00000000000E+00 0.  1.
         12    1    5    5    0    0  0.18585214312E+01  0.35544753457E+01  0.12465004120E-01  0.40110537605E+01  0.00000000000E+00 0. -1.
         13    1    3    3    0    0  0.39415369362E+01  0.59271827369E+02 -0.87101698997E+02  0.10542955563E+03  0.00000000000E+00 0. -1.
        -14    1    3    3    0    0 -0.71918317448E+01 -0.16899113450E+02 -0.11051657882E+03  0.11203221266E+03  0.00000000000E+00 0.  1.
          5    1    4    4  501    0 -0.18213647979E+02 -0.39408015821E+02 -0.68973201298E+02  0.81605781541E+02  0.41800000000E+01 0.  1.
         -5    1    4    4    0  501 -0.24034065195E+02  0.52228164944E+01  0.50206386108E+02  0.56063069021E+02  0.41800000000E+01 0.  1.
</event>
<event>
11    1  0.1078607E-008  0.1389314E+03  0.7561462E-02  0.1108758E+00
         22   -1    0    0    0    0  0.00000000000E+00  0.00000000000E+00  0.21118254720E+04  0.21118254720E+04  0.00000000000E+00 0. -1.
         22   -1    0    0    0    0 -0.00000000000E+00 -0.00000000000E+00 -0.25554211407E+03  0.25554211407E+03  0.00000000000E+00 0. -1.
        -24    2    1    2    0    0  0.46500435728E+01  0.60868946887E+02 -0.23089002876E+03  0.25217189599E+03  0.80955593672E+02 0.  0.
         25    2    1    2    0    0  0.14681599889E+02 -0.42439807891E+02  0.32605409527E+03  0.35210269935E+03  0.12509336984E+03 0.  0.
         24    2    1    2    0    0 -0.19331643461E+02 -0.18429138996E+02  0.17611192914E+04  0.17630929907E+04  0.79008795122E+02 0.  0.
        -13    1    5    5    0    0 -0.79786956391E+01  0.18554903330E+02  0.13398090394E+03  0.13549474766E+03  0.00000000000E+00 0.  1.
         14    1    5    5    0    0 -0.11352947822E+02 -0.36984042326E+02  0.16271383875E+04  0.16275982431E+04  0.00000000000E+00 0. -1.
         11    1    3    3    0    0  0.11173894760E+02  0.38137390854E+01 -0.16224185661E+03  0.16267089649E+03  0.00000000000E+00 0. -1.
        -12    1    3    3    0    0 -0.65238511871E+01  0.57055207801E+02 -0.68648172151E+02  0.89500999499E+02  0.00000000000E+00 0.  1.
          5    1    4    4  501    0  0.54627850639E+02 -0.52656044814E+02  0.28008431181E+03  0.29020950233E+03  0.41800000000E+01 0. -1.
         -5    1    4    4    0  501 -0.39946250751E+02  0.10216236923E+02  0.45969783460E+02  0.61893197019E+02  0.41800000000E+01 0. -1.
</event>
<event>
11    1  0.1078607E-008  0.1823227E+03  0.7561462E-02  0.1067779E+00
         22   -1    0    0    0    0  0.00000000000E+00  0.00000000000E+00  0.26087003218E+03  0.26087003218E+03  0.00000000000E+00 0.  1.
         22   -1    0    0    0    0 -0.00000000000E+00 -0.00000000000E+00 -0.63120372849E+03  0.63120372849E+03  0.00000000000E+00 0. -1.
        -24    2    1    2    0    0  0.13729529997E+01 -0.11794563956E+02 -0.35610392005E+03  0.36523753365E+03  0.80296060762E+02 0.  0.
         25    2    1    2    0    0 -0.12060145116E+03 -0.47221700654E+02 -0.21046866685E+03  0.27698194561E+03  0.12508932582E+03 0.  0.
         24    2    1    2    0    0  0.11922849816E+03  0.59016264609E+02  0.19623889059E+03  0.24985428141E+03  0.78861305450E+02 0.  0.
        -13    1    5    5    0    0  0.85922418719E+02 -0.21530439653E+00  0.97043945161E+02  0.12961572315E+03  0.00000000000E+00 0.  1.
         14    1    5    5    0    0  0.33306079440E+02  0.59231569006E+02  0.99194945425E+02  0.12023855826E+03  0.00000000000E+00 0. -1.
         13    1    3    3    0    0  0.28063152228E+02  0.11152379953E+02 -0.27718375173E+03  0.27882386612E+03  0.00000000000E+00 0. -1.
        -14    1    3    3    0    0 -0.26690199228E+02 -0.22946943909E+02 -0.78920168320E+02  0.86413667537E+02  0.00000000000E+00 0.  1.
          5    1    4    4  501    0 -0.14115984099E+03 -0.18723885313E+02 -0.18445630289E+03  0.23306283416E+03  0.41800000000E+01 0. -1.
         -5    1    4    4    0  501  0.20558389835E+02 -0.28497815341E+02 -0.26012363961E+02  0.43919111451E+02  0.41800000000E+01 0. -1.
</event>
<event>
11    1  0.1078607E-008  0.1871053E+03  0.7561462E-02  0.1064036E+00
         22   -1    0    0    0    0  0.00000000000E+00  0.00000000000E+00  0.41214013606E+03  0.41214013606E+03  0.00000000000E+00 0. -1.
         22   -1    0    0    0    0 -0.00000000000E+00 -0.00000000000E+00 -0.10838263493E+04  0.10838263493E+04  0.00000000000E+00 0.  1.
         24    2    1    2    0    0 -0.89035616653E+02  0.10327970640E+03 -0.95571978839E+03  0.96856980004E+03  0.78314142004E+02 0.  0.
         25    2    1    2    0    0  0.14737256913E+03 -0.21793615428E+03  0.20711736494E+03  0.35743578531E+03  0.12509155161E+03 0.  0.
        -24    2    1    2    0    0 -0.58336952481E+02  0.11465644789E+03  0.76916210210E+02  0.16996090001E+03  0.80133033597E+02 0.  0.
        -11    1    3    3    0    0 -0.53392032030E+02  0.10818906438E+03 -0.69786991328E+03  0.70822171571E+03  0.00000000000E+00 0.  1.
         12    1    3    3    0    0 -0.35643584623E+02 -0.49093579866E+01 -0.25784987511E+03  0.26034808433E+03  0.00000000000E+00 0. -1.
         13    1    5    5    0    0 -0.57856993042E+02  0.66386014945E+02  0.83362710619E+02  0.12125954043E+03  0.00000000000E+00 0. -1.
        -14    1    5    5    0    0 -0.47995943921E+00  0.48270432943E+02 -0.64465004094E+01  0.48701359582E+02  0.00000000000E+00 0.  1.
          5    1    4    4  501    0  0.11609069473E+03 -0.64765970179E+02  0.11573851671E+03  0.17630813069E+03  0.41800000000E+01 0. -1.
         -5    1    4    4    0  501  0.31281874400E+02 -0.15317018411E+03  0.91378848225E+02  0.18112765462E+03  0.41800000000E+01 0. -1.
</event>
<event>
11    1  0.1078607E-008  0.1929816E+03  0.7561462E-02  0.1059601E+00
         22   -1    0    0    0    0  0.00000000000E+00  0.00000000000E+00  0.59173881297E+03  0.59173881297E+03  0.00000000000E+00 0. -1.
         22   -1    0    0    0    0 -0.00000000000E+00 -0.00000000000E+00 -0.32419976702E+03  0.32419976702E+03  0.00000000000E+00 0. -1.
        -24    2    1    2    0    0 -0.12720706411E+03  0.11431538165E+02 -0.16461668785E+03  0.22347324875E+03  0.80804218713E+02 0.  0.
         25    2    1    2    0    0  0.18937156136E+03  0.11483796085E+03  0.26673637796E+02  0.25575042981E+03  0.12508978332E+03 0.  0.
         24    2    1    2    0    0 -0.62164497254E+02 -0.12626949902E+03  0.40548209600E+03  0.43671490143E+03  0.80596301759E+02 0.  0.
        -13    1    5    5    0    0 -0.75590481629E+01  0.15404308431E+01 -0.37088546073E+00  0.77233213281E+01  0.00000000000E+00 0.  1.
         14    1    5    5    0    0 -0.54605449091E+02 -0.12780992986E+03  0.40585298146E+03  0.42899158011E+03  0.00000000000E+00 0. -1.
         11    1    3    3    0    0 -0.11542502377E+03  0.31086560994E+02 -0.10320698568E+03  0.15792717397E+03  0.00000000000E+00 0. -1.
        -12    1    3    3    0    0 -0.11782040339E+02 -0.19655022828E+02 -0.61409702173E+02  0.65546074771E+02  0.00000000000E+00 0.  1.
          5    1    4    4  501    0  0.19599395177E+02  0.18187375597E+02  0.52093139779E+02  0.58703360504E+02  0.41800000000E+01 0.  1.
         -5    1    4    4    0  501  0.16977216619E+03  0.96650585254E+02 -0.25419501983E+02  0.19704706931E+03  0.41800000000E+01 0.  1.
</event>
<event>
11    1  0.1078607E-008  0.1371271E+03  0.7561462E-02  0.1110810E+00
         22   -1    0    0    0    0  0.00000000000E+00  0.00000000000E+00  0.15333822988E+03  0.15333822988E+03  0.00000000000E+00 0.  1.
         22   -1    0    0    0    0 -0.00000000000E+00 -0.00000000000E+00 -0.64667541653E+03  0.64667541653E+03  0.00000000000E+00 0.  1.
        -24    2    1    2    0    0 -0.22648528590E+01 -0.32894286599E+02 -0.46377775123E+03  0.47168724561E+03  0.79447413372E+02 0.  0.
         25    2    1    2    0    0  0.39650409691E+02  0.71231206861E+02 -0.12644547479E+03  0.19568126522E+03  0.12512657450E+03 0.  0.
         24    2    1    2    0    0 -0.37385556832E+02 -0.38336920262E+02  0.96886039358E+02  0.13264513557E+03  0.73078232424E+02 0.  0.
        -13    1    5    5    0    0 -0.57042482948E+02 -0.35317733578E+02  0.88514424709E+02  0.11106750446E+03  0.00000000000E+00 0.  1.
         14    1    5    5    0    0  0.19656926116E+02 -0.30191866841E+01  0.83716146486E+01  0.21577631112E+02  0.00000000000E+00 0. -1.
         11    1    3    3    0    0  0.25982398252E+02 -0.71559866790E+01 -0.56261083774E+02  0.62382711641E+02  0.00000000000E+00 0. -1.
        -12    1    3    3    0    0 -0.28247251111E+02 -0.25738299920E+02 -0.40751666745E+03  0.40930453397E+03  0.00000000000E+00 0.  1.
          5    1    4    4  501    0 -0.39429855510E+02  0.55880191529E+02 -0.53607510942E+02  0.86997396170E+02  0.41800000000E+01 0.  1.
         -5    1    4    4    0  501  0.79080265201E+02  0.15351015331E+02 -0.72837963843E+02  0.10868386905E+03  0.41800000000E+01 0.  1.
</event>
<event>
11    1  0.1078607E-008  0.1406339E+03  0.7561462E-02  0.1106853E+00
         22   -1    0    0    0    0  0.00000000000E+00  0.00000000000E+00  0.91235101170E+03  0.91235101170E+03  0.00000000000E+00 0. -1.
         22   -1    0    0    0    0 -0.00000000000E+00 -0.00000000000E+00 -0.81278742359E+02  0.81278742359E+02  0.00000000000E+00 0. -1.
         24    2    1    2    0    0  0.43617965995E+02  0.39159391189E+02  0.39663479108E+00  0.99187116794E+02  0.80012136223E+02 0.  0.
         25    2    1    2    0    0 -0.66609392116E+02 -0.55640899196E+02  0.16913408208E+03  0.22756821105E+03  0.12509289419E+03 0.  0.
        -24    2    1    2    0    0  0.22991426121E+02  0.16481508007E+02  0.66154155247E+03  0.66687442622E+03  0.79271867144E+02 0.  0.
        -11    1    3    3    0    0  0.43715812702E+02  0.59669460410E+02  0.13015175291E+02  0.75106002248E+02  0.00000000000E+00 0.  1.
         12    1    3    3    0    0 -0.97846707383E-01 -0.20510069221E+02 -0.12618540500E+02  0.24081114546E+02  0.00000000000E+00 0. -1.
         13    1    5    5    0    0  0.53644986997E+01  0.47090409964E+02  0.43842066889E+03  0.44097501910E+03  0.00000000000E+00 0. -1.
        -14    1    5    5    0    0  0.17626927421E+02 -0.30608901957E+02  0.22312088358E+03  0.22589940712E+03  0.00000000000E+00 0.  1.
          5    1    4    4  501    0 -0.89607197279E+02  0.22728394407E+01  0.96403980277E+02  0.13170351330E+03  0.41800000000E+01 0. -1.
         -5    1    4    4    0  501  0.22997805163E+02 -0.57913738636E+02  0.72730101808E+02  0.95864697747E+02  0.41800000000E+01 0. -1.
</event>
<event>
11    1  0.1078607E-008  0.1749262E+03  0.7561462E-02  0.1073823E+00
         22   -1    0    0    0    0  0.00000000000E+00  0.00000000000E+00  0.62711606884E+03  0.62711606884E+03  0.00000000000E+00 0.  1.
         22   -1    0    0    0    0 -0.00000000000E+00 -0.00000000000E+00 -0.53553843304E+03  0.53553843304E+03  0.00000000000E+00 0. -1.
        -24    2    1    2    0    0 -0.94608566976E+02  0.80216434270E+02 -0.48407179412E+03  0.50576366878E+03  0.78012367730E+02 0.  0.
         25    2    1    2    0    0  0.65244187875E+02 -0.69061040982E+02  0.13348327374E+03  0.20614358770E+03  0.12510460802E+03 0.  0.
         24    2    1    2    0    0  0.29364379100E+02 -0.11155393287E+02  0.44216615619E+03  0.45074724540E+03  0.81703488307E+02 0.  0.
        -13    1    5    5    0    0  0.69323555371E+01 -0.34168796344E+02  0.37131392047E+03  0.37294717016E+03  0.00000000000E+00 0.  1.
         14    1    5    5    0    0  0.22432023563E+02  0.23013403057E+02  0.70852235718E+02  0.77800075242E+02  0.00000000000E+00 0. -1.
         13    1    3    3    0    0 -0.95967903799E+02  0.92725636182E+02 -0.42916370941E+03  0.44943227703E+03  0.00000000000E+00 0. -1.
        -14    1    3    3    0    0  0.13593368235E+01 -0.12509201913E+02 -0.54908084715E+02  0.56331391747E+02  0.00000000000E+00 0.  1.
          5    1    4    4  501    0  0.84477681428E+02 -0.89093713243E+02  0.12821657441E+03  0.17757007279E+03  0.41800000000E+01 0. -1.
         -5    1    4    4    0  501 -0.19233493552E+02  0.20032672261E+02  0.52666993310E+01  0.28573514904E+02  0.41800000000E+01 0. -1.
</event>
<event>
11    1  0.1078607E-008  0.1723341E+03  0.7561462E-02  0.1076018E+00
         22   -1    0    0    0    0  0.00000000000E+00  0.00000000000E+00  0.37795478148E+03  0.37795478148E+03  0.00000000000E+00 0. -1.
         22   -1    0    0    0    0 -0.00000000000E+00 -0.00000000000E+00 -0.20858175565E+04  0.20858175565E+04  0.00000000000E+00 0. -1.
        -24    2    1    2    0    0 -0.65829790289E+02 -0.41006708306E+02 -0.20049929216E+04  0.20081471086E+04  0.81505108091E+02 0.  0.
         25    2    1    2    0    0  0.21311899693E+01  0.13879147624E+03  0.10231246890E+03  0.21302342271E+03  0.12507406399E+03 0.  0.
         24    2    1    2    0    0  0.63698600320E+02 -0.97784767934E+02  0.19481767771E+03  0.24260180666E+03  0.85336607177E+02 0.  0.
        -11    1    5    5    0    0  0.58312465838E+02 -0.81961430711E+02  0.85507436602E+02  0.13202098890E+03  0.00000000000E+00 0.  1.
         12    1    5    5    0    0  0.53861344815E+01 -0.15823337223E+02  0.10931024110E+03  0.11058081776E+03  0.00000000000E+00 0. -1.
         13    1    3    3    0    0 -0.62158720993E+02 -0.63216663640E+02 -0.14598576144E+04  0.14625471984E+04  0.00000000000E+00 0. -1.
        -14    1    3    3    0    0 -0.36710692959E+01  0.22209955334E+02 -0.54513530724E+03  0.54559991025E+03  0.00000000000E+00 0.  1.
          5    1    4    4  501    0 -0.50431367242E+02  0.21312198469E+02  0.13341560496E+02  0.56506656616E+02  0.41800000000E+01 0.  1.
         -5    1    4    4    0  501  0.52562557211E+02  0.11747927777E+03  0.88970908408E+02  0.15651676610E+03  0.41800000000E+01 0.  1.
</event>
<event>
11    1  0.1078607E-008  0.3199236E+03  0.7561462E-02  0.9920947E-01
         22   -1    0    0    0    0  0.00000000000E+00  0.00000000000E+00  0.68807499220E+03  0.68807499220E+03  0.00000000000E+00 0.  1.
         22   -1    0    0    0    0 -0.00000000000E+00 -0.00000000000E+00 -0.25782386779E+03  0.25782386779E+03  0.00000000000E+00 0.  1.
         24    2    1    2    0    0  0.12528661347E+03  0.25048979390E+03 -0.59224955551E+01  0.29167061409E+03  0.81208366623E+02 0.  0.
         25    2    1    2    0    0 -0.21825246155E+03 -0.26279004750E+03  0.32452879419E+03  0.48750135513E+03  0.12508351992E+03 0.  0.
        -24    2    1    2    0    0  0.92965848078E+02  0.12300253606E+02  0.11164482577E+03  0.16672689077E+03  0.80866209493E+02 0.  0.
        -11    1    3    3    0    0  0.55484857718E+02  0.17630428137E+03 -0.29362727486E+02  0.18714683762E+03  0.00000000000E+00 0.  1.
         12    1    3    3    0    0  0.69801755752E+02  0.74185512523E+02  0.23440231930E+02  0.10452377647E+03  0.00000000000E+00 0. -1.
         13    1    5    5    0    0 -0.13369925277E+02  0.11100204519E+02  0.18170660418E+02  0.25142441057E+02  0.00000000000E+00 0. -1.
        -14    1    5    5    0    0  0.10633577336E+03  0.12000490876E+01  0.93474165348E+02  0.14158444971E+03  0.00000000000E+00 0.  1.
          5    1    4    4  501    0 -0.19683377907E+03 -0.26987792566E+03  0.27417237743E+03  0.43216385351E+03  0.41800000000E+01 0. -1.
         -5    1    4    4    0  501 -0.21418682482E+02  0.70878781560E+01  0.50356416760E+02  0.55337501614E+02  0.41800000000E+01 0. -1.
</event>
<event>
11    1  0.1078607E-008  0.1580138E+03  0.7561462E-02  0.1088960E+00
         22   -1    0    0    0    0  0.00000000000E+00  0.00000000000E+00  0.30169108758E+04  0.30169108758E+04  0.00000000000E+00 0.  1.
         22   -1    0    0    0    0 -0.00000000000E+00 -0.00000000000E+00 -0.38247492526E+03  0.38247492526E+03  0.00000000000E+00 0.  1.
        -24    2    1    2    0    0  0.18390731851E+02 -0.11589213815E+02 -0.26917773754E+03  0.28181117414E+03  0.80550323308E+02 0.  0.
         25    2    1    2    0    0  0.59121991600E+02 -0.46403870060E+02 -0.55352436495E+02  0.15607431429E+03  0.12508625147E+03 0.  0.
         24    2    1    2    0    0 -0.77512723452E+02  0.57993083875E+02  0.29589661246E+04  0.29615003126E+04  0.75047686313E+02 0.  0.
        -11    1    5    5    0    0 -0.28322577992E+02  0.56960234712E+02  0.22125999595E+04  0.22135142235E+04  0.00000000000E+00 0.  1.
         12    1    5    5    0    0 -0.49190145460E+02  0.10328491634E+01  0.74636616508E+03  0.74798608915E+03  0.00000000000E+00 0. -1.
         13    1    3    3    0    0  0.17481967727E+02  0.28349461792E+02 -0.57954905529E+02  0.66843715145E+02  0.00000000000E+00 0. -1.
        -14    1    3    3    0    0  0.90876412391E+00 -0.39938675607E+02 -0.21122283202E+03  0.21496745899E+03  0.00000000000E+00 0.  1.
          5    1    4    4  501    0  0.91015674079E+02 -0.19210507876E+02 -0.91649310986E+01  0.93564763148E+02  0.41800000000E+01 0.  1.
         -5    1    4    4    0  501 -0.31893682479E+02 -0.27193362184E+02 -0.46187505396E+02  0.62509551139E+02  0.41800000000E+01 0.  1.
</event>
<event>
11    1  0.1078607E-008  0.1549796E+03  0.7561462E-02  0.1091897E+00
         22   -1    0    0    0    0  0.00000000000E+00  0.00000000000E+00  0.80145283772E+03  0.80145283772E+03  0.00000000000E+00 0.  1.
         22   -1    0    0    0    0 -0.00000000000E+00 -0.00000000000E+00 -0.49666160853E+03  0.49666160853E+03  0.00000000000E+00 0.  1.
         24    2    1    2    0    0  0.55845565124E+01 -0.89380718171E+02 -0.41887386349E+03  0.43604430817E+03  0.81604075389E+02 0.  0.
         25    2    1    2    0    0 -0.19209129434E+02  0.11522575387E+03  0.43024178088E+02  0.17647917557E+03  0.12509138460E+03 0.  0.
        -24    2    1    2    0    0  0.13624572922E+02 -0.25845035703E+02  0.68064091459E+03  0.68559096252E+03  0.76872091283E+02 0.  0.
        -11    1    3    3    0    0 -0.77661235393E+01 -0.10195863599E+03 -0.36894398736E+03  0.38285185378E+03  0.00000000000E+00 0.  1.
         12    1    3    3    0    0  0.13350680052E+02  0.12577917818E+02 -0.49929876122E+02  0.53192454390E+02  0.00000000000E+00 0. -1.
         11    1    5    5    0    0  0.39923103701E+02  0.62686203627E+01  0.30574385069E+03  0.30840306751E+03  0.00000000000E+00 0. -1.
        -12    1    5    5    0    0 -0.26298530780E+02 -0.32113656065E+02  0.37489706389E+03  0.37718789501E+03  0.00000000000E+00 0.  1.
          5    1    4    4  501    0 -0.30206305642E+02  0.13483962433E+03  0.13169760451E+02  0.13887065990E+03  0.41800000000E+01 0. -1.
         -5    1    4    4    0  501  0.10997176208E+02 -0.19613870457E+02  0.29854417636E+02  0.37608515675E+02  0.41800000000E+01 0. -1.
</event>
<event>
11    1  0.1078607E-008  0.1760569E+03  0.7561462E-02  0.1072878E+00
         22   -1    0    0    0    0  0.00000000000E+00  0.00000000000E+00  0.16337513404E+04  0.16337513404E+04  0.00000000000E+00 0.  1.
         22   -1    0    0    0    0 -0.00000000000E+00 -0.00000000000E+00 -0.38023126291E+04  0.38023126291E+04  0.00000000000E+00 0.  1.
         24    2    1    2    0    0  0.11594961829E+03  0.32875363598E+02 -0.33218549488E+04  0.33250273292E+04  0.81002070372E+02 0.  0.
         25    2    1    2    0    0 -0.18764607675E+03  0.23826915879E+01 -0.45019249554E+03  0.50352507928E+03  0.12508994797E+03 0.  0.
        -24    2    1    2    0    0  0.71696458467E+02 -0.35258055186E+02  0.16034861556E+04  0.16075115610E+04  0.80882970217E+02 0.  0.
        -13    1    3    3    0    0  0.57879067255E+02 -0.13770632331E+02 -0.21404259461E+04  0.21412526351E+04  0.00000000000E+00 0.  1.
         14    1    3    3    0    0  0.58070551033E+02  0.46645995930E+02 -0.11814290027E+04  0.11837746940E+04  0.00000000000E+00 0. -1.
         13    1    5    5    0    0 -0.10435592588E+02 -0.27056962467E+02  0.29405943434E+03  0.29548592477E+03  0.00000000000E+00 0. -1.
        -14    1    5    5    0    0  0.82132051055E+02 -0.82010927194E+01  0.13094267213E+04  0.13120256362E+04  0.00000000000E+00 0.  1.
          5    1    4    4  501    0 -0.14738024187E+03 -0.41282621577E+02 -0.38944706138E+03  0.41846347099E+03  0.41800000000E+01 0. -1.
         -5    1    4    4    0  501 -0.40265834888E+02  0.43665313165E+02 -0.60745434156E+02  0.85061608284E+02  0.41800000000E+01 0. -1.
</event>
<event>
11    1  0.1078607E-008  0.2347879E+03  0.7561462E-02  0.1032330E+00
         22   -1    0    0    0    0  0.00000000000E+00  0.00000000000E+00  0.34322048054E+04  0.34322048054E+04  0.00000000000E+00 0.  1.
         22   -1    0    0    0    0 -0.00000000000E+00 -0.00000000000E+00 -0.13749912327E+04  0.13749912327E+04  0.00000000000E+00 0.  1.
         24    2    1    2    0    0  0.10246321525E+03  0.16867012146E+03 -0.13225859025E+04  0.13396746194E+04  0.80909184915E+02 0.  0.
         25    2    1    2    0    0 -0.15654241213E+03 -0.24323893761E+03  0.54095413485E+03  0.62606258761E+03  0.12510907250E+03 0.  0.
        -24    2    1    2    0    0  0.54079196884E+02  0.74568816141E+02  0.28388453404E+04  0.28414588310E+04  0.79751826511E+02 0.  0.
        -13    1    3    3    0    0 -0.48829586265E+01  0.44648284230E+02 -0.41123857594E+03  0.41368403270E+03  0.00000000000E+00 0.  1.
         14    1    3    3    0    0  0.10734617388E+03  0.12402183723E+03 -0.91134732654E+03  0.92599058675E+03  0.00000000000E+00 0. -1.
         11    1    5    5    0    0  0.40553529255E+02  0.29671462641E+02  0.59334237885E+03  0.59546634076E+03  0.00000000000E+00 0. -1.
        -12    1    5    5    0    0  0.13525667629E+02  0.44897353500E+02  0.22455029615E+04  0.22459924902E+04  0.00000000000E+00 0.  1.
          5    1    4    4  501    0 -0.16875370831E+03 -0.18453403599E+03  0.47507190110E+03  0.53688118622E+03  0.41800000000E+01 0.  1.
         -5    1    4    4    0  501  0.12211296174E+02 -0.58704901619E+02  0.65882233752E+02  0.89181401382E+02  0.41800000000E+01 0.  1.
</event>
<event>
11    1  0.1078607E-008  0.1336132E+03  0.7561462E-02  0.1114908E+00
         22   -1    0    0    0    0  0.00000000000E+00  0.00000000000E+00  0.52875118106E+03  0.52875118106E+03  0.00000000000E+00 0. -1.
         22   -1    0    0    0    0 -0.00000000000E+00 -0.00000000000E+00 -0.16280934700E+04  0.16280934700E+04  0.00000000000E+00 0. -1.
        -24    2    1    2    0    0 -0.48265236213E+01  0.18992161287E+02 -0.14171090258E+04  0.14193473671E+04  0.77233153566E+02 0.  0.
         25    2    1    2    0    0  0.14367083927E+02  0.27354490523E+02 -0.18534976246E+03  0.22573629391E+03  0.12509060194E+03 0.  0.
         24    2    1    2    0    0 -0.95405603053E+01 -0.46346651810E+02  0.50311649928E+03  0.51176099007E+03  0.80833561582E+02 0.  0.
        -11    1    5    5    0    0 -0.20232823310E+02  0.18529054022E+02  0.12560333352E+03  0.12856473223E+03  0.00000000000E+00 0.  1.
         12    1    5    5    0    0  0.10692263005E+02 -0.64875705832E+02  0.37751316577E+03  0.38319625784E+03  0.00000000000E+00 0. -1.
         11    1    3    3    0    0 -0.34331189484E+02  0.26920530845E+02 -0.10724196164E+04  0.10733066567E+04  0.00000000000E+00 0. -1.
        -12    1    3    3    0    0  0.29504665863E+02 -0.79283695580E+01 -0.34468940933E+03  0.34604071041E+03  0.00000000000E+00 0.  1.
          5    1    4    4  501    0 -0.26445992616E+02 -0.32081841486E+02 -0.12441043281E+03  0.13124047878E+03  0.41800000000E+01 0. -1.
         -5    1    4    4    0  501  0.40813076542E+02  0.59436332009E+02 -0.60939329645E+02  0.94495815130E+02  0.41800000000E+01 0. -1.
</event>
<event>
11    1  0.1078607E-008  0.1314198E+03  0.7561462E-02  0.1117537E+00
         22   -1    0    0    0    0  0.00000000000E+00  0.00000000000E+00  0.32151511034E+03  0.32151511034E+03  0.00000000000E+00 0. -1.
         22   -1    0    0    0    0 -0.00000000000E+00 -0.00000000000E+00 -0.68996478290E+03  0.68996478290E+03  0.00000000000E+00 0.  1.
         24    2    1    2    0    0  0.24444796951E+02  0.23134666386E+01 -0.37151054911E+03  0.37933187745E+03  0.72592595515E+02 0.  0.
         25    2    1    2    0    0 -0.38415821505E+02 -0.39885639080E+02 -0.29277921011E+03  0.32316009351E+03  0.12508453388E+03 0.  0.
        -24    2    1    2    0    0  0.13971024554E+02  0.37572172442E+02  0.29584008667E+03  0.30898792227E+03  0.79657526717E+02 0.  0.
        -13    1    3    3    0    0  0.32830964425E+01  0.86965219965E+00 -0.34659033374E+03  0.34660697405E+03  0.00000000000E+00 0.  1.
         14    1    3    3    0    0  0.21161700509E+02  0.14438144389E+01 -0.24920215373E+02  0.32724903404E+02  0.00000000000E+00 0. -1.
         13    1    5    5    0    0 -0.13591239933E+02  0.42456297334E+02  0.25852798038E+03  0.26234324010E+03  0.00000000000E+00 0. -1.
        -14    1    5    5    0    0  0.27562264487E+02 -0.48841248922E+01  0.37312106287E+02  0.46644682175E+02  0.00000000000E+00 0.  1.
          5    1    4    4  501    0  0.37309567463E+02 -0.34696113457E+02 -0.62991785311E+02  0.81124974761E+02  0.41800000000E+01 0. -1.
         -5    1    4    4    0  501 -0.75725388968E+02 -0.51895256233E+01 -0.22978742480E+03  0.24203511875E+03  0.41800000000E+01 0. -1.
</event>
<event>
11    1  0.1078607E-008  0.2509047E+03  0.7561462E-02  0.1023418E+00
         22   -1    0    0    0    0  0.00000000000E+00  0.00000000000E+00  0.14192699788E+04  0.14192699788E+04  0.00000000000E+00 0. -1.
         22   -1    0    0    0    0 -0.00000000000E+00 -0.00000000000E+00 -0.27185272122E+03  0.27185272122E+03  0.00000000000E+00 0.  1.
        -24    2    1    2    0    0  0.10791733916E+02  0.59626577454E+02 -0.15944750434E+03  0.18833165541E+03  0.79834300459E+02 0.  0.
         25    2    1    2    0    0 -0.22663246080E+02  0.16416383941E+03  0.37042885124E+02  0.21093163012E+03  0.12512628961E+03 0.  0.
         24    2    1    2    0    0  0.11871512165E+02 -0.22379041687E+03  0.12698218768E+04  0.12918594145E+04  0.78930757964E+02 0.  0.
        -11    1    5    5    0    0  0.73757907124E+01 -0.14305322513E+02  0.26159757852E+03  0.26209223115E+03  0.00000000000E+00 0.  1.
         12    1    5    5    0    0  0.44957214522E+01 -0.20948509436E+03  0.10082242983E+04  0.10297671834E+04  0.00000000000E+00 0. -1.
         13    1    3    3    0    0  0.20353781360E+02  0.46593033910E+02 -0.32467421075E+02  0.60326782244E+02  0.00000000000E+00 0. -1.
        -14    1    3    3    0    0 -0.95620474446E+01  0.13033543544E+02 -0.12698008326E+03  0.12800487317E+03  0.00000000000E+00 0.  1.
          5    1    4    4  501    0  0.21472641380E+01 -0.19455783625E+02  0.13417609938E+02  0.24096533282E+02  0.41800000000E+01 0.  1.
         -5    1    4    4    0  501 -0.24810510218E+02  0.18361962304E+03  0.23625275186E+02  0.18683509684E+03  0.41800000000E+01 0.  1.
</event>
<event>
11    1  0.1078607E-008  0.1954445E+03  0.7561462E-02  0.1057793E+00
         22   -1    0    0    0    0  0.00000000000E+00  0.00000000000E+00  0.21572900366E+03  0.21572900366E+03  0.00000000000E+00 0.  1.
         22   -1    0    0    0    0 -0.00000000000E+00 -0.00000000000E+00 -0.32686830678E+04  0.32686830678E+04  0.00000000000E+00 0. -1.
         24    2    1    2    0    0  0.23606372065E+02  0.45974971200E+02 -0.19579934133E+04  0.19603225301E+04  0.80344614082E+02 0.  0.
         25    2    1    2    0    0  0.27095516355E+02 -0.18631579557E+03 -0.12643637906E+04  0.12844111234E+04  0.12509355060E+03 0.  0.
        -24    2    1    2    0    0 -0.50701888419E+02  0.14034082437E+03  0.16940313970E+03  0.23967841787E+03  0.80511438797E+02 0.  0.
        -11    1    3    3    0    0 -0.13598097176E+02  0.43642773144E+01 -0.66984051825E+02  0.68489549291E+02  0.00000000000E+00 0.  1.
         12    1    3    3    0    0  0.37204469241E+02  0.41610693886E+02 -0.18910093614E+04  0.18918329809E+04  0.00000000000E+00 0. -1.
         13    1    5    5    0    0 -0.37843045961E+01 -0.20426288043E+01 -0.69768954784E+01  0.81957528163E+01  0.00000000000E+00 0. -1.
        -14    1    5    5    0    0 -0.46917583823E+02  0.14238345318E+03  0.17638003518E+03  0.23148266506E+03  0.00000000000E+00 0.  1.
          5    1    4    4  501    0 -0.30149514582E+02 -0.11089765227E+03 -0.44639160038E+03  0.46096661028E+03  0.41800000000E+01 0.  1.
         -5    1    4    4    0  501  0.57245030937E+02 -0.75418143307E+02 -0.81797219018E+03  0.82344451314E+03  0.41800000000E+01 0.  1.
</event>
<event>
11    1  0.1078607E-008  0.1357602E+03  0.7561462E-02  0.1112387E+00
         22   -1    0    0    0    0  0.00000000000E+00  0.00000000000E+00  0.16808690243E+04  0.16808690243E+04  0.00000000000E+00 0.  1.
         22   -1    0    0    0    0 -0.00000000000E+00 -0.00000000000E+00 -0.27403470187E+02  0.27403470187E+02  0.00000000000E+00 0. -1.
         24    2    1    2    0    0  0.45087703863E+02  0.18375440505E+02  0.90786938858E+02  0.12570790495E+03  0.72039234069E+02 0.  0.
         25    2    1    2    0    0 -0.73939052104E+02 -0.26719089841E+02  0.68152273833E+03  0.69735439208E+03  0.12509601153E+03 0.  0.
        -24    2    1    2    0    0  0.28851348240E+02  0.83436493362E+01  0.88115587690E+03  0.88521019744E+03  0.79116354039E+02 0.  0.
        -13    1    3    3    0    0  0.44391577087E+02  0.39088928761E+01  0.99347098178E+02  0.10888405520E+03  0.00000000000E+00 0.  1.
         14    1    3    3    0    0  0.69612677606E+00  0.14466547629E+02 -0.85601593197E+01  0.16823849749E+02  0.00000000000E+00 0. -1.
         11    1    5    5    0    0  0.28767225389E+01  0.37272449815E+02  0.24174190294E+03  0.24461532798E+03  0.00000000000E+00 0. -1.
        -12    1    5    5    0    0  0.25974625701E+02 -0.28928800479E+02  0.63941397396E+03  0.64059486946E+03  0.00000000000E+00 0.  1.
          5    1    4    4  501    0 -0.79726839545E+02 -0.25108280096E+02  0.21412719485E+03  0.22990154990E+03  0.41800000000E+01 0. -1.
         -5    1    4    4    0  501  0.57877874415E+01 -0.16108097453E+01  0.46739554349E+03  0.46745284218E+03  0.41800000000E+01 0. -1.
</event>
<event>
11    1  0.1078607E-008  0.1404624E+03  0.7561462E-02  0.1107043E+00
         22   -1    0    0    0    0  0.00000000000E+00  0.00000000000E+00  0.48385346849E+03  0.48385346849E+03  0.00000000000E+00 0. -1.
         22   -1    0    0    0    0 -0.00000000000E+00 -0.00000000000E+00 -0.25064975947E+03  0.25064975947E+03  0.00000000000E+00 0. -1.
         24    2    1    2    0    0  0.58198541606E+02  0.21192825452E+01 -0.15316498115E+03  0.17863276488E+03  0.71123776845E+02 0.  0.
         25    2    1    2    0    0 -0.10654000587E+03 -0.37745043380E+02  0.12883087137E+02  0.16908848100E+03  0.12509787897E+03 0.  0.
        -24    2    1    2    0    0  0.48341464268E+02  0.35625760835E+02  0.37348560303E+03  0.38678198208E+03  0.80639407136E+02 0.  0.
        -13    1    3    3    0    0  0.44002343461E+02 -0.18958153460E+02 -0.39306241455E+02  0.61972561912E+02  0.00000000000E+00 0.  1.
         14    1    3    3    0    0  0.14196198145E+02  0.21077436005E+02 -0.11385873970E+03  0.11666020296E+03  0.00000000000E+00 0. -1.
         13    1    5    5    0    0  0.57163407769E+02  0.15780389788E+02  0.34921017065E+03  0.35420956957E+03  0.00000000000E+00 0. -1.
        -14    1    5    5    0    0 -0.88219435012E+01  0.19845371047E+02  0.24275432385E+02  0.32572412508E+02  0.00000000000E+00 0.  1.
          5    1    4    4  501    0 -0.85732501603E+02 -0.59229066867E+02  0.54500482741E+02  0.11766868408E+03  0.41800000000E+01 0.  1.
         -5    1    4    4    0  501 -0.20807504271E+02  0.21484023487E+02 -0.41617395604E+02  0.51419796927E+02  0.41800000000E+01 0.  1.
</event>
<event>
11    1  0.1078607E-008  0.1264257E+03  0.7561462E-02  0.1123740E+00
         22   -1    0    0    0    0  0.00000000000E+00  0.00000000000E+00  0.25327121919E+03  0.25327121919E+03  0.00000000000E+00 0. -1.
         22   -1    0    0    0    0 -0.00000000000E+00 -0.00000000000E+00 -0.88669863682E+03  0.88669863682E+03  0.00000000000E+00 0. -1.
        -24    2    1    2    0    0  0.13745823320E+02 -0.14228725817E+02 -0.76131803657E+03  0.76575710107E+03  0.79921090648E+02 0.  0.
         25    2    1    2    0    0  0.71390061994E+01  0.12878158518E+01 -0.81626546837E+02  0.14954300870E+03  0.12509034505E+03 0.  0.
         24    2    1    2    0    0 -0.20884829519E+02  0.12940909965E+02  0.20951716577E+03  0.22466974624E+03  0.77300768861E+02 0.  0.
        -11    1    5    5    0    0  0.20625621771E+02  0.85721796291E-01  0.15380586920E+02  0.25729090067E+02  0.00000000000E+00 0.  1.
         12    1    5    5    0    0 -0.41510451290E+02  0.12855188169E+02  0.19413657885E+03  0.19894065617E+03  0.00000000000E+00 0. -1.
         13    1    3    3    0    0 -0.22256039645E+02 -0.27337365985E+02 -0.53981859141E+03  0.54096836739E+03  0.00000000000E+00 0. -1.
        -14    1    3    3    0    0  0.36001862964E+02  0.13108640168E+02 -0.22149944516E+03  0.22478873368E+03  0.00000000000E+00 0.  1.
          5    1    4    4  501    0  0.48139530905E+02  0.43210418960E+02 -0.54975774629E+02  0.84996252497E+02  0.41800000000E+01 0. -1.
         -5    1    4    4    0  501 -0.41000524705E+02 -0.41922603108E+02 -0.26650772208E+02  0.64546756206E+02  0.41800000000E+01 0. -1.
</event>
<event>
11    1  0.2233844E-008  0.1654322E+03  0.7561462E-02  0.1082077E+00
         22   -1    0    0    0    0  0.00000000000E+00  0.00000000000E+00  0.13342282759E+04  0.13342282759E+04  0.00000000000E+00 0.  1.
         22   -1    0    0    0    0 -0.00000000000E+00 -0.00000000000E+00 -0.40388316965E+03  0.40388316965E+03  0.00000000000E+00 0. -1.
         24    2    1    2    0    0 -0.71572095504E+02 -0.61226345030E+02 -0.24832941298E+03  0.28540383569E+03  0.10448263919E+03 0.  0.
         25    2    1    2    0    0  0.12798758055E+03  0.11538619602E+03 -0.50114766817E+02  0.21875459359E+03  0.12508911766E+03 0.  0.
        -24    2    1    2    0    0 -0.56415485044E+02 -0.54159850985E+02  0.12287892860E+04  0.12339530163E+04  0.81246172008E+02 0.  0.
        -11    1    3    3    0    0  0.14378541261E+02 -0.10817167653E+02 -0.17742709486E+00  0.17994028042E+02  0.00000000000E+00 0.  1.
         12    1    3    3    0    0 -0.85950636764E+02 -0.50409177378E+02 -0.24815198589E+03  0.26740980764E+03  0.00000000000E+00 0. -1.
         11    1    5    5    0    0 -0.30936834598E+02  0.82932158734E+01  0.16828389295E+03  0.17130479792E+03  0.00000000000E+00 0. -1.
        -12    1    5    5    0    0 -0.25478650446E+02 -0.62453066858E+02  0.10605053931E+04  0.10626482183E+04  0.00000000000E+00 0.  1.
          5    1    4    4  501    0  0.11027979054E+03  0.24303370442E+02 -0.55135805825E+02  0.12573669115E+03  0.41800000000E+01 0. -1.
         -5    1    4    4    0  501  0.17707790006E+02  0.91082825573E+02  0.50210390079E+01  0.93017902438E+02  0.41800000000E+01 0. -1.
</event>
<event>
11    1  0.1078607E-008  0.1601898E+03  0.7561462E-02  0.1086899E+00
         22   -1    0    0    0    0  0.00000000000E+00  0.00000000000E+00  0.42309950622E+03  0.42309950622E+03  0.00000000000E+00 0. -1.
         22   -1    0    0    0    0 -0.00000000000E+00 -0.00000000000E+00 -0.55279438211E+03  0.55279438211E+03  0.00000000000E+00 0. -1.
        -24    2    1    2    0    0 -0.67326583849E+02 -0.42291723232E+02 -0.33969702673E+03  0.36061355979E+03  0.91250264595E+02 0.  0.
         25    2    1    2    0    0  0.42247338045E+02 -0.57779379356E+02 -0.16442491613E+03  0.21864644312E+03  0.12508964704E+03 0.  0.
         24    2    1    2    0    0  0.25079245803E+02  0.10007110259E+03  0.37442706697E+03  0.39663388542E+03  0.80496064731E+02 0.  0.
        -11    1    5    5    0    0 -0.10818771465E+02 -0.85397540769E+01  0.20684597918E+02  0.24856102002E+02  0.00000000000E+00 0.  1.
         12    1    5    5    0    0  0.35898017268E+02  0.10861085667E+03  0.35374246906E+03  0.37177778342E+03  0.00000000000E+00 0. -1.
         13    1    3    3    0    0 -0.81542517056E+02 -0.51883878581E+02 -0.32103741695E+03  0.33527025223E+03  0.00000000000E+00 0. -1.
        -14    1    3    3    0    0  0.14215933207E+02  0.95921553488E+01 -0.18659609773E+02  0.25343307560E+02  0.00000000000E+00 0.  1.
          5    1    4    4  501    0 -0.19872180914E+02 -0.76446616566E+02 -0.88250590594E+02  0.11851003290E+03  0.41800000000E+01 0.  1.
         -5    1    4    4    0  501  0.62119518960E+02  0.18667237209E+02 -0.76174325537E+02  0.10013641022E+03  0.41800000000E+01 0.  1.
</event>
<event>
11    1  0.1078607E-008  0.1600155E+03  0.7561462E-02  0.1087063E+00
         22   -1    0    0    0    0  0.00000000000E+00  0.00000000000E+00  0.50062435229E+03  0.50062435229E+03  0.00000000000E+00 0. -1.
         22   -1    0    0    0    0 -0.00000000000E+00 -0.00000000000E+00 -0.33101648760E+03  0.33101648760E+03  0.00000000000E+00 0.  1.
         24    2    1    2    0    0 -0.44244015302E+02  0.17842535829E+02 -0.22876758450E+03  0.24648531619E+03  0.78386953025E+02 0.  0.
         25    2    1    2    0    0  0.93350084016E+02 -0.99915409056E+02  0.19711634624E+02  0.18636898863E+03  0.12509006448E+03 0.  0.
        -24    2    1    2    0    0 -0.49106068715E+02  0.82072873227E+02  0.37866381457E+03  0.39878653506E+03  0.80604302461E+02 0.  0.
        -13    1    3    3    0    0 -0.50660508102E+02  0.16225990935E+02 -0.23275720132E+03  0.23875863258E+03  0.00000000000E+00 0.  1.
         14    1    3    3    0    0  0.64164928007E+01  0.16165448941E+01  0.39896168224E+01  0.77266836124E+01  0.00000000000E+00 0. -1.
         11    1    5    5    0    0 -0.68779658597E+02  0.79297838234E+02  0.30887939262E+03  0.32622885797E+03  0.00000000000E+00 0. -1.
        -12    1    5    5    0    0  0.19673589882E+02  0.27750349932E+01  0.69784421949E+02  0.72557677091E+02  0.00000000000E+00 0.  1.
          5    1    4    4  501    0 -0.28457259932E+02 -0.10318815658E+02 -0.10115263340E+02  0.32188267302E+02  0.41800000000E+01 0.  1.
         -5    1    4    4    0  501  0.12180734395E+03 -0.89596593398E+02  0.29826897964E+02  0.15418072133E+03  0.41800000000E+01 0.  1.
</event>
<event>
11    1  0.1078607E-008  0.1859316E+03  0.7561462E-02  0.1064943E+00
         22   -1    0    0    0    0  0.00000000000E+00  0.00000000000E+00  0.33474076793E+03  0.33474076793E+03  0.00000000000E+00 0. -1.
         22   -1    0    0    0    0 -0.00000000000E+00 -0.00000000000E+00 -0.89936769317E+03  0.89936769317E+03  0.00000000000E+00 0.  1.
        -24    2    1    2    0    0  0.67144237834E+02  0.30601880863E+02 -0.71616736737E+03  0.72440960070E+03  0.80179471943E+02 0.  0.
         25    2    1    2    0    0 -0.12995103749E+03 -0.14385117466E+03 -0.69343832051E+02  0.24090824867E+03  0.12509110535E+03 0.  0.
         24    2    1    2    0    0  0.62806799652E+02  0.11324929380E+03  0.22088427418E+03  0.26879061172E+03  0.81782845026E+02 0.  0.
        -11    1    5    5    0    0 -0.19854579616E+02  0.15907611732E+02  0.35238991407E+02  0.43463121817E+02  0.00000000000E+00 0.  1.
         12    1    5    5    0    0  0.82661379268E+02  0.97341682068E+02  0.18564528277E+03  0.22532748990E+03  0.00000000000E+00 0. -1.
         11    1    3    3    0    0  0.93530917802E+01  0.19038099593E+02 -0.36684363387E+02  0.42375371138E+02  0.00000000000E+00 0. -1.
        -12    1    3    3    0    0  0.57791146054E+02  0.11563781271E+02 -0.67948300398E+03  0.68203422957E+03  0.00000000000E+00 0.  1.
          5    1    4    4  501    0 -0.16901106645E+02 -0.52606415402E+02 -0.77578758552E+02  0.95336344202E+02  0.41800000000E+01 0. -1.
         -5    1    4    4    0  501 -0.11304993084E+03 -0.91244759261E+02  0.82349265005E+01  0.14557190447E+03  0.41800000000E+01 0. -1.
</event>
<event>
11    1  0.1078607E-008  0.1532673E+03  0.7561462E-02  0.1093586E+00
         22   -1    0    0    0    0  0.00000000000E+00  0.00000000000E+00  0.31196283575E+04  0.31196283575E+04  0.00000000000E+00 0. -1.
         22   -1    0    0    0    0 -0.00000000000E+00 -0.00000000000E+00 -0.55183022171E+02  0.55183022171E+02  0.00000000000E+00 0.  1.
        -24    2    1    2    0    0  0.34589800106E+01 -0.92974765832E+02  0.40110848685E+02  0.12916750661E+03  0.80119242121E+02 0.  0.
         25    2    1    2    0    0  0.14403411888E+02  0.62504969991E+02  0.48929771917E+03  0.50909161666E+03  0.12509071360E+03 0.  0.
         24    2    1    2    0    0 -0.17862391898E+02  0.30469795840E+02  0.25350367674E+04  0.25365522564E+04  0.80240036466E+02 0.  0.
        -13    1    5    5    0    0  0.52212756481E+00  0.56062510014E+02  0.15660714697E+04  0.15670747033E+04  0.00000000000E+00 0.  1.
         14    1    5    5    0    0 -0.18384519463E+02 -0.25592714174E+02  0.96896529775E+03  0.96947755302E+03  0.00000000000E+00 0. -1.
         13    1    3    3    0    0 -0.10804018354E+01 -0.44484677845E+02  0.61554131044E+02  0.75953702211E+02  0.00000000000E+00 0. -1.
        -14    1    3    3    0    0  0.45393818459E+01 -0.48490087987E+02 -0.21443282359E+02  0.53213804401E+02  0.00000000000E+00 0.  1.
          5    1    4    4  501    0 -0.22207334323E+02  0.67599067368E+02  0.13333306776E+03  0.15118855435E+03  0.41800000000E+01 0.  1.
         -5    1    4    4    0  501  0.36610746211E+02 -0.50940973763E+01  0.35596465140E+03  0.35790306232E+03  0.41800000000E+01 0.  1.
</event>
<event>
11    1  0.1078607E-008  0.1923104E+03  0.7561462E-02  0.1060099E+00
         22   -1    0    0    0    0  0.00000000000E+00  0.00000000000E+00  0.30042691016E+03  0.30042691016E+03  0.00000000000E+00 0. -1.
         22   -1    0    0    0    0 -0.00000000000E+00 -0.00000000000E+00 -0.19889853728E+04  0.19889853728E+04  0.00000000000E+00 0. -1.
        -24    2    1    2    0    0  0.47881632893E+02  0.88502883103E+01 -0.15855500748E+04  0.15884015051E+04  0.81727126411E+02 0.  0.
         25    2    1    2    0    0 -0.87024180264E+02 -0.14815341137E+03 -0.34683284101E+03  0.40677076610E+03  0.12508715083E+03 0.  0.
         24    2    1    2    0    0  0.39142547371E+02  0.13930312306E+03  0.24382445317E+03  0.29424001180E+03  0.78672240773E+02 0.  0.
        -11    1    5    5    0    0  0.39797035800E+02  0.80579260394E+02  0.80407907972E+02  0.12059126390E+03  0.00000000000E+00 0.  1.
         12    1    5    5    0    0 -0.65448842833E+00  0.58723862667E+02  0.16341654520E+03  0.17364874790E+03  0.00000000000E+00 0. -1.
         11    1    3    3    0    0  0.32165377217E+02  0.20871073830E+02 -0.15038814229E+04  0.15043701497E+04  0.00000000000E+00 0. -1.
        -12    1    3    3    0    0  0.15716255676E+02 -0.12020785519E+02 -0.81668651921E+02  0.84031355360E+02  0.00000000000E+00 0.  1.
          5    1    4    4  501    0 -0.11082395203E+03 -0.92097452366E+02 -0.28763611666E+03  0.32173886474E+03  0.41800000000E+01 0.  1.
         -5    1    4    4    0  501  0.23799771764E+02 -0.56055959005E+02 -0.59196724347E+02  0.85031901363E+02  0.41800000000E+01 0.  1.
</event>
<event>
11    1  0.1078607E-008  0.1482097E+03  0.7561462E-02  0.1098722E+00
         22   -1    0    0    0    0  0.00000000000E+00  0.00000000000E+00  0.11854431807E+03  0.11854431807E+03  0.00000000000E+00 0. -1.
         22   -1    0    0    0    0 -0.00000000000E+00 -0.00000000000E+00 -0.49464137602E+03  0.49464137602E+03  0.00000000000E+00 0.  1.
         24    2    1    2    0    0  0.50483310137E+01 -0.13199289390E+02 -0.22378292764E+03  0.23834358185E+03  0.80803201793E+02 0.  0.
         25    2    1    2    0    0 -0.42142570686E+01  0.90845968919E+02 -0.20038355574E+03  0.25312378897E+03  0.12508930051E+03 0.  0.
        -24    2    1    2    0    0 -0.83407394512E+00 -0.77646679529E+02  0.48069425426E+02  0.12171832327E+03  0.80467248226E+02 0.  0.
        -11    1    3    3    0    0 -0.34281204827E+01 -0.38515103542E+02 -0.53670473617E+02  0.66148960303E+02  0.00000000000E+00 0.  1.
         12    1    3    3    0    0  0.84764514965E+01  0.25315814153E+02 -0.17011245402E+03  0.17219462155E+03  0.00000000000E+00 0. -1.
         13    1    5    5    0    0  0.38260040061E+02 -0.53828438337E+02  0.28987931045E+02  0.72122337632E+02  0.00000000000E+00 0. -1.
        -14    1    5    5    0    0 -0.39094114006E+02 -0.23818241193E+02  0.19081494380E+02  0.49595985636E+02  0.00000000000E+00 0.  1.
          5    1    4    4  501    0  0.37868042643E+02  0.21591532615E+02 -0.15302935775E+03  0.15917173011E+03  0.41800000000E+01 0.  1.
         -5    1    4    4    0  501 -0.42082299712E+02  0.69254436304E+02 -0.47354197990E+02  0.93952058860E+02  0.41800000000E+01 0.  1.
</event>
<event>
11    1  0.1078607E-008  0.2099222E+03  0.7561462E-02  0.1047721E+00
         22   -1    0    0    0    0  0.00000000000E+00  0.00000000000E+00  0.45643683162E+03  0.45643683162E+03  0.00000000000E+00 0.  1.
         22   -1    0    0    0    0 -0.00000000000E+00 -0.00000000000E+00 -0.16606494828E+04  0.16606494828E+04  0.00000000000E+00 0. -1.
         24    2    1    2    0    0  0.12945306604E+03 -0.10248916056E+02 -0.14933753003E+04  0.15011286535E+04  0.79713926345E+02 0.  0.
         25    2    1    2    0    0 -0.22341607020E+03 -0.11555076421E+03  0.46819718281E+01  0.28095553178E+03  0.12508944978E+03 0.  0.
        -24    2    1    2    0    0  0.93963004167E+02  0.12579968026E+03  0.28448067733E+03  0.33500212916E+03  0.81501932868E+02 0.  0.
        -13    1    3    3    0    0 -0.65170593909E+01  0.12553739364E+02 -0.17188367953E+03  0.17246468544E+03  0.00000000000E+00 0.  1.
         14    1    3    3    0    0  0.13597012543E+03 -0.22802655420E+02 -0.13214916208E+04  0.13286639680E+04  0.00000000000E+00 0. -1.
         11    1    5    5    0    0 -0.80282160971E+01  0.13426140404E+02  0.73293735902E+02  0.74944547649E+02  0.00000000000E+00 0. -1.
        -12    1    5    5    0    0  0.10199122026E+03  0.11237353986E+03  0.21118694142E+03  0.26005758151E+03  0.00000000000E+00 0.  1.
          5    1    4    4  501    0 -0.23062958161E+03 -0.12806061753E+03  0.12268185237E+02  0.26411646379E+03  0.41800000000E+01 0.  1.
         -5    1    4    4    0  501  0.72135114046E+01  0.12509853326E+02 -0.75862134091E+01  0.16839067994E+02  0.41800000000E+01 0.  1.
</event>
<event>
11    1  0.1078607E-008  0.1354154E+03  0.7561462E-02  0.1112789E+00
         22   -1    0    0    0    0  0.00000000000E+00  0.00000000000E+00  0.18568231877E+04  0.18568231877E+04  0.00000000000E+00 0. -1.
         22   -1    0    0    0    0 -0.00000000000E+00 -0.00000000000E+00 -0.14292777895E+04  0.14292777895E+04  0.00000000000E+00 0. -1.
         24    2    1    2    0    0 -0.46260480915E+02 -0.23687430503E+02 -0.14102690319E+04  0.14134645159E+04  0.79511438275E+02 0.  0.
         25    2    1    2    0    0  0.17097221193E+02  0.40694060609E+02  0.25591241030E+03  0.28824764307E+03  0.12508885021E+03 0.  0.
        -24    2    1    2    0    0  0.29163259722E+02 -0.17006630106E+02  0.15819020199E+04  0.15843888183E+04  0.82062207403E+02 0.  0.
        -11    1    3    3    0    0 -0.16201822313E+02 -0.28585921388E+02 -0.19033357660E+03  0.19314896927E+03  0.00000000000E+00 0.  1.
         12    1    3    3    0    0 -0.30058658602E+02  0.48984908853E+01 -0.12199354553E+04  0.12203155466E+04  0.00000000000E+00 0. -1.
         13    1    5    5    0    0  0.52466947930E+02 -0.25651990086E+02  0.13251943444E+04  0.13264806277E+04  0.00000000000E+00 0. -1.
        -14    1    5    5    0    0 -0.23303688208E+02  0.86453599801E+01  0.25670767549E+03  0.25790819062E+03  0.00000000000E+00 0.  1.
          5    1    4    4  501    0 -0.43622494122E+02 -0.48919695430E+01  0.40740928729E+02  0.60034565319E+02  0.41800000000E+01 0. -1.
         -5    1    4    4    0  501  0.60719715315E+02  0.45586030152E+02  0.21517148157E+03  0.22821307775E+03  0.41800000000E+01 0. -1.
</event>
<event>
11    1  0.1078607E-008  0.1355340E+03  0.7561462E-02  0.1112650E+00
         22   -1    0    0    0    0  0.00000000000E+00  0.00000000000E+00  0.87559883934E+03  0.87559883934E+03  0.00000000000E+00 0. -1.
         22   -1    0    0    0    0 -0.00000000000E+00 -0.00000000000E+00 -0.12236079345E+04  0.12236079345E+04  0.00000000000E+00 0.  1.
         24    2    1    2    0    0 -0.40039581174E+02  0.14166602230E+02 -0.10364592454E+04  0.10407257467E+04  0.84014593604E+02 0.  0.
         25    2    1    2    0    0  0.18528947043E+02 -0.61752583847E+02 -0.15517192866E+03  0.20948133207E+03  0.12508955812E+03 0.  0.
        -24    2    1    2    0    0  0.21510634131E+02  0.47585981616E+02  0.84362207890E+03  0.84899969501E+03  0.79844455577E+02 0.  0.
        -13    1    3    3    0    0 -0.33217048009E+01 -0.82323244022E+01 -0.81930167324E+03  0.81934976454E+03  0.00000000000E+00 0.  1.
         14    1    3    3    0    0 -0.36717876373E+02  0.22398926633E+02 -0.21715757213E+03  0.22137598220E+03  0.00000000000E+00 0. -1.
         11    1    5    5    0    0  0.16483854643E+02  0.55569153782E+02  0.83206339916E+03  0.83407982144E+03  0.00000000000E+00 0. -1.
        -12    1    5    5    0    0  0.50267794881E+01 -0.79831721655E+01  0.11558679742E+02  0.14919873566E+02  0.00000000000E+00 0.  1.
          5    1    4    4  501    0 -0.30797531872E+02 -0.38994703178E+02 -0.14593597331E+03  0.15422015287E+03  0.41800000000E+01 0. -1.
         -5    1    4    4    0  501  0.49326478914E+02 -0.22757880668E+02 -0.92359553470E+01  0.55261179193E+02  0.41800000000E+01 0. -1.
</event>
<event>
11    1  0.1078607E-008  0.1371081E+03  0.7561462E-02  0.1110831E+00
         22   -1    0    0    0    0  0.00000000000E+00  0.00000000000E+00  0.39173990981E+03  0.39173990981E+03  0.00000000000E+00 0. -1.
         22   -1    0    0    0    0 -0.00000000000E+00 -0.00000000000E+00 -0.62026374752E+03  0.62026374752E+03  0.00000000000E+00 0.  1.
        -24    2    1    2    0    0  0.38826444802E+02  0.89400759251E+01 -0.52687101805E+03  0.53444218812E+03  0.80299221757E+02 0.  0.
         25    2    1    2    0    0 -0.10906826448E+02  0.42085055843E+02 -0.29496385288E+02  0.13567373806E+03  0.12508883109E+03 0.  0.
         24    2    1    2    0    0 -0.27919618354E+02 -0.51025131768E+02  0.32784356563E+03  0.34188773115E+03  0.77606365863E+02 0.  0.
        -11    1    5    5    0    0  0.21613904194E+02 -0.41128672379E+02  0.15940346078E+03  0.16603671840E+03  0.00000000000E+00 0.  1.
         12    1    5    5    0    0 -0.49533522548E+02 -0.98964593883E+01  0.16844010485E+03  0.17585101275E+03  0.00000000000E+00 0. -1.
         13    1    3    3    0    0 -0.54134725797E+01 -0.13737133772E+02 -0.18611323428E+02  0.23757017687E+02  0.00000000000E+00 0. -1.
        -14    1    3    3    0    0  0.44239917382E+02  0.22677209697E+02 -0.50825969462E+03  0.51068517044E+03  0.00000000000E+00 0.  1.
          5    1    4    4  501    0  0.45357825865E+01 -0.41027472541E+02  0.93773620716E+01  0.42535093113E+02  0.41800000000E+01 0. -1.
         -5    1    4    4    0  501 -0.15442609035E+02  0.83112528383E+02 -0.38873747359E+02  0.93138644943E+02  0.41800000000E+01 0. -1.
</event>
<event>
11    1  0.1078607E-008  0.1781944E+03  0.7561462E-02  0.1071113E+00
         22   -1    0    0    0    0  0.00000000000E+00  0.00000000000E+00  0.65780719220E+03  0.65780719220E+03  0.00000000000E+00 0. -1.
         22   -1    0    0    0    0 -0.00000000000E+00 -0.00000000000E+00 -0.10978404910E+03  0.10978404910E+03  0.00000000000E+00 0.  1.
        -24    2    1    2    0    0 -0.33254960166E+02 -0.34946541263E+02  0.47928566423E+02  0.10537083663E+03  0.80490450427E+02 0.  0.
         25    2    1    2    0    0 -0.36640757500E+02  0.13869039032E+03  0.63603120363E+02  0.20067448526E+03  0.12508925868E+03 0.  0.
         24    2    1    2    0    0  0.69895717667E+02 -0.10374384906E+03  0.43649145631E+03  0.46154591942E+03  0.82774674472E+02 0.  0.
        -13    1    5    5    0    0  0.87038609638E+02 -0.68430391397E+02  0.31834703129E+03  0.33705084240E+03  0.00000000000E+00 0.  1.
         14    1    5    5    0    0 -0.17142891972E+02 -0.35313457662E+02  0.11814442503E+03  0.12449507702E+03  0.00000000000E+00 0. -1.
         11    1    3    3    0    0  0.14705826122E+02 -0.41005610691E+02  0.33398351395E+02  0.54892361089E+02  0.00000000000E+00 0. -1.
        -12    1    3    3    0    0 -0.47960786288E+02  0.60590694281E+01  0.14530215028E+02  0.50478475536E+02  0.00000000000E+00 0.  1.
          5    1    4    4  501    0 -0.68670526176E+02  0.61024871472E+02 -0.50471348705E+01  0.92101151317E+02  0.41800000000E+01 0. -1.
         -5    1    4    4    0  501  0.32029768676E+02  0.77665518850E+02  0.68650255233E+02  0.10857333394E+03  0.41800000000E+01 0. -1.
</event>
<event>
11    1  0.1078607E-008  0.1307495E+03  0.7561462E-02  0.1118351E+00
         22   -1    0    0    0    0  0.00000000000E+00  0.00000000000E+00  0.11381997355E+04  0.11381997355E+04  0.00000000000E+00 0.  1.
         22   -1    0    0    0    0 -0.00000000000E+00 -0.00000000000E+00 -0.13811794350E+04  0.13811794350E+04  0.00000000000E+00 0. -1.
        -24    2    1    2    0    0 -0.21879397263E+02 -0.26912646406E+02 -0.13663634752E+04  0.13691452329E+04  0.80040763382E+02 0.  0.
         25    2    1    2    0    0  0.14973144266E+02 -0.16914369227E+02  0.37362870382E+03  0.39465925335E+03  0.12508887641E+03 0.  0.
         24    2    1    2    0    0  0.69062529964E+01  0.43827015634E+02  0.74975507193E+03  0.75557468423E+03  0.82413178148E+02 0.  0.
        -11    1    5    5    0    0 -0.32667960528E+02  0.28045919226E+02  0.52877638985E+03  0.53052637983E+03  0.00000000000E+00 0.  1.
         12    1    5    5    0    0  0.39574213524E+02  0.15781096408E+02  0.22097868208E+03  0.22504830440E+03  0.00000000000E+00 0. -1.
         11    1    3    3    0    0 -0.58734216530E+01 -0.12282066775E+02 -0.12809382569E+04  0.12810106027E+04  0.00000000000E+00 0. -1.
        -12    1    3    3    0    0 -0.16005975610E+02 -0.14630579631E+02 -0.85425218340E+02  0.88134630220E+02  0.00000000000E+00 0.  1.
          5    1    4    4  501    0 -0.37327484680E+02 -0.47869089607E+02  0.13007794211E+03  0.14360548135E+03  0.41800000000E+01 0.  1.
         -5    1    4    4    0  501  0.52300628946E+02  0.30954720380E+02  0.24355076171E+03  0.25105377199E+03  0.41800000000E+01 0.  1.
</event>
<event>
11    1  0.1078607E-008  0.2268353E+03  0.7561462E-02  0.1037018E+00
         22   -1    0    0    0    0  0.00000000000E+00  0.00000000000E+00  0.63549645445E+03  0.63549645445E+03  0.00000000000E+00 0.  1.
         22   -1    0    0    0    0 -0.00000000000E+00 -0.00000000000E+00 -0.45818135403E+03  0.45818135403E+03  0.00000000000E+00 0. -1.
         24    2    1    2    0    0 -0.12137840137E+03  0.16660599736E+03 -0.33172262684E+03  0.39880447656E+03  0.80714525895E+02 0.  0.
         25    2    1    2    0    0  0.68420291527E+02 -0.12138316902E+03  0.13231841275E+02  0.18772132524E+03  0.12509598040E+03 0.  0.
        -24    2    1    2    0    0  0.52958109841E+02 -0.45222828340E+02  0.49580588598E+03  0.50715200669E+03  0.80808512634E+02 0.  0.
        -13    1    3    3    0    0 -0.93131711186E+00 -0.86582665637E+01 -0.12827409778E+02  0.15504043765E+02  0.00000000000E+00 0.  1.
         14    1    3    3    0    0 -0.12044708426E+03  0.17526426393E+03 -0.31889521706E+03  0.38330043279E+03  0.00000000000E+00 0. -1.
         13    1    5    5    0    0 -0.91837172646E+01  0.37272690166E+01  0.73684814647E+01  0.12350211181E+02  0.00000000000E+00 0. -1.
        -14    1    5    5    0    0  0.62141827105E+02 -0.48950097357E+02  0.48843740451E+03  0.49480179550E+03  0.00000000000E+00 0.  1.
          5    1    4    4  501    0  0.48103897815E+02  0.45266814725E+01  0.32905881094E+02  0.58606699624E+02  0.41800000000E+01 0. -1.
         -5    1    4    4    0  501  0.20316393712E+02 -0.12590985050E+03 -0.19674039819E+02  0.12911462562E+03  0.41800000000E+01 0. -1.
</event>
<event>
11    1  0.1078607E-008  0.1529970E+03  0.7561462E-02  0.1093855E+00
         22   -1    0    0    0    0  0.00000000000E+00  0.00000000000E+00  0.60979521688E+03  0.60979521688E+03  0.00000000000E+00 0.  1.
         22   -1    0    0    0    0 -0.00000000000E+00 -0.00000000000E+00 -0.10116023649E+03  0.10116023649E+03  0.00000000000E+00 0. -1.
        -24    2    1    2    0    0 -0.12991858792E+02  0.85060487082E+02  0.32976492006E+02  0.12337475237E+03  0.82035392610E+02 0.  0.
         25    2    1    2    0    0  0.73268927531E+02 -0.73383391302E+02  0.84731413816E+02  0.18324828037E+03  0.12508821651E+03 0.  0.
         24    2    1    2    0    0 -0.60277068740E+02 -0.11677095780E+02  0.39092707457E+03  0.40433242063E+03  0.83012343409E+02 0.  0.
        -11    1    5    5    0    0 -0.81938701347E+01  0.73763781739E+01  0.28092164249E+03  0.28113790154E+03  0.00000000000E+00 0.  1.
         12    1    5    5    0    0 -0.52083198605E+02 -0.19053473954E+02  0.11000543208E+03  0.12319451909E+03  0.00000000000E+00 0. -1.
         11    1    3    3    0    0 -0.47575113044E+02  0.47480375312E+02  0.24850271005E+02  0.71661100954E+02  0.00000000000E+00 0. -1.
        -12    1    3    3    0    0  0.34583254252E+02  0.37580111771E+02  0.81262210008E+01  0.51713651419E+02  0.00000000000E+00 0.  1.
          5    1    4    4  501    0  0.33684257873E+02  0.26080833409E+02  0.59304047713E+02  0.73138782974E+02  0.41800000000E+01 0.  1.
         -5    1    4    4    0  501  0.39584669658E+02 -0.99464224711E+02  0.25427366104E+02  0.11010949739E+03  0.41800000000E+01 0.  1.
</event>
<event>
11    1  0.1078607E-008  0.1325301E+03  0.7561462E-02  0.1116199E+00
         22   -1    0    0    0    0  0.00000000000E+00  0.00000000000E+00  0.18953478153E+03  0.18953478153E+03  0.00000000000E+00 0.  1.
         22   -1    0    0    0    0 -0.00000000000E+00 -0.00000000000E+00 -0.26587825805E+03  0.26587825805E+03  0.00000000000E+00 0. -1.
         24    2    1    2    0    0  0.19813331280E+02  0.16165081804E+02 -0.12749597820E+03  0.15321855338E+03  0.81035934490E+02 0.  0.
         25    2    1    2    0    0 -0.52347429008E+02 -0.40383880231E+02 -0.64055761062E+02  0.15531127645E+03  0.12508933192E+03 0.  0.
        -24    2    1    2    0    0  0.32534097728E+02  0.24218798426E+02  0.11520826274E+03  0.14688320975E+03  0.81588698926E+02 0.  0.
        -13    1    3    3    0    0 -0.37967261856E+01  0.27174717586E+02 -0.48843506884E+01  0.27870006947E+02  0.00000000000E+00 0.  1.
         14    1    3    3    0    0  0.23610057465E+02 -0.11009635782E+02 -0.12261162751E+03  0.12534854644E+03  0.00000000000E+00 0. -1.
         11    1    5    5    0    0 -0.19553014055E+02 -0.11552323849E+02  0.55421127823E+02  0.59893889122E+02  0.00000000000E+00 0. -1.
        -12    1    5    5    0    0  0.52087111783E+02  0.35771122276E+02  0.59787134916E+02  0.86989320633E+02  0.00000000000E+00 0.  1.
          5    1    4    4  501    0 -0.29576332438E+02 -0.63869781929E+01 -0.97579606027E+02  0.10224874006E+03  0.41800000000E+01 0. -1.
         -5    1    4    4    0  501 -0.22771096570E+02 -0.33996902038E+02  0.33523844965E+02  0.53062536393E+02  0.41800000000E+01 0. -1.
</event>
<event>
11    1  0.1078607E-008  0.1294552E+03  0.7561462E-02  0.1119940E+00
         22   -1    0    0    0    0  0.00000000000E+00  0.00000000000E+00  0.60168589608E+02  0.60168589608E+02  0.00000000000E+00 0.  1.
         22   -1    0    0    0    0 -0.00000000000E+00 -0.00000000000E+00 -0.11826950120E+04  0.11826950120E+04  0.00000000000E+00 0.  1.
        -24    2    1    2    0    0 -0.77395010527E+01 -0.63815154430E+01 -0.95050661859E+03  0.95361227430E+03  0.76242469133E+02 0.  0.
         25    2    1    2    0    0 -0.26635447375E+02  0.11068931014E+02 -0.16035363760E+03  0.20541118834E+03  0.12509396034E+03 0.  0.
         24    2    1    2    0    0  0.34374948428E+02 -0.46874155706E+01 -0.11666166247E+02  0.83840139010E+02  0.75428512713E+02 0.  0.
        -13    1    5    5    0    0 -0.38633486199E+01  0.90130801958E+01  0.26406127049E+02  0.28168149085E+02  0.00000000000E+00 0.  1.
         14    1    5    5    0    0  0.38238297048E+02 -0.13700495766E+02 -0.38072293296E+02  0.55671989925E+02  0.00000000000E+00 0. -1.
         11    1    3    3    0    0 -0.65335525405E+01  0.33062093108E+02 -0.29498278085E+03  0.29690171827E+03  0.00000000000E+00 0. -1.
        -12    1    3    3    0    0 -0.12059485122E+01 -0.39443608551E+02 -0.65552383774E+03  0.65671055604E+03  0.00000000000E+00 0.  1.
          5    1    4    4  501    0 -0.75057067235E+02  0.16545325326E+02 -0.11702366119E+03  0.14006898590E+03  0.41800000000E+01 0. -1.
         -5    1    4    4    0  501  0.48421619860E+02 -0.54763943125E+01 -0.43329976408E+02  0.65342202443E+02  0.41800000000E+01 0. -1.
</event>
<event>
11    1  0.1078607E-008  0.2011555E+03  0.7561462E-02  0.1053710E+00
         22   -1    0    0    0    0  0.00000000000E+00  0.00000000000E+00  0.11453863807E+04  0.11453863807E+04  0.00000000000E+00 0. -1.
         22   -1    0    0    0    0 -0.00000000000E+00 -0.00000000000E+00 -0.17876903512E+03  0.17876903512E+03  0.00000000000E+00 0.  1.
        -24    2    1    2    0    0 -0.15703782421E+03 -0.31387128298E+02 -0.10269389540E+03  0.20658616111E+03  0.80534314140E+02 0.  0.
         25    2    1    2    0    0  0.13374348442E+03  0.33709684391E+02  0.37187893263E+03  0.41588834204E+03  0.12508201335E+03 0.  0.
         24    2    1    2    0    0  0.23294339783E+02 -0.23225560925E+01  0.69743230835E+03  0.70168091269E+03  0.73459226535E+02 0.  0.
        -13    1    5    5    0    0  0.53687871305E+01  0.28347819162E+02  0.51585101955E+03  0.51665723367E+03  0.00000000000E+00 0.  1.
         14    1    5    5    0    0  0.17925552653E+02 -0.30670375255E+02  0.18158128880E+03  0.18502367902E+03  0.00000000000E+00 0. -1.
         11    1    3    3    0    0 -0.24734540730E+02  0.15224140751E+02 -0.47844021431E+02  0.55969834316E+02  0.00000000000E+00 0. -1.
        -12    1    3    3    0    0 -0.13230328348E+03 -0.46611269049E+02 -0.54849873965E+02  0.15061632679E+03  0.00000000000E+00 0.  1.
          5    1    4    4  501    0  0.10140626030E+03  0.30967198696E+02  0.11323659154E+03  0.15518439060E+03  0.41800000000E+01 0. -1.
         -5    1    4    4    0  501  0.32337224127E+02  0.27424856945E+01  0.25864234109E+03  0.26070395144E+03  0.41800000000E+01 0. -1.
</event>
<event>
11    1  0.1078607E-008  0.1414223E+03  0.7561462E-02  0.1105980E+00
         22   -1    0    0    0    0  0.00000000000E+00  0.00000000000E+00  0.57459527632E+03  0.57459527632E+03  0.00000000000E+00 0. -1.
         22   -1    0    0    0    0 -0.00000000000E+00 -0.00000000000E+00 -0.14579493124E+04  0.14579493124E+04  0.00000000000E+00 0.  1.
        -24    2    1    2    0    0 -0.38277489418E+02 -0.27449391182E+02 -0.12992817949E+04  0.13026371124E+04  0.80694664457E+02 0.  0.
         25    2    1    2    0    0 -0.27996594891E+02  0.15432643792E+02 -0.12444965022E+03  0.17932459632E+03  0.12509044561E+03 0.  0.
         24    2    1    2    0    0  0.66274084310E+02  0.12016747390E+02  0.54037740903E+03  0.55058287997E+03  0.81222577264E+02 0.  0.
        -11    1    5    5    0    0 -0.11144104028E+02  0.10027605268E+02  0.23710938541E+03  0.23758283728E+03  0.00000000000E+00 0.  1.
         12    1    5    5    0    0  0.77418188338E+02  0.19891421217E+01  0.30326802363E+03  0.31300004269E+03  0.00000000000E+00 0. -1.
         13    1    3    3    0    0  0.17884360527E+02 -0.29556532543E+02 -0.65429775564E+03  0.65520912082E+03  0.00000000000E+00 0. -1.
        -14    1    3    3    0    0 -0.56161849946E+02  0.21071413610E+01 -0.64498403923E+03  0.64742799159E+03  0.00000000000E+00 0.  1.
          5    1    4    4  501    0  0.34821888909E+02 -0.34096972110E+02 -0.43934786175E+02  0.65748804479E+02  0.41800000000E+01 0. -1.
         -5    1    4    4    0  501 -0.62818483801E+02  0.49529615902E+02 -0.80514864049E+02  0.11357579184E+03  0.41800000000E+01 0. -1.
</event>
<event>
11    1  0.1078607E-008  0.2014356E+03  0.7561462E-02  0.1053513E+00
         22   -1    0    0    0    0  0.00000000000E+00  0.00000000000E+00  0.75863364520E+03  0.75863364520E+03  0.00000000000E+00 0. -1.
         22   -1    0    0    0    0 -0.00000000000E+00 -0.00000000000E+00 -0.11530280621E+04  0.11530280621E+04  0.00000000000E+00 0.  1.
        -24    2    1    2    0    0  0.26761065127E+02 -0.14987393655E+03 -0.97030248349E+03  0.98526858986E+03  0.78031616773E+02 0.  0.
         25    2    1    2    0    0 -0.67262857010E+02  0.23179868967E+03 -0.60311795009E+02  0.27846045865E+03  0.12509112658E+03 0.  0.
         24    2    1    2    0    0  0.40501791883E+02 -0.81924753115E+02  0.63621986156E+03  0.64793265883E+03  0.81786049027E+02 0.  0.
        -11    1    5    5    0    0  0.19867862166E+02 -0.87940153081E+01  0.30400301399E+02  0.37366361576E+02  0.00000000000E+00 0.  1.
         12    1    5    5    0    0  0.20633929717E+02 -0.73130737807E+02  0.60581956016E+03  0.61056629725E+03  0.00000000000E+00 0. -1.
         11    1    3    3    0    0  0.10968893345E+02  0.69102425122E+01 -0.55526466877E+02  0.57019791271E+02  0.00000000000E+00 0. -1.
        -12    1    3    3    0    0  0.15792171782E+02 -0.15678417907E+03 -0.91477601662E+03  0.92824879858E+03  0.00000000000E+00 0.  1.
          5    1    4    4  501    0 -0.17763362970E+02  0.17844012545E+03  0.66192751970E+01  0.17949290415E+03  0.41800000000E+01 0.  1.
         -5    1    4    4    0  501 -0.49499494040E+02  0.53358564216E+02 -0.66931070206E+02  0.98967554503E+02  0.41800000000E+01 0.  1.
</event>
<event>
11    1  0.1078607E-008  0.1812567E+03  0.7561462E-02  0.1068631E+00
         22   -1    0    0    0    0  0.00000000000E+00  0.00000000000E+00  0.10612995256E+04  0.10612995256E+04  0.00000000000E+00 0.  1.
         22   -1    0    0    0    0 -0.00000000000E+00 -0.00000000000E+00 -0.18566548083E+04  0.18566548083E+04  0.00000000000E+00 0.  1.
        -24    2    1    2    0    0  0.84883106176E+01  0.66878168349E+02 -0.13996031445E+04  0.14035611422E+04  0.80933162783E+02 0.  0.
         25    2    1    2    0    0  0.64375074882E+02 -0.17519721749E+03 -0.42133528808E+03  0.47750205070E+03  0.12508624289E+03 0.  0.
         24    2    1    2    0    0 -0.72863385499E+02  0.10831904914E+03  0.10255831499E+04  0.10368911411E+04  0.79248669841E+02 0.  0.
        -11    1    5    5    0    0 -0.48569120846E+02  0.79806974860E+02  0.92239861656E+03  0.92711774903E+03  0.00000000000E+00 0.  1.
         12    1    5    5    0    0 -0.24294264654E+02  0.28512074280E+02  0.10318453338E+03  0.10977339206E+03  0.00000000000E+00 0. -1.
         11    1    3    3    0    0  0.22905834263E+02 -0.10407622688E+02 -0.24638673657E+03  0.24766796283E+03  0.00000000000E+00 0. -1.
        -12    1    3    3    0    0 -0.14417523646E+02  0.77285791037E+02 -0.11532164080E+04  0.11558931794E+04  0.00000000000E+00 0.  1.
          5    1    4    4  501    0  0.67730227708E+02 -0.64744335975E+02 -0.29527349763E+03  0.30981143231E+03  0.41800000000E+01 0.  1.
         -5    1    4    4    0  501 -0.33551528262E+01 -0.11045288151E+03 -0.12606179045E+03  0.16769061839E+03  0.41800000000E+01 0.  1.
</event>
<event>
11    1  0.1078607E-008  0.1716276E+03  0.7561462E-02  0.1076624E+00
         22   -1    0    0    0    0  0.00000000000E+00  0.00000000000E+00  0.44163481704E+03  0.44163481704E+03  0.00000000000E+00 0.  1.
         22   -1    0    0    0    0 -0.00000000000E+00 -0.00000000000E+00 -0.76619576143E+03  0.76619576143E+03  0.00000000000E+00 0.  1.
        -24    2    1    2    0    0  0.11417739016E+03 -0.25675531748E+02 -0.70348240581E+03  0.71763082760E+03  0.80067472100E+02 0.  0.
         25    2    1    2    0    0 -0.12589810568E+03  0.26329215096E+02  0.11273538641E+03  0.21189554705E+03  0.12508754906E+03 0.  0.
         24    2    1    2    0    0  0.11720715526E+02 -0.65368334774E+00  0.26618607500E+03  0.27830420382E+03  0.80376618886E+02 0.  0.
        -11    1    5    5    0    0  0.94828672659E+01 -0.17615133180E+01  0.27189867876E+03  0.27206969551E+03  0.00000000000E+00 0.  1.
         12    1    5    5    0    0  0.22378482601E+01  0.11078299703E+01 -0.57126037636E+01  0.62345083077E+01  0.00000000000E+00 0. -1.
         13    1    3    3    0    0  0.18857390876E+02  0.10962548751E+01 -0.22011967815E+02  0.29005683796E+02  0.00000000000E+00 0. -1.
        -14    1    3    3    0    0  0.95319999281E+02 -0.26771786624E+02 -0.68147043799E+03  0.68862514380E+03  0.00000000000E+00 0.  1.
          5    1    4    4  501    0 -0.11469749482E+03  0.65415599616E+02  0.59786233028E+02  0.14500545525E+03  0.41800000000E+01 0.  1.
         -5    1    4    4    0  501 -0.11200610862E+02 -0.39086384519E+02  0.52949153381E+02  0.66890091809E+02  0.41800000000E+01 0.  1.
</event>
<event>
11    1  0.1078607E-008  0.3097602E+03  0.7561462E-02  0.9961431E-01
         22   -1    0    0    0    0  0.00000000000E+00  0.00000000000E+00  0.38846888758E+03  0.38846888758E+03  0.00000000000E+00 0. -1.
         22   -1    0    0    0    0 -0.00000000000E+00 -0.00000000000E+00 -0.16445874565E+04  0.16445874565E+04  0.00000000000E+00 0.  1.
         24    2    1    2    0    0 -0.22886821814E+03  0.10828831231E+03 -0.82962261242E+03  0.87053434472E+03  0.73819688642E+02 0.  0.
         25    2    1    2    0    0  0.42966246849E+02  0.13262274749E+03 -0.71253333077E+03  0.73673228020E+03  0.12504324734E+03 0.  0.
        -24    2    1    2    0    0  0.18590197129E+03 -0.24091105980E+03  0.28603737430E+03  0.42578971913E+03  0.82956758340E+02 0.  0.
        -13    1    3    3    0    0 -0.85131381507E+02  0.70308698022E+02 -0.43624914544E+03  0.45000442446E+03  0.00000000000E+00 0.  1.
         14    1    3    3    0    0 -0.14373683663E+03  0.37979614288E+02 -0.39337346698E+03  0.42052992025E+03  0.00000000000E+00 0. -1.
         11    1    5    5    0    0  0.17724367543E+03 -0.17722595901E+03  0.23692030971E+03  0.34489939719E+03  0.00000000000E+00 0. -1.
        -12    1    5    5    0    0  0.86582958637E+01 -0.63685100790E+02  0.49117064588E+02  0.80890321941E+02  0.00000000000E+00 0.  1.
          5    1    4    4  501    0  0.17273563458E+02  0.12929684516E+03 -0.68972207599E+03  0.70196158347E+03  0.41800000000E+01 0. -1.
         -5    1    4    4    0  501  0.25692683391E+02  0.33259023331E+01 -0.22811254782E+02  0.34770696727E+02  0.41800000000E+01 0. -1.
</event>
<event>
11    1  0.1078607E-008  0.1429544E+03  0.7561462E-02  0.1104303E+00
         22   -1    0    0    0    0  0.00000000000E+00  0.00000000000E+00  0.37377604951E+03  0.37377604951E+03  0.00000000000E+00 0.  1.
         22   -1    0    0    0    0 -0.00000000000E+00 -0.00000000000E+00 -0.31632448147E+03  0.31632448147E+03  0.00000000000E+00 0. -1.
         24    2    1    2    0    0 -0.22479749360E+02  0.16200623611E+02 -0.11239931595E+03  0.13764519598E+03  0.74463376318E+02 0.  0.
         25    2    1    2    0    0  0.76669690329E+02 -0.57228357396E+02 -0.14895584821E+03  0.21677105873E+03  0.12509404815E+03 0.  0.
        -24    2    1    2    0    0 -0.54189940969E+02  0.41027733785E+02  0.31880673221E+03  0.33568427626E+03  0.80164681677E+02 0.  0.
        -13    1    3    3    0    0  0.17912675724E+02  0.29733374021E+02 -0.34982071965E+02  0.49281668410E+02  0.00000000000E+00 0.  1.
         14    1    3    3    0    0 -0.40392425085E+02 -0.13532750409E+02 -0.77417243988E+02  0.88363527569E+02  0.00000000000E+00 0. -1.
         11    1    5    5    0    0 -0.54479101551E+02 -0.42817644199E+01  0.12121307660E+03  0.13296208463E+03  0.00000000000E+00 0. -1.
        -12    1    5    5    0    0  0.28916058204E+00  0.45309498205E+02  0.19759365561E+03  0.20272219163E+03  0.00000000000E+00 0.  1.
          5    1    4    4  501    0  0.49824887515E+02  0.22245265686E+02 -0.11863322618E+02  0.55996268490E+02  0.41800000000E+01 0. -1.
         -5    1    4    4    0  501  0.26844802814E+02 -0.79473623082E+02 -0.13709252560E+03  0.16077479024E+03  0.41800000000E+01 0. -1.
</event>
<event>
11    1  0.1078607E-008  0.1274561E+03  0.7561462E-02  0.1122435E+00
         22   -1    0    0    0    0  0.00000000000E+00  0.00000000000E+00  0.94570388150E+02  0.94570388150E+02  0.00000000000E+00 0. -1.
         22   -1    0    0    0    0 -0.00000000000E+00 -0.00000000000E+00 -0.17634916633E+04  0.17634916633E+04  0.00000000000E+00 0.  1.
        -24    2    1    2    0    0  0.22402920778E+02 -0.74911339346E+00 -0.82520385187E+03  0.82929200373E+03  0.79128871373E+02 0.  0.
         25    2    1    2    0    0 -0.20555812052E+01 -0.13619439770E+02 -0.91270119165E+03  0.92133421025E+03  0.12507416670E+03 0.  0.
         24    2    1    2    0    0 -0.20347339572E+02  0.14368553163E+02  0.68983768405E+02  0.10743583744E+03  0.78506237425E+02 0.  0.
        -13    1    5    5    0    0 -0.39895557604E+02  0.18881798004E+01  0.60896411387E+01  0.40401787939E+02  0.00000000000E+00 0.  1.
         14    1    5    5    0    0  0.19548218031E+02  0.12480373363E+02  0.62894127266E+02  0.67034049498E+02  0.00000000000E+00 0. -1.
         11    1    3    3    0    0  0.92285503274E+01  0.34078361241E+02 -0.20874960754E+03  0.21171419294E+03  0.00000000000E+00 0. -1.
        -12    1    3    3    0    0  0.13174370450E+02 -0.34827474635E+02 -0.61645424433E+03  0.61757781079E+03  0.00000000000E+00 0.  1.
          5    1    4    4  501    0 -0.92447273800E+01  0.52911183115E+02 -0.28374874205E+03  0.28881807301E+03  0.41800000000E+01 0. -1.
         -5    1    4    4    0  501  0.71891461748E+01 -0.66530622885E+02 -0.62895244961E+03  0.63251613724E+03  0.41800000000E+01 0. -1.
</event>
<event>
11    1  0.1078607E-008  0.4019258E+03  0.7561462E-02  0.9644093E-01
         22   -1    0    0    0    0  0.00000000000E+00  0.00000000000E+00  0.12181545323E+04  0.12181545323E+04  0.00000000000E+00 0. -1.
         22   -1    0    0    0    0 -0.00000000000E+00 -0.00000000000E+00 -0.25513586843E+03  0.25513586843E+03  0.00000000000E+00 0. -1.
         24    2    1    2    0    0  0.70979480333E+02  0.12432562541E+02 -0.34852205357E+02  0.10746266838E+03  0.71700025372E+02 0.  0.
         25    2    1    2    0    0  0.64936051972E+02 -0.37241737958E+03  0.14233085831E+03  0.42286648705E+03  0.12508635891E+03 0.  0.
        -24    2    1    2    0    0 -0.13591553230E+03  0.35998481704E+03  0.85554001094E+03  0.94296124532E+03  0.95734525845E+02 0.  0.
        -13    1    3    3    0    0  0.32599724921E+02 -0.22798569568E+02 -0.38338046889E+02  0.55247829628E+02  0.00000000000E+00 0.  1.
         14    1    3    3    0    0  0.38379755412E+02  0.35231132109E+02  0.34858415326E+01  0.52214838756E+02  0.00000000000E+00 0. -1.
         13    1    5    5    0    0 -0.14816444375E+03  0.30620922581E+03  0.75974591403E+03  0.83242455890E+03  0.00000000000E+00 0. -1.
        -14    1    5    5    0    0  0.12248911446E+02  0.53775591231E+02  0.95794096904E+02  0.11053668642E+03  0.00000000000E+00 0.  1.
          5    1    4    4  501    0  0.47967937333E+02 -0.19183045125E+03  0.95007343644E+01  0.19800904371E+03  0.41800000000E+01 0.  1.
         -5    1    4    4    0  501  0.16968114639E+02 -0.18058692833E+03  0.13283012395E+03  0.22485744334E+03  0.41800000000E+01 0.  1.
</event>
<event>
11    1  0.1078607E-008  0.1469100E+03  0.7561462E-02  0.1100079E+00
         22   -1    0    0    0    0  0.00000000000E+00  0.00000000000E+00  0.20791813050E+03  0.20791813050E+03  0.00000000000E+00 0. -1.
         22   -1    0    0    0    0 -0.00000000000E+00 -0.00000000000E+00 -0.53387114501E+03  0.53387114501E+03  0.00000000000E+00 0.  1.
         24    2    1    2    0    0 -0.50981651557E+02  0.58724820608E+02 -0.26516640710E+03  0.28773259115E+03  0.80181588949E+02 0.  0.
         25    2    1    2    0    0  0.28192390553E+02 -0.73554203470E+02 -0.22529123905E+03  0.26945917341E+03  0.12508825688E+03 0.  0.
        -24    2    1    2    0    0  0.22789261004E+02  0.14829382862E+02  0.16450463164E+03  0.18459751094E+03  0.79216199123E+02 0.  0.
        -13    1    3    3    0    0 -0.64919652269E+02  0.22209400901E+02 -0.20317960274E+03  0.21445225508E+03  0.00000000000E+00 0.  1.
         14    1    3    3    0    0  0.13938000712E+02  0.36515419707E+02 -0.61986804359E+02  0.73280336072E+02  0.00000000000E+00 0. -1.
         11    1    5    5    0    0  0.22896597110E+02  0.38795105876E+02  0.14992189701E+03  0.15654357094E+03  0.00000000000E+00 0. -1.
        -12    1    5    5    0    0 -0.10733610615E+00 -0.23965723014E+02  0.14582734627E+02  0.28053940005E+02  0.00000000000E+00 0.  1.
          5    1    4    4  501    0  0.40451943185E+02 -0.94262581691E+02 -0.22228842089E+03  0.24484976716E+03  0.41800000000E+01 0. -1.
         -5    1    4    4    0  501 -0.12259552632E+02  0.20708378222E+02 -0.30028181587E+01  0.24609406255E+02  0.41800000000E+01 0. -1.
</event>
<event>
11    1  0.1078607E-008  0.1267742E+03  0.7561462E-02  0.1123297E+00
         22   -1    0    0    0    0  0.00000000000E+00  0.00000000000E+00  0.13487115713E+03  0.13487115713E+03  0.00000000000E+00 0. -1.
         22   -1    0    0    0    0 -0.00000000000E+00 -0.00000000000E+00 -0.53819562287E+03  0.53819562287E+03  0.00000000000E+00 0. -1.
         24    2    1    2    0    0 -0.14583937057E+02 -0.16934420096E+02 -0.41806796606E+03  0.42643621715E+03  0.81040466753E+02 0.  0.
         25    2    1    2    0    0  0.96434312438E+01 -0.48045888893E+01 -0.57902242565E+02  0.13827358370E+03  0.12510329498E+03 0.  0.
        -24    2    1    2    0    0  0.49405058131E+01  0.21739008985E+02  0.72645742878E+02  0.10835697915E+03  0.77245309648E+02 0.  0.
        -13    1    3    3    0    0  0.18078778895E+02 -0.18203984726E+02 -0.43930268604E+02  0.50873330988E+02  0.00000000000E+00 0.  1.
         14    1    3    3    0    0 -0.32662715952E+02  0.12695646300E+01 -0.37413769745E+03  0.37556288616E+03  0.00000000000E+00 0. -1.
         11    1    5    5    0    0 -0.47802938116E+01  0.41466234100E+02  0.75410264910E+02  0.86191692367E+02  0.00000000000E+00 0. -1.
        -12    1    5    5    0    0  0.97207996247E+01 -0.19727225114E+02 -0.27645220320E+01  0.22165286782E+02  0.00000000000E+00 0.  1.
          5    1    4    4  501    0 -0.46866752710E+02 -0.36166769029E+02 -0.17230717755E+02  0.61797230730E+02  0.41800000000E+01 0. -1.
         -5    1    4    4    0  501  0.56510183954E+02  0.31362180139E+02 -0.40671524811E+02  0.76476352973E+02  0.41800000000E+01 0. -1.
</event>
<event>
11    1  0.1078607E-008  0.1404791E+03  0.7561462E-02  0.1107025E+00
         22   -1    0    0    0    0  0.00000000000E+00  0.00000000000E+00  0.10657203050E+03  0.10657203050E+03  0.00000000000E+00 0.  1.
         22   -1    0    0    0    0 -0.00000000000E+00 -0.00000000000E+00 -0.52241897757E+03  0.52241897757E+03  0.00000000000E+00 0.  1.
        -24    2    1    2    0    0 -0.41182550141E+02  0.45143991524E+02 -0.36792852767E+03  0.38147881736E+03  0.80129296864E+02 0.  0.
         25    2    1    2    0    0  0.45321404354E+02 -0.76513391010E+02 -0.51098672707E+02  0.16174574466E+03  0.12506911236E+03 0.  0.
         24    2    1    2    0    0 -0.41388542127E+01  0.31369399485E+02  0.31802533009E+01  0.85766446049E+02  0.79652996922E+02 0.  0.
        -11    1    5    5    0    0 -0.16897274805E+02  0.13590009660E+02  0.38517570935E+02  0.44201917709E+02  0.00000000000E+00 0.  1.
         12    1    5    5    0    0  0.12758420592E+02  0.17779389825E+02 -0.35337317634E+02  0.41564528340E+02  0.00000000000E+00 0. -1.
         13    1    3    3    0    0  0.79142438811E+01  0.28554534789E+00 -0.20960906392E+03  0.20975861477E+03  0.00000000000E+00 0. -1.
        -14    1    3    3    0    0 -0.49096794022E+02  0.44858446176E+02 -0.15831946375E+03  0.17172020259E+03  0.00000000000E+00 0.  1.
          5    1    4    4  501    0  0.74401899855E+01 -0.90451696946E+02 -0.72162304530E+02  0.11602472367E+03  0.41800000000E+01 0. -1.
         -5    1    4    4    0  501  0.37881214368E+02  0.13938305937E+02  0.21063631823E+02  0.45721020986E+02  0.41800000000E+01 0. -1.
</event>
<event>
11    1  0.1078607E-008  0.1799378E+03  0.7561462E-02  0.1069693E+00
         22   -1    0    0    0    0  0.00000000000E+00  0.00000000000E+00  0.63609251332E+03  0.63609251332E+03  0.00000000000E+00 0. -1.
         22   -1    0    0    0    0 -0.00000000000E+00 -0.00000000000E+00 -0.52280547135E+03  0.52280547135E+03  0.00000000000E+00 0. -1.
        -24    2    1    2    0    0 -0.92908792480E+01  0.10180555470E+03 -0.36228583645E+03  0.38511199044E+03  0.81298994385E+02 0.  0.
         25    2    1    2    0    0 -0.44296523554E+02 -0.21241348936E+03 -0.24797410790E+02  0.25168288542E+03  0.12509073016E+03 0.  0.
         24    2    1    2    0    0  0.53587402802E+02  0.11060793465E+03  0.50037028921E+03  0.52210310881E+03  0.84353452565E+02 0.  0.
        -13    1    5    5    0    0  0.13561326276E+01 -0.11368433106E+02  0.92172007412E+02  0.92880349468E+02  0.00000000000E+00 0.  1.
         14    1    5    5    0    0  0.52231270174E+02  0.12197636776E+03  0.40819828179E+03  0.42922275934E+03  0.00000000000E+00 0. -1.
         13    1    3    3    0    0  0.12898927523E+02  0.92745973587E+02 -0.33900101802E+03  0.35169573237E+03  0.00000000000E+00 0. -1.
        -14    1    3    3    0    0 -0.22189806771E+02  0.90595811173E+01 -0.23284818424E+02  0.33416258073E+02  0.00000000000E+00 0.  1.
          5    1    4    4  501    0 -0.56476595434E+02 -0.21232701963E+03 -0.48197860375E+02  0.22497305448E+03  0.41800000000E+01 0.  1.
         -5    1    4    4    0  501  0.12180071881E+02 -0.86469727946E-01  0.23400449586E+02  0.26709830940E+02  0.41800000000E+01 0.  1.
</event>
<event>
11    1  0.1078607E-008  0.1485833E+03  0.7561462E-02  0.1098335E+00
         22   -1    0    0    0    0  0.00000000000E+00  0.00000000000E+00  0.19244980844E+03  0.19244980844E+03  0.00000000000E+00 0.  1.
         22   -1    0    0    0    0 -0.00000000000E+00 -0.00000000000E+00 -0.52179104044E+03  0.52179104044E+03  0.00000000000E+00 0. -1.
         24    2    1    2    0    0 -0.41668257272E+02 -0.75063441237E+02 -0.41196711768E+03  0.42820618123E+03  0.79201412383E+02 0.  0.
         25    2    1    2    0    0 -0.26335165731E+02  0.57529360561E+02 -0.25847983318E+02  0.14254047302E+03  0.12508597015E+03 0.  0.
        -24    2    1    2    0    0  0.68003423003E+02  0.17534080676E+02  0.10847386899E+03  0.14349419462E+03  0.62386650099E+02 0.  0.
        -11    1    3    3    0    0 -0.37532567064E+01  0.68670141189E+01 -0.15507091049E+01  0.79779394296E+01  0.00000000000E+00 0.  1.
         12    1    3    3    0    0 -0.37915000566E+02 -0.81930455356E+02 -0.41041640857E+03  0.42022824180E+03  0.00000000000E+00 0. -1.
         11    1    5    5    0    0  0.49058152660E+02  0.36079643580E+02  0.48256075103E+02  0.77698724620E+02  0.00000000000E+00 0. -1.
        -12    1    5    5    0    0  0.18945270343E+02 -0.18545562904E+02  0.60217793887E+02  0.65795469999E+02  0.00000000000E+00 0.  1.
          5    1    4    4  501    0 -0.51211344580E+02  0.36270918429E+02  0.35983026029E+02  0.72459864060E+02  0.41800000000E+01 0.  1.
         -5    1    4    4    0  501  0.24876178850E+02  0.21258442132E+02 -0.61831009346E+02  0.70080608965E+02  0.41800000000E+01 0.  1.
</event>
<event>
11    1  0.1078607E-008  0.1570569E+03  0.7561462E-02  0.1089879E+00
         22   -1    0    0    0    0  0.00000000000E+00  0.00000000000E+00  0.36951647164E+03  0.36951647164E+03  0.00000000000E+00 0.  1.
         22   -1    0    0    0    0 -0.00000000000E+00 -0.00000000000E+00 -0.38187240271E+03  0.38187240271E+03  0.00000000000E+00 0.  1.
         24    2    1    2    0    0  0.35722827256E+02  0.61345780594E+01 -0.22064224623E+03  0.23735629883E+03  0.79632018293E+02 0.  0.
         25    2    1    2    0    0 -0.24800435773E+02 -0.10027745942E+03 -0.93873546409E+02  0.18742783981E+03  0.12508525867E+03 0.  0.
        -24    2    1    2    0    0 -0.10922391482E+02  0.94142881360E+02  0.30215986157E+03  0.32660473572E+03  0.79924281062E+02 0.  0.
        -11    1    3    3    0    0  0.51637042187E+02 -0.13857532344E+01 -0.21111289380E+03  0.21734065052E+03  0.00000000000E+00 0.  1.
         12    1    3    3    0    0 -0.15914214931E+02  0.75203312938E+01 -0.95293524279E+01  0.20015648312E+02  0.00000000000E+00 0. -1.
         13    1    5    5    0    0 -0.28029729534E+02  0.11202803140E+02  0.34370699028E+02  0.45743999472E+02  0.00000000000E+00 0. -1.
        -14    1    5    5    0    0  0.17107338052E+02  0.82940078219E+02  0.26778916254E+03  0.28086073625E+03  0.00000000000E+00 0.  1.
          5    1    4    4  501    0 -0.46018412091E+02 -0.48975705205E+02 -0.11043494904E+03  0.12934320361E+03  0.41800000000E+01 0.  1.
         -5    1    4    4    0  501  0.21217976317E+02 -0.51301754214E+02  0.16561402632E+02  0.58084636192E+02  0.41800000000E+01 0.  1.
</event>
<event>
11    1  0.1078607E-008  0.1928519E+03  0.7561462E-02  0.1059697E+00
         22   -1    0    0    0    0  0.00000000000E+00  0.00000000000E+00  0.13052096134E+04  0.13052096134E+04  0.00000000000E+00 0. -1.
         22   -1    0    0    0    0 -0.00000000000E+00 -0.00000000000E+00 -0.22768829844E+03  0.22768829844E+03  0.00000000000E+00 0. -1.
        -24    2    1    2    0    0  0.18646907107E+02  0.15391593728E+03 -0.15358992363E+03  0.23262306886E+03  0.80534493437E+02 0.  0.
         25    2    1    2    0    0 -0.43764380621E+00 -0.10448564863E+03  0.17297056297E+03  0.23766267216E+03  0.12508911937E+03 0.  0.
         24    2    1    2    0    0 -0.18209263301E+02 -0.49430288649E+02  0.10581406756E+04  0.10626121708E+04  0.81902414234E+02 0.  0.
        -13    1    5    5    0    0 -0.21303128543E+02 -0.13778669056E+02  0.82443125437E+02  0.86258587622E+02  0.00000000000E+00 0.  1.
         14    1    5    5    0    0  0.30938652422E+01 -0.35651619593E+02  0.97569755019E+03  0.97635358320E+03  0.00000000000E+00 0. -1.
         13    1    3    3    0    0  0.38262263398E+02  0.13106613152E+03 -0.14910804051E+03  0.20217700012E+03  0.00000000000E+00 0. -1.
        -14    1    3    3    0    0 -0.19615356291E+02  0.22849805764E+02 -0.44818831200E+01  0.30446068747E+02  0.00000000000E+00 0.  1.
          5    1    4    4  501    0  0.24810637042E+02 -0.10717084976E+02  0.12741775417E+03  0.13031953077E+03  0.41800000000E+01 0. -1.
         -5    1    4    4    0  501 -0.25248280848E+02 -0.93768563654E+02  0.45552808795E+02  0.10734314140E+03  0.41800000000E+01 0. -1.
</event>
<event>
11    1  0.1078607E-008  0.1809553E+03  0.7561462E-02  0.1068873E+00
         22   -1    0    0    0    0  0.00000000000E+00  0.00000000000E+00  0.13408367793E+03  0.13408367793E+03  0.00000000000E+00 0.  1.
         22   -1    0    0    0    0 -0.00000000000E+00 -0.00000000000E+00 -0.58632040992E+03  0.58632040992E+03  0.00000000000E+00 0.  1.
        -24    2    1    2    0    0 -0.31114888307E+01 -0.41029677343E+02 -0.31828313136E+03  0.33108052246E+03  0.81345220253E+02 0.  0.
         25    2    1    2    0    0  0.12883694616E+03  0.60947807068E+02 -0.13243630446E+03  0.23130050885E+03  0.12508779625E+03 0.  0.
         24    2    1    2    0    0 -0.12572545733E+03 -0.19918129725E+02 -0.15172961742E+01  0.15802305656E+03  0.93623510420E+02 0.  0.
        -11    1    5    5    0    0 -0.10869011070E+03 -0.41591968570E+02  0.25812539635E+02  0.11920452683E+03  0.00000000000E+00 0.  1.
         12    1    5    5    0    0 -0.17035346629E+02  0.21673838845E+02 -0.27329835809E+02  0.38818529730E+02  0.00000000000E+00 0. -1.
         13    1    3    3    0    0  0.26487419938E+02 -0.41351121273E+02 -0.10695914137E+03  0.11769348567E+03  0.00000000000E+00 0. -1.
        -14    1    3    3    0    0 -0.29598908769E+02  0.32144392926E+00 -0.21132398998E+03  0.21338703679E+03  0.00000000000E+00 0.  1.
          5    1    4    4  501    0  0.38409261503E+02 -0.37590527411E+02 -0.53485845481E+02  0.75937653289E+02  0.41800000000E+01 0. -1.
         -5    1    4    4    0  501  0.90427684657E+02  0.98538334479E+02 -0.78950458978E+02  0.15536285556E+03  0.41800000000E+01 0. -1.
</event>
<event>
11    1  0.1078607E-008  0.1437618E+03  0.7561462E-02  0.1103429E+00
         22   -1    0    0    0    0  0.00000000000E+00  0.00000000000E+00  0.18645123487E+03  0.18645123487E+03  0.00000000000E+00 0.  1.
         22   -1    0    0    0    0 -0.00000000000E+00 -0.00000000000E+00 -0.70131676944E+03  0.70131676944E+03  0.00000000000E+00 0.  1.
        -24    2    1    2    0    0 -0.30386248304E+02 -0.20667353066E+02 -0.60682932439E+03  0.61337755622E+03  0.81484562749E+02 0.  0.
         25    2    1    2    0    0  0.29609940287E+02  0.84319994948E+02  0.32994470405E+02  0.15725554332E+03  0.12511618886E+03 0.  0.
         24    2    1    2    0    0  0.77630801678E+00 -0.63652641882E+02  0.58969319420E+02  0.11713490477E+03  0.78682550859E+02 0.  0.
        -13    1    5    5    0    0 -0.24992235998E+02 -0.66815296095E+02  0.27781272815E+02  0.76555174689E+02  0.00000000000E+00 0.  1.
         14    1    5    5    0    0  0.25768544015E+02  0.31626542133E+01  0.31188046605E+02  0.40579730080E+02  0.00000000000E+00 0. -1.
         11    1    3    3    0    0  0.25239442989E+02 -0.72270309720E+01 -0.10237830698E+03  0.10569095136E+03  0.00000000000E+00 0. -1.
        -12    1    3    3    0    0 -0.55625691292E+02 -0.13440322094E+02 -0.50445101741E+03  0.50768660486E+03  0.00000000000E+00 0.  1.
          5    1    4    4  501    0  0.53118725623E+02  0.35052330597E+02 -0.32753251755E+02  0.71697369496E+02  0.41800000000E+01 0. -1.
         -5    1    4    4    0  501 -0.23508785336E+02  0.49267664351E+02  0.65747722160E+02  0.85558173823E+02  0.41800000000E+01 0. -1.
</event>
<event>
11    1  0.1078607E-008  0.1429013E+03  0.7561462E-02  0.1104361E+00
         22   -1    0    0    0    0  0.00000000000E+00  0.00000000000E+00  0.27346070877E+04  0.27346070877E+04  0.00000000000E+00 0. -1.
         22   -1    0    0    0    0 -0.00000000000E+00 -0.00000000000E+00 -0.19540259730E+03  0.19540259730E+03  0.00000000000E+00 0.  1.
         24    2    1    2    0    0 -0.35357401473E+02 -0.16050683906E+02 -0.14144823385E+03  0.16736570245E+03  0.80597178644E+02 0.  0.
         25    2    1    2    0    0 -0.20873846386E+02  0.57079795926E+02  0.81478278676E+02  0.16118584931E+03  0.12509335537E+03 0.  0.
        -24    2    1    2    0    0  0.56231247859E+02 -0.41029112021E+02  0.25991744455E+04  0.26014581332E+04  0.83852722811E+02 0.  0.
        -11    1    3    3    0    0 -0.11955557576E+02 -0.32276959303E+02 -0.13340612311E+03  0.13777492929E+03  0.00000000000E+00 0.  1.
         12    1    3    3    0    0 -0.23401843896E+02  0.16226275397E+02 -0.80421107427E+01  0.29590773160E+02  0.00000000000E+00 0. -1.
         13    1    5    5    0    0 -0.10177704726E+02  0.11017955242E+02  0.95700970655E+03  0.95712724308E+03  0.00000000000E+00 0. -1.
        -14    1    5    5    0    0  0.66408952585E+02 -0.52047067263E+02  0.16421647390E+04  0.16443308901E+04  0.00000000000E+00 0.  1.
          5    1    4    4  501    0  0.60127094688E+01 -0.35217471331E+02  0.13978441431E+01  0.35997907306E+02  0.41800000000E+01 0. -1.
         -5    1    4    4    0  501 -0.26886555855E+02  0.92297267258E+02  0.80080434533E+02  0.12518794201E+03  0.41800000000E+01 0. -1.
</event>
<event>
11    1  0.1078607E-008  0.1367815E+03  0.7561462E-02  0.1111207E+00
         22   -1    0    0    0    0  0.00000000000E+00  0.00000000000E+00  0.17143235837E+04  0.17143235837E+04  0.00000000000E+00 0. -1.
         22   -1    0    0    0    0 -0.00000000000E+00 -0.00000000000E+00 -0.58367727987E+03  0.58367727987E+03  0.00000000000E+00 0.  1.
         24    2    1    2    0    0  0.58507905255E+02  0.39873236149E+01 -0.55024659320E+03  0.55923500284E+03  0.80829458409E+02 0.  0.
         25    2    1    2    0    0 -0.96103152231E+01 -0.35216706576E+02  0.12842321130E+03  0.18295497902E+03  0.12508968210E+03 0.  0.
        -24    2    1    2    0    0 -0.48897590032E+02  0.31229382961E+02  0.15524696858E+04  0.15558108817E+04  0.83780223478E+02 0.  0.
        -13    1    3    3    0    0  0.11869260278E+02  0.39497915422E+02 -0.22621098602E+03  0.22993993750E+03  0.00000000000E+00 0.  1.
         14    1    3    3    0    0  0.46638644976E+02 -0.35510591807E+02 -0.32403560718E+03  0.32929506534E+03  0.00000000000E+00 0. -1.
         13    1    5    5    0    0 -0.19476207758E+02  0.50407454393E+02  0.12725150965E+04  0.12736620057E+04  0.00000000000E+00 0. -1.
        -14    1    5    5    0    0 -0.29421382274E+02 -0.19178071432E+02  0.27995458930E+03  0.28214887600E+03  0.00000000000E+00 0.  1.
          5    1    4    4  501    0  0.47108370538E+02 -0.43638937708E+02  0.99757417704E+02  0.11871213184E+03  0.41800000000E+01 0.  1.
         -5    1    4    4    0  501 -0.56718685761E+02  0.84222311315E+01  0.28665793596E+02  0.64242847183E+02  0.41800000000E+01 0.  1.
</event>
<event>
11    1  0.1078607E-008  0.4998216E+03  0.7561462E-02  0.9393920E-01
         22   -1    0    0    0    0  0.00000000000E+00  0.00000000000E+00  0.96108248246E+03  0.96108248246E+03  0.00000000000E+00 0.  1.
         22   -1    0    0    0    0 -0.00000000000E+00 -0.00000000000E+00 -0.17609627081E+04  0.17609627081E+04  0.00000000000E+00 0.  1.
        -24    2    1    2    0    0 -0.46631253177E+03 -0.98173411654E+01 -0.11447607370E+04  0.12386189271E+04  0.78459826031E+02 0.  0.
         25    2    1    2    0    0  0.53377234492E+03 -0.16773566363E+02 -0.43248214171E+03  0.69848563551E+03  0.12508841430E+03 0.  0.
         24    2    1    2    0    0 -0.67459813151E+02  0.26590907528E+02  0.77736265302E+03  0.78494062791E+03  0.81124547904E+02 0.  0.
        -13    1    5    5    0    0 -0.63065087828E+02 -0.16681590948E+02  0.48088331590E+03  0.48528779532E+03  0.00000000000E+00 0.  1.
         14    1    5    5    0    0 -0.43947253231E+01  0.43272498476E+02  0.29647933713E+03  0.29965283259E+03  0.00000000000E+00 0. -1.
         11    1    3    3    0    0 -0.84461720464E+01 -0.48867274967E+01 -0.65766646958E+02  0.66486613539E+02  0.00000000000E+00 0. -1.
        -12    1    3    3    0    0 -0.45786635972E+03 -0.49306136687E+01 -0.10789940900E+04  0.11721323136E+04  0.00000000000E+00 0.  1.
          5    1    4    4  501    0  0.50696773264E+03  0.87380187386E+01 -0.42228553956E+03  0.65987512775E+03  0.41800000000E+01 0.  1.
         -5    1    4    4    0  501  0.26804612281E+02 -0.25511585102E+02 -0.10196602144E+02  0.38610507756E+02  0.41800000000E+01 0.  1.
</event>
<event>
11    1  0.1078607E-008  0.1657338E+03  0.7561462E-02  0.1081805E+00
         22   -1    0    0    0    0  0.00000000000E+00  0.00000000000E+00  0.10307870224E+03  0.10307870224E+03  0.00000000000E+00 0.  1.
         22   -1    0    0    0    0 -0.00000000000E+00 -0.00000000000E+00 -0.15885508460E+04  0.15885508460E+04  0.00000000000E+00 0.  1.
         24    2    1    2    0    0  0.19446521484E+02 -0.30995020358E+02 -0.11774300722E+04  0.11810442121E+04  0.84764364429E+02 0.  0.
         25    2    1    2    0    0 -0.40796593131E+02  0.13276039559E+03 -0.32821587863E+03  0.37770729486E+03  0.12508977961E+03 0.  0.
        -24    2    1    2    0    0  0.21350071648E+02 -0.10176537523E+03  0.20173807141E+02  0.13287804123E+03  0.80234495015E+02 0.  0.
        -13    1    3    3    0    0  0.39101503710E+02 -0.45082058645E+02 -0.10223357338E+04  0.10240760090E+04  0.00000000000E+00 0.  1.
         14    1    3    3    0    0 -0.19654982226E+02  0.14087038287E+02 -0.15509433843E+03  0.15696820311E+03  0.00000000000E+00 0. -1.
         11    1    5    5    0    0 -0.17972282280E+02 -0.15756979298E+02 -0.18981316765E+02  0.30521725264E+02  0.00000000000E+00 0. -1.
        -12    1    5    5    0    0  0.39322353927E+02 -0.86008395934E+02  0.39155123906E+02  0.10235631596E+03  0.00000000000E+00 0.  1.
          5    1    4    4  501    0  0.36358554696E+02  0.14194139133E+02 -0.37086797055E+02  0.54002972151E+02  0.41800000000E+01 0.  1.
         -5    1    4    4    0  501 -0.77155147827E+02  0.11856625646E+03 -0.29112908157E+03  0.32370432271E+03  0.41800000000E+01 0.  1.
</event>
<event>
11    1  0.1078607E-008  0.1330954E+03  0.7561462E-02  0.1115523E+00
         22   -1    0    0    0    0  0.00000000000E+00  0.00000000000E+00  0.11006039715E+04  0.11006039715E+04  0.00000000000E+00 0.  1.
         22   -1    0    0    0    0 -0.00000000000E+00 -0.00000000000E+00 -0.83494590934E+03  0.83494590934E+03  0.00000000000E+00 0.  1.
         24    2    1    2    0    0  0.84332461679E+01  0.39312526639E+02 -0.76976186619E+03  0.77488231729E+03  0.79326418092E+02 0.  0.
         25    2    1    2    0    0  0.45749280156E+01 -0.81641835987E+02  0.31647649360E+02  0.15276451387E+03  0.12509637740E+03 0.  0.
        -24    2    1    2    0    0 -0.13008174184E+02  0.42329309348E+02  0.10037722790E+04  0.10079030496E+04  0.79679272325E+02 0.  0.
        -13    1    3    3    0    0  0.20379128681E+02  0.57121817076E+02 -0.67524841487E+03  0.67796654243E+03  0.00000000000E+00 0.  1.
         14    1    3    3    0    0 -0.11945882513E+02 -0.17809290437E+02 -0.94513451327E+02  0.96915774859E+02  0.00000000000E+00 0. -1.
         13    1    5    5    0    0  0.37430528980E+01  0.52696494697E+02  0.36260819980E+03  0.36643640316E+03  0.00000000000E+00 0. -1.
        -14    1    5    5    0    0 -0.16751227082E+02 -0.10367185349E+02  0.64116407916E+03  0.64146664648E+03  0.00000000000E+00 0.  1.
          5    1    4    4  501    0  0.29483075947E+01 -0.11501734057E+03  0.30349097164E+02  0.11906393765E+03  0.41800000000E+01 0. -1.
         -5    1    4    4    0  501  0.16266204209E+01  0.33375504581E+02  0.12985521956E+01  0.33700576224E+02  0.41800000000E+01 0. -1.
</event>
<event>
11    1  0.1078607E-008  0.1488751E+03  0.7561462E-02  0.1098034E+00
         22   -1    0    0    0    0  0.00000000000E+00  0.00000000000E+00  0.59177294874E+03  0.59177294874E+03  0.00000000000E+00 0.  1.
         22   -1    0    0    0    0 -0.00000000000E+00 -0.00000000000E+00 -0.85716830605E+03  0.85716830605E+03  0.00000000000E+00 0. -1.
         24    2    1    2    0    0 -0.31435807317E+02  0.73765312144E+02 -0.78700105728E+03  0.79520433859E+03  0.80930492985E+02 0.  0.
         25    2    1    2    0    0 -0.14064897595E+01 -0.10362492930E+03  0.49621954222E+02  0.16985239947E+03  0.12508954824E+03 0.  0.
        -24    2    1    2    0    0  0.32842297077E+02  0.29859617153E+02  0.47198374574E+03  0.48388451674E+03  0.96981215122E+02 0.  0.
        -13    1    3    3    0    0  0.18439418430E+02 -0.21897358259E+01 -0.23905898692E+03  0.23977907815E+03  0.00000000000E+00 0.  1.
         14    1    3    3    0    0 -0.49875225748E+02  0.75955047970E+02 -0.54794207036E+03  0.55542526043E+03  0.00000000000E+00 0. -1.
         13    1    5    5    0    0 -0.10340088991E+02  0.14042391092E+02  0.11012041698E+02  0.20624530305E+02  0.00000000000E+00 0. -1.
        -14    1    5    5    0    0  0.43182386068E+02  0.15817226061E+02  0.46097170404E+03  0.46325998643E+03  0.00000000000E+00 0.  1.
          5    1    4    4  501    0  0.83500113051E+01 -0.33712784495E+02 -0.41650577319E+02  0.54392256050E+02  0.41800000000E+01 0. -1.
         -5    1    4    4    0  501 -0.97565010646E+01 -0.69912144801E+02  0.91272531541E+02  0.11546014342E+03  0.41800000000E+01 0. -1.
</event>
<event>
11    1  0.1078607E-008  0.1440439E+03  0.7561462E-02  0.1103125E+00
         22   -1    0    0    0    0  0.00000000000E+00  0.00000000000E+00  0.39550784503E+03  0.39550784503E+03  0.00000000000E+00 0.  1.
         22   -1    0    0    0    0 -0.00000000000E+00 -0.00000000000E+00 -0.15820449779E+04  0.15820449779E+04  0.00000000000E+00 0. -1.
         24    2    1    2    0    0 -0.67209563017E+02 -0.26584825029E+02 -0.14606060446E+04  0.14645321853E+04  0.79124117794E+02 0.  0.
         25    2    1    2    0    0  0.45557020297E+02  0.30571531429E+02 -0.73639106237E+02  0.15517891277E+03  0.12509083248E+03 0.  0.
        -24    2    1    2    0    0  0.21652542720E+02 -0.39867064001E+01  0.34770801796E+03  0.35784172485E+03  0.81640111794E+02 0.  0.
        -11    1    3    3    0    0  0.82525858446E+01 -0.28441747869E+02 -0.29441681444E+03  0.29590251574E+03  0.00000000000E+00 0.  1.
         12    1    3    3    0    0 -0.75462148861E+02  0.18569228404E+01 -0.11661892301E+04  0.11686296696E+04  0.00000000000E+00 0. -1.
         13    1    5    5    0    0  0.18094069086E+02 -0.13733381904E+01  0.11241038684E+02  0.21345780486E+02  0.00000000000E+00 0. -1.
        -14    1    5    5    0    0  0.35584736339E+01 -0.26133682097E+01  0.33646697928E+03  0.33649594437E+03  0.00000000000E+00 0.  1.
          5    1    4    4  501    0 -0.14558190139E+02 -0.30594721783E+00 -0.85158378524E+02  0.86495412229E+02  0.41800000000E+01 0.  1.
         -5    1    4    4    0  501  0.60115210436E+02  0.30877478647E+02  0.11519272287E+02  0.68683500546E+02  0.41800000000E+01 0.  1.
</event>
<event>
11    1  0.1078607E-008  0.1810476E+03  0.7561462E-02  0.1068799E+00
         22   -1    0    0    0    0  0.00000000000E+00  0.00000000000E+00  0.32978992222E+04  0.32978992222E+04  0.00000000000E+00 0.  1.
         22   -1    0    0    0    0 -0.00000000000E+00 -0.00000000000E+00 -0.92324794093E+03  0.92324794093E+03  0.00000000000E+00 0.  1.
         24    2    1    2    0    0  0.94863267517E+02 -0.85121120375E+02 -0.78310793541E+03  0.79748230540E+03  0.80469523761E+02 0.  0.
         25    2    1    2    0    0 -0.11187132995E+03  0.13294625925E+03 -0.45500684243E+02  0.21887965501E+03  0.12509232110E+03 0.  0.
        -24    2    1    2    0    0  0.17008062438E+02 -0.47825138878E+02  0.32032599009E+04  0.32047852027E+04  0.84839168870E+02 0.  0.
        -13    1    3    3    0    0  0.96770954000E+02 -0.50118899109E+02 -0.67749070883E+03  0.68619981211E+03  0.00000000000E+00 0.  1.
         14    1    3    3    0    0 -0.19076864830E+01 -0.35002221266E+02 -0.10561722659E+03  0.11128249329E+03  0.00000000000E+00 0. -1.
         11    1    5    5    0    0  0.23328524556E+02  0.90140010427E+01  0.32633252776E+03  0.32728946049E+03  0.00000000000E+00 0. -1.
        -12    1    5    5    0    0 -0.63204621178E+01 -0.56839139921E+02  0.28769273732E+04  0.28774957422E+04  0.00000000000E+00 0.  1.
          5    1    4    4  501    0 -0.22625094534E+02  0.54268271341E+02 -0.75814086193E+02  0.96032225020E+02  0.41800000000E+01 0. -1.
         -5    1    4    4    0  501 -0.89246235420E+02  0.78677987912E+02  0.30313401950E+02  0.12284742999E+03  0.41800000000E+01 0. -1.
</event>
<event>
11    1  0.1078607E-008  0.1756973E+03  0.7561462E-02  0.1073177E+00
         22   -1    0    0    0    0  0.00000000000E+00  0.00000000000E+00  0.35420358251E+03  0.35420358251E+03  0.00000000000E+00 0. -1.
         22   -1    0    0    0    0 -0.00000000000E+00 -0.00000000000E+00 -0.11909329172E+04  0.11909329172E+04  0.00000000000E+00 0.  1.
        -24    2    1    2    0    0 -0.12107367149E+03  0.25023422247E+02 -0.11266904334E+04  0.11375292752E+04  0.96210776249E+02 0.  0.
         25    2    1    2    0    0  0.12359500394E+03  0.35403040344E+02  0.14795086851E+03  0.23252342382E+03  0.12509429591E+03 0.  0.
         24    2    1    2    0    0 -0.25213324422E+01 -0.60426462591E+02  0.14201023023E+03  0.17508380072E+03  0.82642103588E+02 0.  0.
        -11    1    5    5    0    0  0.40037758716E+02 -0.31593824267E+02  0.70836240029E+02  0.87286681437E+02  0.00000000000E+00 0.  1.
         12    1    5    5    0    0 -0.42559091159E+02 -0.28832638324E+02  0.71173990202E+02  0.87797119282E+02  0.00000000000E+00 0. -1.
         13    1    3    3    0    0 -0.50847346761E+02  0.15127871679E+02 -0.16703699985E+03  0.17525884997E+03  0.00000000000E+00 0. -1.
        -14    1    3    3    0    0 -0.70226324732E+02  0.98955505682E+01 -0.95965343359E+03  0.96227042520E+03  0.00000000000E+00 0.  1.
          5    1    4    4  501    0  0.49781343719E+02  0.25130980640E+02 -0.10932664679E+02  0.56980206452E+02  0.41800000000E+01 0.  1.
         -5    1    4    4    0  501  0.73813660216E+02  0.10272059704E+02  0.15888353319E+03  0.17554321737E+03  0.41800000000E+01 0.  1.
</event>
<event>
11    1  0.1078607E-008  0.1964167E+03  0.7561462E-02  0.1057087E+00
         22   -1    0    0    0    0  0.00000000000E+00  0.00000000000E+00  0.35077761680E+03  0.35077761680E+03  0.00000000000E+00 0.  1.
         22   -1    0    0    0    0 -0.00000000000E+00 -0.00000000000E+00 -0.72889010313E+03  0.72889010313E+03  0.00000000000E+00 0.  1.
         24    2    1    2    0    0 -0.12075320452E+03  0.86744270320E+02 -0.59951963924E+03  0.62268064628E+03  0.78749505274E+02 0.  0.
         25    2    1    2    0    0  0.14394985044E+03 -0.10271981298E+03 -0.30113826636E+01  0.21663085146E+03  0.12508772105E+03 0.  0.
        -24    2    1    2    0    0 -0.23196645911E+02  0.15975542663E+02  0.22441853556E+03  0.24035622219E+03  0.81327314578E+02 0.  0.
        -13    1    3    3    0    0 -0.12647655101E+03  0.91939079003E+02 -0.59025821418E+03  0.61061761489E+03  0.00000000000E+00 0.  1.
         14    1    3    3    0    0  0.57233464842E+01 -0.51948086835E+01 -0.92614250567E+01  0.12063031390E+02  0.00000000000E+00 0. -1.
         11    1    5    5    0    0 -0.22318080684E+02  0.80817498311E+01  0.99446736712E+01  0.25735344182E+02  0.00000000000E+00 0. -1.
        -12    1    5    5    0    0 -0.87856522706E+00  0.78937928322E+01  0.21447386189E+03  0.21462087801E+03  0.00000000000E+00 0.  1.
          5    1    4    4  501    0  0.51871791150E+02  0.80112904777E+01  0.40168449776E+02  0.66225676664E+02  0.41800000000E+01 0. -1.
         -5    1    4    4    0  501  0.92078059285E+02 -0.11073110346E+03 -0.43179832440E+02  0.15040517479E+03  0.41800000000E+01 0. -1.
</event>
<event>
11    1  0.1078607E-008  0.1510231E+03  0.7561462E-02  0.1095838E+00
         22   -1    0    0    0    0  0.00000000000E+00  0.00000000000E+00  0.10521912857E+03  0.10521912857E+03  0.00000000000E+00 0. -1.
         22   -1    0    0    0    0 -0.00000000000E+00 -0.00000000000E+00 -0.18755395458E+04  0.18755395458E+04  0.00000000000E+00 0. -1.
         24    2    1    2    0    0  0.37243452695E+02 -0.73504110206E+02 -0.15954775635E+04  0.15995380381E+04  0.78634284166E+02 0.  0.
         25    2    1    2    0    0 -0.10952260853E+03  0.83491189105E+02 -0.19733947707E+03  0.27121103057E+03  0.12508626405E+03 0.  0.
        -24    2    1    2    0    0  0.72279155833E+02 -0.99870788991E+01  0.22496623344E+02  0.11000960571E+03  0.79195941653E+02 0.  0.
        -11    1    3    3    0    0 -0.16844752686E+01  0.13617608946E+02 -0.40874616121E+03  0.40897640645E+03  0.00000000000E+00 0.  1.
         12    1    3    3    0    0  0.38927927964E+02 -0.87121719151E+02 -0.11867314023E+04  0.11905616317E+04  0.00000000000E+00 0. -1.
         13    1    5    5    0    0  0.85072752792E+02 -0.60004154053E+01  0.34520460317E+02  0.92005654354E+02  0.00000000000E+00 0. -1.
        -14    1    5    5    0    0 -0.12793596959E+02 -0.39866634938E+01 -0.12023836973E+02  0.18003951359E+02  0.00000000000E+00 0.  1.
          5    1    4    4  501    0 -0.10842186409E+03  0.37179561772E+02 -0.19298378728E+03  0.22449462127E+03  0.41800000000E+01 0. -1.
         -5    1    4    4    0  501 -0.11007444389E+01  0.46311627333E+02 -0.43556897967E+01  0.46716409303E+02  0.41800000000E+01 0. -1.
</event>
<event>
11    1  0.1078607E-008  0.1355232E+03  0.7561462E-02  0.1112663E+00
         22   -1    0    0    0    0  0.00000000000E+00  0.00000000000E+00  0.53587018524E+03  0.53587018524E+03  0.00000000000E+00 0.  1.
         22   -1    0    0    0    0 -0.00000000000E+00 -0.00000000000E+00 -0.26889073222E+03  0.26889073222E+03  0.00000000000E+00 0. -1.
        -24    2    1    2    0    0  0.47516230404E+02  0.14768568784E+02 -0.19677552759E+03  0.21833185277E+03  0.80450524550E+02 0.  0.
         25    2    1    2    0    0 -0.62858269376E+02 -0.41472727752E+02  0.36193786187E+02  0.15042924992E+03  0.12509124628E+03 0.  0.
         24    2    1    2    0    0  0.15342038972E+02  0.26704158968E+02  0.42756119442E+03  0.43599981477E+03  0.79616413159E+02 0.  0.
        -11    1    5    5    0    0  0.47637118194E+02  0.14011027248E+02  0.21786005157E+03  0.22344709885E+03  0.00000000000E+00 0.  1.
         12    1    5    5    0    0 -0.32295079221E+02  0.12693131720E+02  0.20970114284E+03  0.21255271592E+03  0.00000000000E+00 0. -1.
         11    1    3    3    0    0  0.66398069992E+02  0.10909087077E+02 -0.10615375716E+03  0.12568345968E+03  0.00000000000E+00 0. -1.
        -12    1    3    3    0    0 -0.18881839588E+02  0.38594817071E+01 -0.90621770434E+02  0.92648393089E+02  0.00000000000E+00 0.  1.
          5    1    4    4  501    0  0.15370783871E+02 -0.14334199892E+01 -0.34199517978E+02  0.37754405300E+02  0.41800000000E+01 0. -1.
         -5    1    4    4    0  501 -0.78229053247E+02 -0.40039307763E+02  0.70393304165E+02  0.11267484462E+03  0.41800000000E+01 0. -1.
</event>
<event>
11    1  0.1078607E-008  0.1411117E+03  0.7561462E-02  0.1106323E+00
         22   -1    0    0    0    0  0.00000000000E+00  0.00000000000E+00  0.62578642802E+03  0.62578642802E+03  0.00000000000E+00 0. -1.
         22   -1    0    0    0    0 -0.00000000000E+00 -0.00000000000E+00 -0.18564109123E+03  0.18564109123E+03  0.00000000000E+00 0. -1.
         24    2    1    2    0    0 -0.19153221078E+02 -0.29044733005E+02 -0.10926160536E+03  0.13977272163E+03  0.79924169763E+02 0.  0.
         25    2    1    2    0    0  0.75007017730E+02  0.54845641237E+02  0.60502682890E+02  0.16714571387E+03  0.12507205106E+03 0.  0.
        -24    2    1    2    0    0 -0.55853796653E+02 -0.25800908232E+02  0.48890425926E+03  0.50450908374E+03  0.10824374065E+03 0.  0.
        -13    1    3    3    0    0  0.52045088714E+01  0.22520618036E+01  0.11415325302E+02  0.12746307179E+02  0.00000000000E+00 0.  1.
         14    1    3    3    0    0 -0.24357729949E+02 -0.31296794808E+02 -0.12067693066E+03  0.12702641445E+03  0.00000000000E+00 0. -1.
         13    1    5    5    0    0 -0.61498650205E+02 -0.16809438383E+02  0.48972816299E+03  0.49386062287E+03  0.00000000000E+00 0. -1.
        -14    1    5    5    0    0  0.56448535523E+01 -0.89914698492E+01 -0.82390372748E+00  0.10648460876E+02  0.00000000000E+00 0.  1.
          5    1    4    4  501    0  0.46723132027E+01  0.54995706202E+02  0.76952513079E+02  0.94791982153E+02  0.41800000000E+01 0. -1.
         -5    1    4    4    0  501  0.70334704528E+02 -0.15006496518E+00 -0.16449830189E+02  0.72353731719E+02  0.41800000000E+01 0. -1.
</event>
<event>
11    1  0.1078607E-008  0.1342472E+03  0.7561462E-02  0.1114158E+00
         22   -1    0    0    0    0  0.00000000000E+00  0.00000000000E+00  0.54011776634E+03  0.54011776634E+03  0.00000000000E+00 0. -1.
         22   -1    0    0    0    0 -0.00000000000E+00 -0.00000000000E+00 -0.10797771075E+04  0.10797771075E+04  0.00000000000E+00 0. -1.
         24    2    1    2    0    0  0.16967363009E+02  0.44304818443E+02 -0.94611215961E+03  0.95072075906E+03  0.80566337852E+02 0.  0.
         25    2    1    2    0    0 -0.48930839349E+02 -0.58378460268E+02 -0.85271648505E+02  0.16947193092E+03  0.12508880712E+03 0.  0.
        -24    2    1    2    0    0  0.31963476340E+02  0.14073641825E+02  0.49172446695E+03  0.49970218387E+03  0.81789913548E+02 0.  0.
        -11    1    3    3    0    0  0.99352798137E+00 -0.23117373500E+02 -0.17986495028E+03  0.18134718193E+03  0.00000000000E+00 0.  1.
         12    1    3    3    0    0  0.15973835028E+02  0.67422191943E+02 -0.76624720934E+03  0.76937357713E+03  0.00000000000E+00 0. -1.
         11    1    5    5    0    0 -0.49900123176E+00 -0.19591485737E+02  0.34818679022E+03  0.34873789040E+03  0.00000000000E+00 0. -1.
        -12    1    5    5    0    0  0.32462477572E+02  0.33665127561E+02  0.14353767672E+03  0.15096429347E+03  0.00000000000E+00 0.  1.
          5    1    4    4  501    0 -0.68018343542E+02  0.46749296167E+01 -0.94765212482E+01  0.68961053357E+02  0.41800000000E+01 0.  1.
         -5    1    4    4    0  501  0.19087504193E+02 -0.63053389884E+02 -0.75795127257E+02  0.10051087756E+03  0.41800000000E+01 0.  1.
</event>
<event>
11    1  0.1078607E-008  0.2616702E+03  0.7561462E-02  0.1017860E+00
         22   -1    0    0    0    0  0.00000000000E+00  0.00000000000E+00  0.87884044785E+03  0.87884044785E+03  0.00000000000E+00 0. -1.
         22   -1    0    0    0    0 -0.00000000000E+00 -0.00000000000E+00 -0.88632557518E+03  0.88632557518E+03  0.00000000000E+00 0. -1.
        -24    2    1    2    0    0  0.59401789748E+02 -0.26890040352E+02 -0.67671597529E+03  0.68478929872E+03  0.82098876524E+02 0.  0.
         25    2    1    2    0    0  0.17575974152E+03  0.14914456395E+02 -0.12376180971E+03  0.24915586683E+03  0.12509089769E+03 0.  0.
         24    2    1    2    0    0 -0.23516153127E+03  0.11975583958E+02  0.79299265767E+03  0.83122085749E+03  0.81525446332E+02 0.  0.
        -13    1    5    5    0    0 -0.71443008518E+02 -0.60834369048E+00  0.13152479434E+03  0.14967713611E+03  0.00000000000E+00 0.  1.
         14    1    5    5    0    0 -0.16371852275E+03  0.12583927648E+02  0.66146786333E+03  0.68154372137E+03  0.00000000000E+00 0. -1.
         11    1    3    3    0    0  0.24958770050E+02 -0.46725948642E+02 -0.53465155673E+03  0.53726952416E+03  0.00000000000E+00 0. -1.
        -12    1    3    3    0    0  0.34443019698E+02  0.19835908290E+02 -0.14206441857E+03  0.14751977456E+03  0.00000000000E+00 0.  1.
          5    1    4    4  501    0  0.72591878005E+02  0.59850378437E+02 -0.20523155154E+02  0.96386310484E+02  0.41800000000E+01 0.  1.
         -5    1    4    4    0  501  0.10316786352E+03 -0.44935922042E+02 -0.10323865455E+03  0.15276955635E+03  0.41800000000E+01 0.  1.
</event>
<event>
11    1  0.1078607E-008  0.2453041E+03  0.7561462E-02  0.1026431E+00
         22   -1    0    0    0    0  0.00000000000E+00  0.00000000000E+00  0.57915266322E+02  0.57915266322E+02  0.00000000000E+00 0.  1.
         22   -1    0    0    0    0 -0.00000000000E+00 -0.00000000000E+00 -0.27599778428E+04  0.27599778428E+04  0.00000000000E+00 0. -1.
         24    2    1    2    0    0 -0.69809239132E+02  0.19892070791E+03 -0.17340665655E+04  0.17477522901E+04  0.56643056353E+02 0.  0.
         25    2    1    2    0    0  0.70866414448E+02 -0.19923889826E+03 -0.95828475014E+03  0.98928007486E+03  0.12508883597E+03 0.  0.
        -24    2    1    2    0    0 -0.10571753156E+01  0.31819035183E+00 -0.97112607653E+01  0.80860744155E+02  0.80267879597E+02 0.  0.
        -13    1    3    3    0    0 -0.51256731660E+02  0.64861925276E+02 -0.61478514293E+03  0.62031854225E+03  0.00000000000E+00 0.  1.
         14    1    3    3    0    0 -0.18552507472E+02  0.13405878264E+03 -0.11192814226E+04  0.11274337478E+04  0.00000000000E+00 0. -1.
         11    1    5    5    0    0 -0.34850246720E+02 -0.41814328014E+01 -0.25406180671E+02  0.43330106081E+02  0.00000000000E+00 0. -1.
        -12    1    5    5    0    0  0.33793071404E+02  0.44996231532E+01  0.15694919906E+02  0.37530638075E+02  0.00000000000E+00 0.  1.
          5    1    4    4  501    0  0.46923048229E+02 -0.53001840823E+01 -0.25351040594E+03  0.25790475514E+03  0.41800000000E+01 0. -1.
         -5    1    4    4    0  501  0.23943366219E+02 -0.19393871418E+03 -0.70477434421E+03  0.73137531972E+03  0.41800000000E+01 0. -1.
</event>
<event>
11    1  0.1078607E-008  0.1921518E+03  0.7561462E-02  0.1060217E+00
         22   -1    0    0    0    0  0.00000000000E+00  0.00000000000E+00  0.19682362953E+04  0.19682362953E+04  0.00000000000E+00 0. -1.
         22   -1    0    0    0    0 -0.00000000000E+00 -0.00000000000E+00 -0.12451431592E+03  0.12451431592E+03  0.00000000000E+00 0.  1.
        -24    2    1    2    0    0 -0.13026347993E+03 -0.49393470311E+02 -0.34499435118E+02  0.16729284466E+03  0.85955777800E+02 0.  0.
         25    2    1    2    0    0  0.21284931928E+03  0.84418352018E+02  0.82307832119E+03  0.86344505228E+03  0.12509254423E+03 0.  0.
         24    2    1    2    0    0 -0.82585839355E+02 -0.35024881706E+02  0.10551430933E+04  0.10620127143E+04  0.80603317088E+02 0.  0.
        -13    1    5    5    0    0 -0.23451186973E+02 -0.36099472883E+02  0.18846469616E+03  0.19331857596E+03  0.00000000000E+00 0.  1.
         14    1    5    5    0    0 -0.59134652382E+02  0.10745911763E+01  0.86667839714E+03  0.86869413831E+03  0.00000000000E+00 0. -1.
         13    1    3    3    0    0 -0.34370753398E+02  0.30303926176E+01  0.25233864660E+02  0.42746694542E+02  0.00000000000E+00 0. -1.
        -14    1    3    3    0    0 -0.95892726532E+02 -0.52423862929E+02 -0.59733299778E+02  0.12454615012E+03  0.00000000000E+00 0.  1.
          5    1    4    4  501    0  0.16717975803E+03  0.87411269276E+02  0.77203233552E+03  0.79475858031E+03  0.41800000000E+01 0.  1.
         -5    1    4    4    0  501  0.45669561254E+02 -0.29929172587E+01  0.51045985671E+02  0.68686471972E+02  0.41800000000E+01 0.  1.
</event>
<event>
11    1  0.1078607E-008  0.1442465E+03  0.7561462E-02  0.1102907E+00
         22   -1    0    0    0    0  0.00000000000E+00  0.00000000000E+00  0.23858793608E+03  0.23858793608E+03  0.00000000000E+00 0.  1.
         22   -1    0    0    0    0 -0.00000000000E+00 -0.00000000000E+00 -0.38480787875E+03  0.38480787875E+03  0.00000000000E+00 0.  1.
        -24    2    1    2    0    0  0.55153916760E+02 -0.47314562371E+02 -0.27310040874E+03  0.29412894904E+03  0.81531485101E+02 0.  0.
         25    2    1    2    0    0 -0.24233460549E+02  0.72234201270E+02 -0.28021717584E+02  0.14912378459E+03  0.12509055132E+03 0.  0.
         24    2    1    2    0    0 -0.30920456211E+02 -0.24919638899E+02  0.15490218365E+03  0.18014308121E+03  0.82944440392E+02 0.  0.
        -11    1    5    5    0    0 -0.61226803919E+01 -0.53650632343E+02  0.89680477455E+02  0.10468269008E+03  0.00000000000E+00 0.  1.
         12    1    5    5    0    0 -0.24797775819E+02  0.28730993445E+02  0.65221706196E+02  0.75460391127E+02  0.00000000000E+00 0. -1.
         11    1    3    3    0    0  0.10484288087E+02  0.23057439770E+02 -0.76665659989E+02  0.80741496437E+02  0.00000000000E+00 0. -1.
        -12    1    3    3    0    0  0.44669628673E+02 -0.70372002141E+02 -0.19643474875E+03  0.21338745260E+03  0.00000000000E+00 0.  1.
          5    1    4    4  501    0 -0.35682511514E+01 -0.23988684540E+02  0.26804140896E+02  0.36388511530E+02  0.41800000000E+01 0. -1.
         -5    1    4    4    0  501 -0.20665209398E+02  0.96222885810E+02 -0.54825858480E+02  0.11273527306E+03  0.41800000000E+01 0. -1.
</event>
<event>
11    1  0.1078607E-008  0.2040346E+03  0.7561462E-02  0.1051707E+00
         22   -1    0    0    0    0  0.00000000000E+00  0.00000000000E+00  0.79141942298E+03  0.79141942298E+03  0.00000000000E+00 0. -1.
         22   -1    0    0    0    0 -0.00000000000E+00 -0.00000000000E+00 -0.37182893200E+03  0.37182893200E+03  0.00000000000E+00 0.  1.
         24    2    1    2    0    0  0.76208966019E+02 -0.56157807013E+02 -0.25422642135E+03  0.28323599880E+03  0.81425130730E+02 0.  0.
         25    2    1    2    0    0 -0.43431512367E+02  0.20860698967E+03  0.79218024144E+02  0.25947306833E+03  0.12509038906E+03 0.  0.
        -24    2    1    2    0    0 -0.32777453652E+02 -0.15244918266E+03  0.59459888819E+03  0.62053928785E+03  0.84888486628E+02 0.  0.
        -13    1    3    3    0    0  0.47471087595E+02 -0.45086958802E+02 -0.24097331506E+03  0.24970878355E+03  0.00000000000E+00 0.  1.
         14    1    3    3    0    0  0.28737878424E+02 -0.11070848211E+02 -0.13253106298E+02  0.33527215258E+02  0.00000000000E+00 0. -1.
         11    1    5    5    0    0 -0.51268438076E+02 -0.13859074121E+03  0.55817458628E+03  0.57740342488E+03  0.00000000000E+00 0. -1.
        -12    1    5    5    0    0  0.18490984424E+02 -0.13858441442E+02  0.36424301908E+02  0.43135862964E+02  0.00000000000E+00 0.  1.
          5    1    4    4  501    0 -0.48920177626E+02  0.13086024286E+02  0.23949479044E+02  0.56173639343E+02  0.41800000000E+01 0. -1.
         -5    1    4    4    0  501  0.54886652592E+01  0.19552096538E+03  0.55268545100E+02  0.20329942899E+03  0.41800000000E+01 0. -1.
</event>
<event>
11    1  0.1078607E-008  0.1455697E+03  0.7561462E-02  0.1101494E+00
         22   -1    0    0    0    0  0.00000000000E+00  0.00000000000E+00  0.18289555110E+04  0.18289555110E+04  0.00000000000E+00 0. -1.
         22   -1    0    0    0    0 -0.00000000000E+00 -0.00000000000E+00 -0.44698039940E+03  0.44698039940E+03  0.00000000000E+00 0. -1.
        -24    2    1    2    0    0  0.75170900349E+02  0.22252692235E+02 -0.40870359196E+03  0.42374510316E+03  0.79846351204E+02 0.  0.
         25    2    1    2    0    0 -0.40692680042E+01  0.77182402363E+00  0.10620914247E+03  0.16414660508E+03  0.12508625568E+03 0.  0.
         24    2    1    2    0    0 -0.71101632345E+02 -0.23024516259E+02  0.16844695611E+04  0.16880442022E+04  0.80436034932E+02 0.  0.
        -13    1    5    5    0    0 -0.41671563053E+01 -0.75421955602E+00  0.32317511383E+01  0.53271243867E+01  0.00000000000E+00 0.  1.
         14    1    5    5    0    0 -0.66934476039E+02 -0.22270296703E+02  0.16812378100E+04  0.16827170778E+04  0.00000000000E+00 0. -1.
         11    1    3    3    0    0  0.12339886557E+02 -0.27202444215E+02 -0.15082827821E+03  0.15375765112E+03  0.00000000000E+00 0. -1.
        -12    1    3    3    0    0  0.62831013791E+02  0.49455136450E+02 -0.25787531375E+03  0.26998745204E+03  0.00000000000E+00 0.  1.
          5    1    4    4  501    0 -0.78256761502E+00  0.28696209545E+02 -0.19701411229E+02  0.35067119339E+02  0.41800000000E+01 0. -1.
         -5    1    4    4    0  501 -0.32867003892E+01 -0.27924385521E+02  0.12591055370E+03  0.12907948574E+03  0.41800000000E+01 0. -1.
</event>
<event>
11    1  0.1078607E-008  0.1352203E+03  0.7561462E-02  0.1113016E+00
         22   -1    0    0    0    0  0.00000000000E+00  0.00000000000E+00  0.25806071647E+03  0.25806071647E+03  0.00000000000E+00 0.  1.
         22   -1    0    0    0    0 -0.00000000000E+00 -0.00000000000E+00 -0.21170188953E+04  0.21170188953E+04  0.00000000000E+00 0.  1.
        -24    2    1    2    0    0 -0.29323802302E+02  0.42052922168E+02 -0.19989286634E+04  0.20012500745E+04  0.81594888003E+02 0.  0.
         25    2    1    2    0    0  0.38679747569E+02 -0.39255430432E+02 -0.66472119226E+02  0.15199831589E+03  0.12509130149E+03 0.  0.
         24    2    1    2    0    0 -0.93559452671E+01 -0.27974917352E+01  0.20644260376E+03  0.22183122140E+03  0.80592694859E+02 0.  0.
        -11    1    5    5    0    0 -0.23909548955E+02  0.33583521867E+02  0.90527780633E+02  0.99472601949E+02  0.00000000000E+00 0.  1.
         12    1    5    5    0    0  0.14553603688E+02 -0.36381013602E+02  0.11591482313E+03  0.12235861945E+03  0.00000000000E+00 0. -1.
         13    1    3    3    0    0  0.46183428234E+01 -0.28086307508E+01 -0.88069400981E+01  0.10333425909E+02  0.00000000000E+00 0. -1.
        -14    1    3    3    0    0 -0.33942145125E+02  0.44861552918E+02 -0.19901217233E+04  0.19909166486E+04  0.00000000000E+00 0.  1.
          5    1    4    4  501    0  0.79825771080E+02 -0.48555906335E+02 -0.38103344847E+02  0.10099092562E+03  0.41800000000E+01 0. -1.
         -5    1    4    4    0  501 -0.41146023511E+02  0.93004759023E+01 -0.28368774379E+02  0.51007390274E+02  0.41800000000E+01 0. -1.
</event>
<event>
11    1  0.1078607E-008  0.1524956E+03  0.7561462E-02  0.1094356E+00
         22   -1    0    0    0    0  0.00000000000E+00  0.00000000000E+00  0.30229595688E+03  0.30229595688E+03  0.00000000000E+00 0.  1.
         22   -1    0    0    0    0 -0.00000000000E+00 -0.00000000000E+00 -0.15538778142E+04  0.15538778142E+04  0.00000000000E+00 0.  1.
         24    2    1    2    0    0 -0.39108688009E+02  0.41548591583E+02 -0.91295491804E+03  0.91856458227E+03  0.83776097378E+02 0.  0.
         25    2    1    2    0    0  0.67932245980E+01 -0.12205375310E+03 -0.61316681888E+03  0.63762219186E+03  0.12508095472E+03 0.  0.
        -24    2    1    2    0    0  0.32315463411E+02  0.80505161521E+02  0.27453987958E+03  0.29998699696E+03  0.84229939183E+02 0.  0.
        -11    1    3    3    0    0 -0.76318195404E+01  0.36389963101E+02 -0.80834967909E+03  0.80920434858E+03  0.00000000000E+00 0.  1.
         12    1    3    3    0    0 -0.31476868469E+02  0.51586284824E+01 -0.10460523895E+03  0.10936023369E+03  0.00000000000E+00 0. -1.
         13    1    5    5    0    0 -0.72460001240E+00  0.45696873514E+02  0.40462870765E+02  0.61040750362E+02  0.00000000000E+00 0. -1.
        -14    1    5    5    0    0  0.33040063424E+02  0.34808288007E+02  0.23407700882E+03  0.23894624659E+03  0.00000000000E+00 0.  1.
          5    1    4    4  501    0 -0.24290399488E+02 -0.13211521320E+03 -0.40120027048E+03  0.42311178488E+03  0.41800000000E+01 0.  1.
         -5    1    4    4    0  501  0.31083624086E+02  0.10061460098E+02 -0.21196654840E+03  0.21451040699E+03  0.41800000000E+01 0.  1.
</event>
<event>
11    1  0.1078607E-008  0.1367100E+03  0.7561462E-02  0.1111289E+00
         22   -1    0    0    0    0  0.00000000000E+00  0.00000000000E+00  0.47947619952E+03  0.47947619952E+03  0.00000000000E+00 0. -1.
         22   -1    0    0    0    0 -0.00000000000E+00 -0.00000000000E+00 -0.79845603720E+03  0.79845603720E+03  0.00000000000E+00 0. -1.
         24    2    1    2    0    0 -0.39059974806E+02 -0.39549562556E+02 -0.76275896803E+03  0.76916755284E+03  0.82022140258E+02 0.  0.
         25    2    1    2    0    0  0.15641068989E+02  0.33109864391E+02  0.13058327384E+03  0.18449678497E+03  0.12508463574E+03 0.  0.
        -24    2    1    2    0    0  0.23418905816E+02  0.64396981650E+01  0.31319585651E+03  0.32426789891E+03  0.80424566288E+02 0.  0.
        -11    1    3    3    0    0  0.14291177640E+02 -0.14480396268E+02 -0.50079322477E+02  0.54054215138E+02  0.00000000000E+00 0.  1.
         12    1    3    3    0    0 -0.53351152446E+02 -0.25069166288E+02 -0.71267964556E+03  0.71511333770E+03  0.00000000000E+00 0. -1.
         11    1    5    5    0    0  0.21356071325E+02  0.39278818197E+02  0.23837578729E+03  0.24253231395E+03  0.00000000000E+00 0. -1.
        -12    1    5    5    0    0  0.20628344918E+01 -0.32839120032E+02  0.74820069224E+02  0.81735584963E+02  0.00000000000E+00 0.  1.
          5    1    4    4  501    0  0.80028893196E+01  0.49519535832E+02  0.14964278930E+03  0.15788181484E+03  0.41800000000E+01 0.  1.
         -5    1    4    4    0  501  0.76381796697E+01 -0.16409671441E+02 -0.19059515462E+02  0.26614970131E+02  0.41800000000E+01 0.  1.
</event>
<event>
11    1  0.1078607E-008  0.1693713E+03  0.7561462E-02  0.1078580E+00
         22   -1    0    0    0    0  0.00000000000E+00  0.00000000000E+00  0.93440533889E+02  0.93440533889E+02  0.00000000000E+00 0.  1.
         22   -1    0    0    0    0 -0.00000000000E+00 -0.00000000000E+00 -0.84685939563E+03  0.84685939563E+03  0.00000000000E+00 0.  1.
        -24    2    1    2    0    0  0.19624177798E+02 -0.13909261747E+02 -0.56292721435E+03  0.56912286568E+03  0.80219771029E+02 0.  0.
         25    2    1    2    0    0  0.99054522744E+02  0.31502954536E+02 -0.14942580482E+03  0.22085741992E+03  0.12508274928E+03 0.  0.
         24    2    1    2    0    0 -0.11867870054E+03 -0.17593692789E+02 -0.41065842562E+02  0.15031964392E+03  0.80718151203E+02 0.  0.
        -13    1    5    5    0    0 -0.92759911314E+02 -0.17993083006E+02 -0.65281155363E+02  0.11484677370E+03  0.00000000000E+00 0.  1.
         14    1    5    5    0    0 -0.25918789228E+02  0.39939021646E+00  0.24215312801E+02  0.35472870220E+02  0.00000000000E+00 0. -1.
         11    1    3    3    0    0  0.33323722715E+02  0.55110035664E+01 -0.99306126171E+02  0.10489303290E+03  0.00000000000E+00 0. -1.
        -12    1    3    3    0    0 -0.13699544917E+02 -0.19420265314E+02 -0.46362108818E+03  0.46422983278E+03  0.00000000000E+00 0.  1.
          5    1    4    4  501    0 -0.29428136928E+02  0.14115080788E+02 -0.29340667742E+02  0.44086255593E+02  0.41800000000E+01 0. -1.
         -5    1    4    4    0  501  0.12848265967E+03  0.17387873748E+02 -0.12008513708E+03  0.17677116433E+03  0.41800000000E+01 0. -1.
</event>
<event>
11    1  0.1078607E-008  0.1547665E+03  0.7561462E-02  0.1092105E+00
         22   -1    0    0    0    0  0.00000000000E+00  0.00000000000E+00  0.23118251498E+03  0.23118251498E+03  0.00000000000E+00 0.  1.
         22   -1    0    0    0    0 -0.00000000000E+00 -0.00000000000E+00 -0.29730972328E+03  0.29730972328E+03  0.00000000000E+00 0.  1.
        -24    2    1    2    0    0 -0.10573472601E+00  0.30404189226E+02 -0.17742596209E+03  0.19475787416E+03  0.74338628056E+02 0.  0.
         25    2    1    2    0    0 -0.89201210211E+02 -0.42155420139E+02 -0.14555116718E+02  0.15997479999E+03  0.12508457083E+03 0.  0.
         24    2    1    2    0    0  0.89306944937E+02  0.11751230913E+02  0.12585387051E+03  0.17375956411E+03  0.78989667396E+02 0.  0.
        -13    1    5    5    0    0  0.78791396459E+02  0.40819724599E+02  0.97133296294E+02  0.13156447591E+03  0.00000000000E+00 0.  1.
         14    1    5    5    0    0  0.10515548479E+02 -0.29068493686E+02  0.28720574212E+02  0.42195088198E+02  0.00000000000E+00 0. -1.
         13    1    3    3    0    0  0.45378589611E+01  0.31641720900E+01 -0.16389778415E+03  0.16399112109E+03  0.00000000000E+00 0. -1.
        -14    1    3    3    0    0 -0.46435936871E+01  0.27240017136E+02 -0.13528177946E+02  0.30766753070E+02  0.00000000000E+00 0.  1.
          5    1    4    4  501    0  0.31969611090E+02 -0.90042255293E+01 -0.58258923068E+01  0.33978604029E+02  0.41800000000E+01 0. -1.
         -5    1    4    4    0  501 -0.12117082130E+03 -0.33151194610E+02 -0.87292244116E+01  0.12599619596E+03  0.41800000000E+01 0. -1.
</event>
<event>
11    1  0.1078607E-008  0.1435903E+03  0.7561462E-02  0.1103614E+00
         22   -1    0    0    0    0  0.00000000000E+00  0.00000000000E+00  0.19450644685E+03  0.19450644685E+03  0.00000000000E+00 0. -1.
         22   -1    0    0    0    0 -0.00000000000E+00 -0.00000000000E+00 -0.91305734928E+03  0.91305734928E+03  0.00000000000E+00 0.  1.
         24    2    1    2    0    0  0.78339552347E+02  0.16102893820E+02 -0.57092307858E+03  0.57918547919E+03  0.55733912505E+02 0.  0.
         25    2    1    2    0    0 -0.38191039080E+02 -0.13564239680E+02 -0.31363428972E+03  0.34008224748E+03  0.12508766246E+03 0.  0.
        -24    2    1    2    0    0 -0.40148513267E+02 -0.25386541393E+01  0.16600646587E+03  0.18829606945E+03  0.79239606127E+02 0.  0.
        -13    1    3    3    0    0  0.65728730490E+02  0.19395289945E+02 -0.55182360426E+03  0.55606270645E+03  0.00000000000E+00 0.  1.
         14    1    3    3    0    0  0.12610821857E+02 -0.32923961252E+01 -0.19099474317E+02  0.23122772743E+02  0.00000000000E+00 0. -1.
         13    1    5    5    0    0 -0.27101091206E+02 -0.51985989934E+01  0.17163525425E+03  0.17383945202E+03  0.00000000000E+00 0. -1.
        -14    1    5    5    0    0 -0.13047422061E+02  0.26599448542E+01 -0.56287883817E+01  0.14456617437E+02  0.00000000000E+00 0.  1.
          5    1    4    4  501    0 -0.13677891343E+02 -0.38151954486E+02 -0.29966947321E+03  0.30242672157E+03  0.41800000000E+01 0.  1.
         -5    1    4    4    0  501 -0.24513147737E+02  0.24587714806E+02 -0.13964816501E+02  0.37655525906E+02  0.41800000000E+01 0.  1.
</event>
<event>
11    1  0.1078607E-008  0.1416319E+03  0.7561462E-02  0.1105750E+00
         22   -1    0    0    0    0  0.00000000000E+00  0.00000000000E+00  0.76501841695E+03  0.76501841695E+03  0.00000000000E+00 0.  1.
         22   -1    0    0    0    0 -0.00000000000E+00 -0.00000000000E+00 -0.45025854991E+03  0.45025854991E+03  0.00000000000E+00 0.  1.
         24    2    1    2    0    0 -0.28488939636E+02  0.24255579050E+02 -0.40539677650E+03  0.41497789166E+03  0.80375066866E+02 0.  0.
         25    2    1    2    0    0 -0.35917861169E+02 -0.46996158014E+02  0.98506235813E+02  0.16988345716E+03  0.12513264524E+03 0.  0.
        -24    2    1    2    0    0  0.64406800805E+02  0.22740578963E+02  0.62165040773E+03  0.63041561803E+03  0.79430800717E+02 0.  0.
        -11    1    3    3    0    0 -0.18144613533E+02  0.41477440699E+02 -0.37955620795E+03  0.38224667439E+03  0.00000000000E+00 0.  1.
         12    1    3    3    0    0 -0.10344326102E+02 -0.17221861649E+02 -0.25840568552E+02  0.32731217274E+02  0.00000000000E+00 0. -1.
         11    1    5    5    0    0  0.24878937096E+02  0.11935497527E+02  0.48484860931E+02  0.55787089472E+02  0.00000000000E+00 0. -1.
        -12    1    5    5    0    0  0.39527863709E+02  0.10805081436E+02  0.57316554680E+03  0.57462852856E+03  0.00000000000E+00 0.  1.
          5    1    4    4  501    0 -0.58012979469E+02 -0.72055120303E+02  0.36910126684E+02  0.99685886667E+02  0.41800000000E+01 0. -1.
         -5    1    4    4    0  501  0.22095118300E+02  0.25058962289E+02  0.61596109129E+02  0.70197570496E+02  0.41800000000E+01 0. -1.
</event>
<event>
11    1  0.1078607E-008  0.1294962E+03  0.7561462E-02  0.1119890E+00
         22   -1    0    0    0    0  0.00000000000E+00  0.00000000000E+00  0.16355833048E+04  0.16355833048E+04  0.00000000000E+00 0.  1.
         22   -1    0    0    0    0 -0.00000000000E+00 -0.00000000000E+00 -0.11049331820E+03  0.11049331820E+03  0.00000000000E+00 0.  1.
         24    2    1    2    0    0 -0.16708001778E+02 -0.34506521982E+02 -0.65778942735E+02  0.11106405194E+03  0.80860972936E+02 0.  0.
         25    2    1    2    0    0 -0.13151961456E+02  0.49023885296E+02  0.21237955571E+03  0.25165443084E+03  0.12509421033E+03 0.  0.
        -24    2    1    2    0    0  0.29859963234E+02 -0.14517363314E+02  0.13784893736E+04  0.13833581402E+04  0.11110544389E+03 0.  0.
        -11    1    3    3    0    0 -0.23820721492E+02 -0.46359766705E+02 -0.77189812462E+02  0.93139260729E+02  0.00000000000E+00 0.  1.
         12    1    3    3    0    0  0.71127197140E+01  0.11853244722E+02  0.11410869726E+02  0.17924791215E+02  0.00000000000E+00 0. -1.
         13    1    5    5    0    0 -0.58654617424E+01 -0.11096715270E+02  0.15719368405E+02  0.20115647499E+02  0.00000000000E+00 0. -1.
        -14    1    5    5    0    0  0.35725424976E+02 -0.34206480445E+01  0.13627700052E+04  0.13632424927E+04  0.00000000000E+00 0.  1.
          5    1    4    4  501    0  0.31467173059E+02 -0.28365310707E+02  0.45409040906E+02  0.62243290625E+02  0.41800000000E+01 0.  1.
         -5    1    4    4    0  501 -0.44619134515E+02  0.77389196004E+02  0.16697051481E+03  0.18941114022E+03  0.41800000000E+01 0.  1.
</event>
<event>
11    1  0.1078607E-008  0.1724679E+03  0.7561462E-02  0.1075904E+00
         22   -1    0    0    0    0  0.00000000000E+00  0.00000000000E+00  0.43876712907E+04  0.43876712907E+04  0.00000000000E+00 0. -1.
         22   -1    0    0    0    0 -0.00000000000E+00 -0.00000000000E+00 -0.11749026768E+04  0.11749026768E+04  0.00000000000E+00 0. -1.
         24    2    1    2    0    0 -0.36252740386E+02  0.10632811561E+02 -0.11575365679E+04  0.11608186146E+04  0.78623356129E+02 0.  0.
         25    2    1    2    0    0 -0.62662826351E+02 -0.79832382555E+02  0.43624293583E+03  0.46502963974E+03  0.12507928554E+03 0.  0.
        -24    2    1    2    0    0  0.98915566737E+02  0.69199570994E+02  0.39340622460E+04  0.39367257132E+04  0.79941952238E+02 0.  0.
        -13    1    3    3    0    0  0.15656451192E+01  0.27746354683E+02 -0.85454682282E+03  0.85499858703E+03  0.00000000000E+00 0.  1.
         14    1    3    3    0    0 -0.37818385505E+02 -0.17113543122E+02 -0.30298974505E+03  0.30582002754E+03  0.00000000000E+00 0. -1.
         11    1    5    5    0    0  0.71046669865E+02  0.51463650030E+02  0.35922197875E+04  0.35932908507E+04  0.00000000000E+00 0. -1.
        -12    1    5    5    0    0  0.27868896872E+02  0.17735920964E+02  0.34184245853E+03  0.34343486247E+03  0.00000000000E+00 0.  1.
          5    1    4    4  501    0 -0.63337069090E+02 -0.11183008119E+03  0.35785075391E+03  0.38025279204E+03  0.41800000000E+01 0.  1.
         -5    1    4    4    0  501  0.67424273929E+00  0.31997698635E+02  0.78392181913E+02  0.84776847702E+02  0.41800000000E+01 0.  1.
</event>
<event>
11    1  0.1078607E-008  0.2662785E+03  0.7561462E-02  0.1015568E+00
         22   -1    0    0    0    0  0.00000000000E+00  0.00000000000E+00  0.19444735466E+04  0.19444735466E+04  0.00000000000E+00 0.  1.
         22   -1    0    0    0    0 -0.00000000000E+00 -0.00000000000E+00 -0.15890886996E+04  0.15890886996E+04  0.00000000000E+00 0.  1.
         24    2    1    2    0    0 -0.21930630842E+03 -0.93758265687E+02 -0.13713119396E+04  0.13944067829E+04  0.83594086083E+02 0.  0.
         25    2    1    2    0    0  0.22092326340E+03  0.17793169165E+02 -0.12529643722E+03  0.28367289437E+03  0.12508968240E+03 0.  0.
        -24    2    1    2    0    0 -0.16169549830E+01  0.75965096522E+02  0.18519932238E+04  0.18554825689E+04  0.84636588699E+02 0.  0.
        -11    1    3    3    0    0 -0.20509161539E+03 -0.68475916411E+02 -0.10651756370E+04  0.10868995628E+04  0.00000000000E+00 0.  1.
         12    1    3    3    0    0 -0.14214693022E+02 -0.25282349276E+02 -0.30613630257E+03  0.30750722014E+03  0.00000000000E+00 0. -1.
         11    1    5    5    0    0 -0.36425830442E+02  0.64371234216E+02  0.10183726219E+04  0.10210549906E+04  0.00000000000E+00 0. -1.
        -12    1    5    5    0    0  0.34808875459E+02  0.11593862306E+02  0.83362060195E+03  0.83442757831E+03  0.00000000000E+00 0.  1.
          5    1    4    4  501    0  0.10270299741E+02  0.12092951098E+02  0.21334460883E+02  0.26913753811E+02  0.41800000000E+01 0. -1.
         -5    1    4    4    0  501  0.21065296366E+03  0.57002180675E+01 -0.14663089810E+03  0.25675914056E+03  0.41800000000E+01 0. -1.
</event>
<event>
11    1  0.1144590E-008  0.3465348E+03  0.7561462E-02  0.9822180E-01
         22   -1    0    0    0    0  0.00000000000E+00  0.00000000000E+00  0.11410819727E+04  0.11410819727E+04  0.00000000000E+00 0.  1.
         22   -1    0    0    0    0 -0.00000000000E+00 -0.00000000000E+00 -0.42468923322E+03  0.42468923322E+03  0.00000000000E+00 0. -1.
        -24    2    1    2    0    0 -0.10076803808E+03 -0.30618236836E+02 -0.34098689534E+03  0.36558207946E+03  0.79287578484E+02 0.  0.
         25    2    1    2    0    0 -0.11932635688E+02  0.33665337774E+01 -0.75791217821E+01  0.12593050308E+03  0.12508927682E+03 0.  0.
         24    2    1    2    0    0  0.11270067377E+03  0.27251703059E+02  0.10649587566E+04  0.10742586234E+04  0.80314005269E+02 0.  0.
        -13    1    5    5    0    0  0.11050862184E+03 -0.20913641209E+01  0.78164688824E+03  0.78942281903E+03  0.00000000000E+00 0.  1.
         14    1    5    5    0    0  0.21920519273E+01  0.29343067180E+02  0.28331186836E+03  0.28483580434E+03  0.00000000000E+00 0. -1.
         13    1    3    3    0    0 -0.69771821108E+02 -0.91002212576E+01 -0.30646793948E+03  0.31444159867E+03  0.00000000000E+00 0. -1.
        -14    1    3    3    0    0 -0.30996216976E+02 -0.21518015579E+02 -0.34518955860E+02  0.51140480785E+02  0.00000000000E+00 0.  1.
          5    1    4    4  501    0  0.31421783845E+02  0.50543508028E+02  0.70507438044E+01  0.60076285604E+02  0.41800000000E+01 0. -1.
         -5    1    4    4    0  501 -0.43354419533E+02 -0.47176974251E+02 -0.14629865586E+02  0.65854217478E+02  0.41800000000E+01 0. -1.
</event>
<event>
11    1  0.1078607E-008  0.3063211E+03  0.7561462E-02  0.9975510E-01
         22   -1    0    0    0    0  0.00000000000E+00  0.00000000000E+00  0.55666392221E+03  0.55666392221E+03  0.00000000000E+00 0.  1.
         22   -1    0    0    0    0 -0.00000000000E+00 -0.00000000000E+00 -0.52790792342E+03  0.52790792342E+03  0.00000000000E+00 0. -1.
         24    2    1    2    0    0 -0.19338658275E+02 -0.18296554559E+02 -0.33081485330E+03  0.34227612386E+03  0.83700240075E+02 0.  0.
         25    2    1    2    0    0 -0.57850190107E+02  0.28322954052E+03  0.48617806551E+02  0.31871382181E+03  0.12509673050E+03 0.  0.
        -24    2    1    2    0    0  0.77188848381E+02 -0.26493298596E+03  0.31095304553E+03  0.42358189996E+03  0.81130907065E+02 0.  0.
        -13    1    3    3    0    0 -0.20762061689E+02 -0.14418042486E+02 -0.22224623168E+02  0.33658238659E+02  0.00000000000E+00 0.  1.
         14    1    3    3    0    0  0.14234034140E+01 -0.38785120734E+01 -0.30859023013E+03  0.30861788520E+03  0.00000000000E+00 0. -1.
         13    1    5    5    0    0 -0.11715429135E+02 -0.91664144452E+02  0.88914828512E+02  0.12823967166E+03  0.00000000000E+00 0. -1.
        -14    1    5    5    0    0  0.88904277517E+02 -0.17326884151E+03  0.22203821702E+03  0.29534222830E+03  0.00000000000E+00 0.  1.
          5    1    4    4  501    0  0.38540173309E+02  0.61709912732E+02  0.38102323243E+01  0.72975671003E+02  0.41800000000E+01 0.  1.
         -5    1    4    4    0  501 -0.96390363415E+02  0.22151962779E+03  0.44807574226E+02  0.24573815081E+03  0.41800000000E+01 0.  1.
</event>
<event>
11    1  0.1078607E-008  0.2581853E+03  0.7561462E-02  0.1019627E+00
         22   -1    0    0    0    0  0.00000000000E+00  0.00000000000E+00  0.59008176059E+03  0.59008176059E+03  0.00000000000E+00 0.  1.
         22   -1    0    0    0    0 -0.00000000000E+00 -0.00000000000E+00 -0.56756412696E+03  0.56756412696E+03  0.00000000000E+00 0. -1.
         24    2    1    2    0    0  0.25035659443E+02  0.21491922633E+02 -0.19987759932E+03  0.21875883708E+03  0.82557174787E+02 0.  0.
         25    2    1    2    0    0 -0.15694319400E+03 -0.20181227842E+03 -0.26983357294E+03  0.39219464385E+03  0.12508844758E+03 0.  0.
        -24    2    1    2    0    0  0.13190753456E+03  0.18032035578E+03  0.49222880589E+03  0.54669240661E+03  0.81660037460E+02 0.  0.
        -11    1    3    3    0    0  0.19897509966E+02 -0.26877291476E+02 -0.42757139219E+02  0.54281420892E+02  0.00000000000E+00 0.  1.
         12    1    3    3    0    0  0.51381494770E+01  0.48369214108E+02 -0.15712046011E+03  0.16447741619E+03  0.00000000000E+00 0. -1.
         11    1    5    5    0    0  0.10565523404E+03  0.75763105760E+02  0.27510718445E+03  0.30428118510E+03  0.00000000000E+00 0. -1.
        -12    1    5    5    0    0  0.26252300515E+02  0.10455725002E+03  0.21712162144E+03  0.24241122151E+03  0.00000000000E+00 0.  1.
          5    1    4    4  501    0 -0.15001182981E+03 -0.10783498060E+03 -0.14061415878E+03  0.23221056430E+03  0.41800000000E+01 0. -1.
         -5    1    4    4    0  501 -0.69313641940E+01 -0.93977297818E+02 -0.12921941416E+03  0.15998407955E+03  0.41800000000E+01 0. -1.
</event>
<event>
11    1  0.1078607E-008  0.1420230E+03  0.7561462E-02  0.1105320E+00
         22   -1    0    0    0    0  0.00000000000E+00  0.00000000000E+00  0.81263500936E+03  0.81263500936E+03  0.00000000000E+00 0.  1.
         22   -1    0    0    0    0 -0.00000000000E+00 -0.00000000000E+00 -0.12618404051E+04  0.12618404051E+04  0.00000000000E+00 0.  1.
        -24    2    1    2    0    0 -0.68571065726E+01  0.60195153822E+02 -0.12096513168E+04  0.12138184538E+04  0.80177640300E+02 0.  0.
         25    2    1    2    0    0  0.36055563495E+02  0.49600766585E+01  0.46137531692E+02  0.13822269160E+03  0.12510889106E+03 0.  0.
         24    2    1    2    0    0 -0.29198456922E+02 -0.65155230480E+02  0.71430838940E+03  0.72243426907E+03  0.81098976640E+02 0.  0.
        -13    1    5    5    0    0 -0.34215661621E+02 -0.67452205262E+02  0.71267839522E+03  0.71668054704E+03  0.00000000000E+00 0.  1.
         14    1    5    5    0    0  0.50172046988E+01  0.22969747819E+01  0.16299941804E+01  0.57537220272E+01  0.00000000000E+00 0. -1.
         13    1    3    3    0    0  0.33737067931E+02  0.19070284164E+02 -0.66031253998E+03  0.66144880070E+03  0.00000000000E+00 0. -1.
        -14    1    3    3    0    0 -0.40594174503E+02  0.41124869658E+02 -0.54933877686E+03  0.55236965310E+03  0.00000000000E+00 0.  1.
          5    1    4    4  501    0 -0.36405728497E+02  0.34272859102E+02  0.68521426472E+01  0.50640203369E+02  0.41800000000E+01 0.  1.
         -5    1    4    4    0  501  0.72461291992E+02 -0.29312782443E+02  0.39285389045E+02  0.87582488228E+02  0.41800000000E+01 0.  1.
</event>
<event>
11    1  0.1078607E-008  0.1747838E+03  0.7561462E-02  0.1073942E+00
         22   -1    0    0    0    0  0.00000000000E+00  0.00000000000E+00  0.12810102922E+04  0.12810102922E+04  0.00000000000E+00 0.  1.
         22   -1    0    0    0    0 -0.00000000000E+00 -0.00000000000E+00 -0.99749308018E+03  0.99749308018E+03  0.00000000000E+00 0. -1.
         24    2    1    2    0    0  0.11751429214E+03 -0.15335389510E+02 -0.67985468810E+03  0.69473838298E+03  0.80088955687E+02 0.  0.
         25    2    1    2    0    0 -0.13787216935E+03 -0.15771872953E+02 -0.28032782861E+03  0.33687929602E+03  0.12508589663E+03 0.  0.
        -24    2    1    2    0    0  0.20357877208E+02  0.31107262463E+02  0.12436997288E+04  0.12468856934E+04  0.80949442052E+02 0.  0.
        -13    1    3    3    0    0 -0.11344140771E+02 -0.78822236390E+01 -0.56950693033E+02  0.58602051297E+02  0.00000000000E+00 0.  1.
         14    1    3    3    0    0  0.12885843291E+03 -0.74531658707E+01 -0.62290399507E+03  0.63613633168E+03  0.00000000000E+00 0. -1.
         13    1    5    5    0    0 -0.66284082382E+01 -0.16084189900E+02  0.75004274643E+03  0.75024446578E+03  0.00000000000E+00 0. -1.
        -14    1    5    5    0    0  0.26986285446E+02  0.47191452363E+02  0.49365698233E+03  0.49664122763E+03  0.00000000000E+00 0.  1.
          5    1    4    4  501    0 -0.13590981855E+03 -0.26195651740E+02 -0.29036229570E+03  0.32169150768E+03  0.41800000000E+01 0. -1.
         -5    1    4    4    0  501 -0.19623508019E+01  0.10423778787E+02  0.10034467091E+02  0.15187788341E+02  0.41800000000E+01 0. -1.
</event>
<event>
11    1  0.1078607E-008  0.1314433E+03  0.7561462E-02  0.1117508E+00
         22   -1    0    0    0    0  0.00000000000E+00  0.00000000000E+00  0.64582041623E+03  0.64582041623E+03  0.00000000000E+00 0. -1.
         22   -1    0    0    0    0 -0.00000000000E+00 -0.00000000000E+00 -0.90334912843E+03  0.90334912843E+03  0.00000000000E+00 0.  1.
         24    2    1    2    0    0  0.41484861537E+02 -0.23103391092E+01 -0.80208526895E+03  0.80725608251E+03  0.81211284227E+02 0.  0.
         25    2    1    2    0    0 -0.22944051028E+02 -0.12910558883E+02 -0.53195426065E+02  0.13843413330E+03  0.12506455893E+03 0.  0.
        -24    2    1    2    0    0 -0.18540810509E+02  0.15220897992E+02  0.59775198281E+03  0.60347932886E+03  0.79400440924E+02 0.  0.
        -11    1    3    3    0    0 -0.10607916321E+02  0.18092421227E+01 -0.53492937747E+03  0.53503760627E+03  0.00000000000E+00 0.  1.
         12    1    3    3    0    0  0.52092777859E+02 -0.41195812319E+01 -0.26715589148E+03  0.27221847624E+03  0.00000000000E+00 0. -1.
         13    1    5    5    0    0 -0.48465725826E+02 -0.84977373094E+00  0.38354950644E+03  0.38660040427E+03  0.00000000000E+00 0. -1.
        -14    1    5    5    0    0  0.29924915318E+02  0.16070671723E+02  0.21420247637E+03  0.21687892458E+03  0.00000000000E+00 0.  1.
          5    1    4    4  501    0 -0.23302205351E+01  0.20855453580E+02  0.35373320821E+02  0.41341554127E+02  0.41800000000E+01 0.  1.
         -5    1    4    4    0  501 -0.20613830493E+02 -0.33766012463E+02 -0.88568746885E+02  0.97092579171E+02  0.41800000000E+01 0.  1.
</event>
<event>
11    1  0.1078607E-008  0.1498887E+03  0.7561462E-02  0.1096993E+00
         22   -1    0    0    0    0  0.00000000000E+00  0.00000000000E+00  0.15243591905E+04  0.15243591905E+04  0.00000000000E+00 0. -1.
         22   -1    0    0    0    0 -0.00000000000E+00 -0.00000000000E+00 -0.63963450418E+02  0.63963450418E+02  0.00000000000E+00 0. -1.
         24    2    1    2    0    0 -0.78489040997E+02 -0.16750336273E+02  0.18143307986E+02  0.11568358506E+03  0.81316719716E+02 0.  0.
         25    2    1    2    0    0  0.96861255200E+02  0.20286052071E+02  0.45937304875E+03  0.48627680756E+03  0.12509160237E+03 0.  0.
        -24    2    1    2    0    0 -0.18372214203E+02 -0.35357157979E+01  0.98287938339E+03  0.98636224834E+03  0.80675666276E+02 0.  0.
        -11    1    3    3    0    0 -0.86373066942E+02  0.28311068551E+01  0.29992740391E+02  0.91476151729E+02  0.00000000000E+00 0.  1.
         12    1    3    3    0    0  0.78840259452E+01 -0.19581443128E+02 -0.11849432404E+02  0.24207433329E+02  0.00000000000E+00 0. -1.
         13    1    5    5    0    0 -0.43830151512E+02  0.12581233172E+02  0.37929344582E+03  0.38202472126E+03  0.00000000000E+00 0. -1.
        -14    1    5    5    0    0  0.25457937309E+02 -0.16116948970E+02  0.60358593757E+03  0.60433752709E+03  0.00000000000E+00 0.  1.
          5    1    4    4  501    0  0.94936234683E+02 -0.22182794684E+02  0.19057654959E+03  0.21410711966E+03  0.41800000000E+01 0.  1.
         -5    1    4    4    0  501  0.19250205166E+01  0.42468846755E+02  0.26879649917E+03  0.27216968790E+03  0.41800000000E+01 0.  1.
</event>
<event>
11    1  0.1078607E-008  0.1482292E+03  0.7561462E-02  0.1098702E+00
         22   -1    0    0    0    0  0.00000000000E+00  0.00000000000E+00  0.66460472363E+02  0.66460472363E+02  0.00000000000E+00 0. -1.
         22   -1    0    0    0    0 -0.00000000000E+00 -0.00000000000E+00 -0.44408083495E+04  0.44408083495E+04  0.00000000000E+00 0.  1.
        -24    2    1    2    0    0 -0.42311767215E+02 -0.19655793231E+02 -0.31256252898E+04  0.31270562235E+04  0.82283269476E+02 0.  0.
         25    2    1    2    0    0 -0.83189412632E+01  0.81555154109E+02 -0.12566779094E+04  0.12655466274E+04  0.12509376595E+03 0.  0.
         24    2    1    2    0    0  0.50630708478E+02 -0.61899360878E+02  0.79553220984E+01  0.11466597096E+03  0.81792409362E+02 0.  0.
        -13    1    5    5    0    0  0.75071125738E+01 -0.34410607119E+00 -0.29676564854E+02  0.30613292044E+02  0.00000000000E+00 0.  1.
         14    1    5    5    0    0  0.43123595904E+02 -0.61555254806E+02  0.37631886953E+02  0.84052678920E+02  0.00000000000E+00 0. -1.
         13    1    3    3    0    0  0.42257774749E+01  0.10798678559E+02 -0.72266898378E+02  0.73191346859E+02  0.00000000000E+00 0. -1.
        -14    1    3    3    0    0 -0.46537544690E+02 -0.30454471790E+02 -0.30533583915E+04  0.30538648766E+04  0.00000000000E+00 0.  1.
          5    1    4    4  501    0  0.55112904324E+02  0.44840010378E+02 -0.45734910467E+03  0.46285390210E+03  0.41800000000E+01 0. -1.
         -5    1    4    4    0  501 -0.63431845587E+02  0.36715143731E+02 -0.79932880475E+03  0.80269272534E+03  0.41800000000E+01 0. -1.
</event>
<event>
11    1  0.1078607E-008  0.1405504E+03  0.7561462E-02  0.1106945E+00
         22   -1    0    0    0    0  0.00000000000E+00  0.00000000000E+00  0.12283248242E+04  0.12283248242E+04  0.00000000000E+00 0. -1.
         22   -1    0    0    0    0 -0.00000000000E+00 -0.00000000000E+00 -0.12490831459E+03  0.12490831459E+03  0.00000000000E+00 0. -1.
         24    2    1    2    0    0 -0.40808048819E+02  0.42051188960E+02 -0.36101995491E+02  0.10689471145E+03  0.81789522043E+02 0.  0.
         25    2    1    2    0    0  0.59044631047E+02 -0.54853780343E+02  0.55009112149E+02  0.15865966530E+03  0.12510667968E+03 0.  0.
        -24    2    1    2    0    0 -0.18236582227E+02  0.12802591384E+02  0.10845093930E+04  0.10876787620E+04  0.79924881533E+02 0.  0.
        -13    1    3    3    0    0 -0.96913676176E+01  0.11510461119E+02  0.26577987223E+02  0.30541819303E+02  0.00000000000E+00 0.  1.
         14    1    3    3    0    0 -0.31116681202E+02  0.30540727840E+02 -0.62679982715E+02  0.76352892147E+02  0.00000000000E+00 0. -1.
         11    1    5    5    0    0 -0.83041727931E+01  0.23350931061E+02  0.10494623986E+04  0.10497549958E+04  0.00000000000E+00 0. -1.
        -12    1    5    5    0    0 -0.99324094344E+01 -0.10548339677E+02  0.35046994389E+02  0.37923766200E+02  0.00000000000E+00 0.  1.
          5    1    4    4  501    0  0.50830830810E+02  0.31809186196E+02  0.33816639471E+02  0.68968363707E+02  0.41800000000E+01 0.  1.
         -5    1    4    4    0  501  0.82138002365E+01 -0.86662966540E+02  0.21192472678E+02  0.89691301596E+02  0.41800000000E+01 0.  1.
</event>
<event>
11    1  0.1078607E-008  0.1721318E+03  0.7561462E-02  0.1076191E+00
         22   -1    0    0    0    0  0.00000000000E+00  0.00000000000E+00  0.15355932689E+04  0.15355932689E+04  0.00000000000E+00 0.  1.
         22   -1    0    0    0    0 -0.00000000000E+00 -0.00000000000E+00 -0.12788740442E+04  0.12788740442E+04  0.00000000000E+00 0. -1.
         24    2    1    2    0    0  0.71731767852E+02  0.94364387792E+02 -0.12553838497E+04  0.12634683564E+04  0.79458123551E+02 0.  0.
         25    2    1    2    0    0 -0.13326584206E+03  0.63087706678E+01  0.57935730000E+03  0.60753758474E+03  0.12508977002E+03 0.  0.
        -24    2    1    2    0    0  0.61534074211E+02 -0.10067315846E+03  0.93274577442E+03  0.94346137184E+03  0.78633029481E+02 0.  0.
        -13    1    3    3    0    0  0.44843285762E+02  0.55941310741E+02 -0.37233179275E+03  0.37917187978E+03  0.00000000000E+00 0.  1.
         14    1    3    3    0    0  0.26888482090E+02  0.38423077051E+02 -0.88305205697E+03  0.88429647667E+03  0.00000000000E+00 0. -1.
         11    1    5    5    0    0  0.56284248293E+01 -0.45946976793E+02  0.15429309370E+03  0.16108743777E+03  0.00000000000E+00 0. -1.
        -12    1    5    5    0    0  0.55905649381E+02 -0.54726181667E+02  0.77845268072E+03  0.78237393407E+03  0.00000000000E+00 0.  1.
          5    1    4    4  501    0 -0.88899078720E+02 -0.50827716946E+02  0.42249178069E+03  0.43474507491E+03  0.41800000000E+01 0.  1.
         -5    1    4    4    0  501 -0.44366763343E+02  0.57136487613E+02  0.15686551931E+03  0.17279250984E+03  0.41800000000E+01 0.  1.
</event>
<event>
11    1  0.1078607E-008  0.1991898E+03  0.7561462E-02  0.1055098E+00
         22   -1    0    0    0    0  0.00000000000E+00  0.00000000000E+00  0.56616564748E+03  0.56616564748E+03  0.00000000000E+00 0. -1.
         22   -1    0    0    0    0 -0.00000000000E+00 -0.00000000000E+00 -0.13002941102E+03  0.13002941102E+03  0.00000000000E+00 0.  1.
         24    2    1    2    0    0  0.24076037329E+02  0.47621003286E+02 -0.55264303843E+01  0.10154708955E+03  0.86219803034E+02 0.  0.
         25    2    1    2    0    0 -0.11040802735E+03  0.90363938403E+02  0.11577823787E+03  0.22228493632E+03  0.12510163341E+03 0.  0.
        -24    2    1    2    0    0  0.86331990022E+02 -0.13798494169E+03  0.32588442897E+03  0.37236303263E+03  0.77204341814E+02 0.  0.
        -13    1    3    3    0    0  0.46741303057E+02  0.47687636593E+02  0.17713902736E+02  0.69084314033E+02  0.00000000000E+00 0.  1.
         14    1    3    3    0    0 -0.22665265728E+02 -0.66633306526E-01 -0.23240333120E+02  0.32462775514E+02  0.00000000000E+00 0. -1.
         11    1    5    5    0    0  0.73148594040E+02 -0.10213540772E+03  0.30256772893E+03  0.32761194867E+03  0.00000000000E+00 0. -1.
        -12    1    5    5    0    0  0.13183395982E+02 -0.35849533971E+02  0.23316700038E+02  0.44751083967E+02  0.00000000000E+00 0.  1.
          5    1    4    4  501    0  0.15592373024E+02  0.48232217453E+02  0.58574325178E+02  0.77575078904E+02  0.41800000000E+01 0.  1.
         -5    1    4    4    0  501 -0.12600040038E+03  0.42131720950E+02  0.57203912696E+02  0.14470985741E+03  0.41800000000E+01 0.  1.
</event>
<event>
11    1  0.1078607E-008  0.1914580E+03  0.7561462E-02  0.1060734E+00
         22   -1    0    0    0    0  0.00000000000E+00  0.00000000000E+00  0.13658167286E+04  0.13658167286E+04  0.00000000000E+00 0.  1.
         22   -1    0    0    0    0 -0.00000000000E+00 -0.00000000000E+00 -0.41679064605E+02  0.41679064605E+02  0.00000000000E+00 0. -1.
         24    2    1    2    0    0  0.14687242381E+03  0.53383412229E+02  0.38303514395E+03  0.42188303045E+03  0.82753080336E+02 0.  0.
         25    2    1    2    0    0 -0.12538070010E+03 -0.43013897815E+02  0.42156391586E+03  0.45927630452E+03  0.12509225944E+03 0.  0.
        -24    2    1    2    0    0 -0.21491723704E+02 -0.10369514415E+02  0.51953860420E+03  0.52633645825E+03  0.80872028622E+02 0.  0.
        -13    1    3    3    0    0  0.97384956943E+02  0.61761875966E+02  0.32658134348E+03  0.34634337452E+03  0.00000000000E+00 0.  1.
         14    1    3    3    0    0  0.49487466864E+02 -0.83784637365E+01  0.56453800467E+02  0.75539655932E+02  0.00000000000E+00 0. -1.
         11    1    5    5    0    0 -0.82863067631E+01  0.92829591551E+01  0.48062260290E+03  0.48078365470E+03  0.00000000000E+00 0. -1.
        -12    1    5    5    0    0 -0.13205416941E+02 -0.19652473570E+02  0.38916001300E+02  0.45552803549E+02  0.00000000000E+00 0.  1.
          5    1    4    4  501    0 -0.11552007573E+03 -0.63262136592E+01  0.17538438170E+03  0.21014771619E+03  0.41800000000E+01 0.  1.
         -5    1    4    4    0  501 -0.98606243700E+01 -0.36687684156E+02  0.24617953416E+03  0.24912858833E+03  0.41800000000E+01 0.  1.
</event>
<event>
11    1  0.1078607E-008  0.1758900E+03  0.7561462E-02  0.1073017E+00
         22   -1    0    0    0    0  0.00000000000E+00  0.00000000000E+00  0.65224122999E+03  0.65224122999E+03  0.00000000000E+00 0.  1.
         22   -1    0    0    0    0 -0.00000000000E+00 -0.00000000000E+00 -0.31181571909E+03  0.31181571909E+03  0.00000000000E+00 0. -1.
         24    2    1    2    0    0  0.57016209721E+02  0.48415444454E+00 -0.22767937579E+03  0.24790562557E+03  0.79801118123E+02 0.  0.
         25    2    1    2    0    0  0.24442460114E+02 -0.99922522997E+02  0.39590408701E+02  0.16672380816E+03  0.12508990082E+03 0.  0.
        -24    2    1    2    0    0 -0.81458669835E+02  0.99438368552E+02  0.52851447799E+03  0.54942751536E+03  0.77585676212E+02 0.  0.
        -11    1    3    3    0    0  0.13616808428E+02 -0.35642379577E+02 -0.61295296198E+02  0.72200484968E+02  0.00000000000E+00 0.  1.
         12    1    3    3    0    0  0.43399401293E+02  0.36126534021E+02 -0.16638407959E+03  0.17570514060E+03  0.00000000000E+00 0. -1.
         11    1    5    5    0    0 -0.31346617410E+02  0.61347507239E+02  0.14209525811E+03  0.15791513368E+03  0.00000000000E+00 0. -1.
        -12    1    5    5    0    0 -0.50112052426E+02  0.38090861314E+02  0.38641921988E+03  0.39151238167E+03  0.00000000000E+00 0.  1.
          5    1    4    4  501    0  0.53000602229E+02 -0.84533579717E+02  0.70087705142E+02  0.12200306860E+03  0.41800000000E+01 0.  1.
         -5    1    4    4    0  501 -0.28558142115E+02 -0.15388943280E+02 -0.30497296441E+02  0.44720739557E+02  0.41800000000E+01 0.  1.
</event>
<event>
11    1  0.1078607E-008  0.1802095E+03  0.7561462E-02  0.1069473E+00
         22   -1    0    0    0    0  0.00000000000E+00  0.00000000000E+00  0.22142965130E+04  0.22142965130E+04  0.00000000000E+00 0.  1.
         22   -1    0    0    0    0 -0.00000000000E+00 -0.00000000000E+00 -0.10437419135E+03  0.10437419135E+03  0.00000000000E+00 0. -1.
        -24    2    1    2    0    0  0.58640712365E+02 -0.11366394791E+03 -0.53525218200E+01  0.15133204102E+03  0.80712520397E+02 0.  0.
         25    2    1    2    0    0 -0.91907796988E+02  0.10782944860E+03  0.33230417061E+03  0.38229292828E+03  0.12509031968E+03 0.  0.
         24    2    1    2    0    0  0.33267084623E+02  0.58344993114E+01  0.17829706728E+04  0.17850457350E+04  0.79139848331E+02 0.  0.
        -11    1    5    5    0    0  0.58530063449E+02  0.56573610814E+01  0.14062545943E+04  0.14074834841E+04  0.00000000000E+00 0.  1.
         12    1    5    5    0    0 -0.25262978826E+02  0.17713822999E+00  0.37671607857E+03  0.37756225093E+03  0.00000000000E+00 0. -1.
         13    1    3    3    0    0  0.52244527431E+02 -0.12599869648E+03  0.11420362197E+00  0.13640078886E+03  0.00000000000E+00 0. -1.
        -14    1    3    3    0    0  0.63961849349E+01  0.12334748567E+02 -0.54667254420E+01  0.14931252158E+02  0.00000000000E+00 0.  1.
          5    1    4    4  501    0 -0.66417690290E+02  0.12637812325E+03  0.31550303509E+03  0.34632698014E+03  0.41800000000E+01 0.  1.
         -5    1    4    4    0  501 -0.25490106698E+02 -0.18548674656E+02  0.16801135516E+02  0.35965948140E+02  0.41800000000E+01 0.  1.
</event>
<event>
11    1  0.1078607E-008  0.2082462E+03  0.7561462E-02  0.1048841E+00
         22   -1    0    0    0    0  0.00000000000E+00  0.00000000000E+00  0.87579167634E+03  0.87579167634E+03  0.00000000000E+00 0.  1.
         22   -1    0    0    0    0 -0.00000000000E+00 -0.00000000000E+00 -0.81200414030E+03  0.81200414030E+03  0.00000000000E+00 0. -1.
        -24    2    1    2    0    0  0.53607404758E+02  0.11293475817E+02 -0.73847927864E+03  0.74469867399E+03  0.78887094150E+02 0.  0.
         25    2    1    2    0    0  0.69153152386E+01 -0.16778916973E+03  0.13219368900E+03  0.24763644015E+03  0.12509039938E+03 0.  0.
         24    2    1    2    0    0 -0.60522719996E+02  0.15649569391E+03  0.67007312568E+03  0.69546070250E+03  0.80707453898E+02 0.  0.
        -13    1    5    5    0    0 -0.62353098139E+02  0.14330562349E+03  0.66129518583E+03  0.67951139311E+03  0.00000000000E+00 0.  1.
         14    1    5    5    0    0  0.18303781424E+01  0.13190070422E+02  0.87779398521E+01  0.15949309387E+02  0.00000000000E+00 0. -1.
         11    1    3    3    0    0  0.10580613517E+02 -0.29460122350E+02 -0.38646088187E+03  0.38772652915E+03  0.00000000000E+00 0. -1.
        -12    1    3    3    0    0  0.43026791240E+02  0.40753598167E+02 -0.35201839676E+03  0.35697214484E+03  0.00000000000E+00 0.  1.
          5    1    4    4  501    0  0.74193204158E+00  0.19095649260E+02  0.26069034639E+02  0.32592349575E+02  0.41800000000E+01 0.  1.
         -5    1    4    4    0  501  0.61733831970E+01 -0.18688481899E+03  0.10612465436E+03  0.21504409058E+03  0.41800000000E+01 0.  1.
</event>
<event>
11    1  0.1078607E-008  0.1339472E+03  0.7561462E-02  0.1114512E+00
         22   -1    0    0    0    0  0.00000000000E+00  0.00000000000E+00  0.30520214160E+04  0.30520214160E+04  0.00000000000E+00 0.  1.
         22   -1    0    0    0    0 -0.00000000000E+00 -0.00000000000E+00 -0.87063767070E+03  0.87063767070E+03  0.00000000000E+00 0.  1.
        -24    2    1    2    0    0 -0.12656958547E+01  0.36009915555E+02 -0.85530967266E+03  0.85988491795E+03  0.80926633315E+02 0.  0.
         25    2    1    2    0    0 -0.55438747645E+01  0.13756392936E+02  0.31309610342E+03  0.33748495911E+03  0.12508778820E+03 0.  0.
         24    2    1    2    0    0  0.68095706192E+01 -0.49766308491E+02  0.27235973145E+04  0.27252892096E+04  0.81828410065E+02 0.  0.
        -11    1    5    5    0    0 -0.23470405297E+01 -0.66688446050E+02  0.24922475520E+04  0.24931407337E+04  0.00000000000E+00 0.  1.
         12    1    5    5    0    0  0.91566111490E+01  0.16922137559E+02  0.23134976247E+03  0.23214847590E+03  0.00000000000E+00 0. -1.
         13    1    3    3    0    0 -0.40278536949E+02  0.26393386122E+02 -0.43393397335E+03  0.43659782936E+03  0.00000000000E+00 0. -1.
        -14    1    3    3    0    0  0.39012841094E+02  0.96165294331E+01 -0.42137569930E+03  0.42328708860E+03  0.00000000000E+00 0.  1.
          5    1    4    4  501    0  0.27673894039E+02  0.60162339349E+02  0.13506744038E+03  0.15048600379E+03  0.41800000000E+01 0.  1.
         -5    1    4    4    0  501 -0.33217768804E+02 -0.46405946413E+02  0.17802866304E+03  0.18699895532E+03  0.41800000000E+01 0.  1.
</event>
<event>
11    1  0.1078607E-008  0.1445032E+03  0.7561462E-02  0.1102631E+00
         22   -1    0    0    0    0  0.00000000000E+00  0.00000000000E+00  0.22090900919E+03  0.22090900919E+03  0.00000000000E+00 0.  1.
         22   -1    0    0    0    0 -0.00000000000E+00 -0.00000000000E+00 -0.23067493875E+04  0.23067493875E+04  0.00000000000E+00 0. -1.
         24    2    1    2    0    0 -0.63667470557E+02  0.33490756037E+02 -0.20946588277E+04  0.20974733713E+04  0.81386493321E+02 0.  0.
         25    2    1    2    0    0  0.98890917133E+02  0.14483749219E+02 -0.16428181921E+03  0.22940128073E+03  0.12508892435E+03 0.  0.
        -24    2    1    2    0    0 -0.35223446576E+02 -0.47974505256E+02  0.17310026861E+03  0.20078374465E+03  0.82511603910E+02 0.  0.
        -11    1    3    3    0    0 -0.12245179161E+02 -0.24794621886E+02 -0.35324208976E+03  0.35432286359E+03  0.00000000000E+00 0.  1.
         12    1    3    3    0    0 -0.51422291396E+02  0.58285377923E+02 -0.17414167380E+04  0.17431505078E+04  0.00000000000E+00 0. -1.
         11    1    5    5    0    0  0.21268700482E+02 -0.15325307644E+02  0.16098185850E+02  0.30763196555E+02  0.00000000000E+00 0. -1.
        -12    1    5    5    0    0 -0.56492147058E+02 -0.32649197612E+02  0.15700208276E+03  0.17002054810E+03  0.00000000000E+00 0.  1.
          5    1    4    4  501    0  0.35610447291E+02  0.22682455890E+02  0.10144169607E+02  0.43623094096E+02  0.41800000000E+01 0.  1.
         -5    1    4    4    0  501  0.63280469842E+02 -0.81987066710E+01 -0.17442598882E+03  0.18577818664E+03  0.41800000000E+01 0.  1.
</event>
<event>
11    1  0.1078607E-008  0.1953862E+03  0.7561462E-02  0.1057835E+00
         22   -1    0    0    0    0  0.00000000000E+00  0.00000000000E+00  0.27761321367E+03  0.27761321367E+03  0.00000000000E+00 0.  1.
         22   -1    0    0    0    0 -0.00000000000E+00 -0.00000000000E+00 -0.97587653673E+03  0.97587653673E+03  0.00000000000E+00 0. -1.
         24    2    1    2    0    0 -0.68210928810E+02  0.13954167673E+03 -0.89666390823E+03  0.91362302286E+03  0.81094101114E+02 0.  0.
         25    2    1    2    0    0  0.66158773092E+02 -0.53194738047E+02  0.70101099324E+02  0.16663811192E+03  0.12508969904E+03 0.  0.
        -24    2    1    2    0    0  0.20521557179E+01 -0.86346938680E+02  0.12829948583E+03  0.17322861562E+03  0.78021728013E+02 0.  0.
        -13    1    3    3    0    0  0.15126717197E+02  0.51693387075E+02 -0.25330935281E+03  0.25897229980E+03  0.00000000000E+00 0.  1.
         14    1    3    3    0    0 -0.83337646006E+02  0.87848289652E+02 -0.64335455541E+03  0.65465072306E+03  0.00000000000E+00 0. -1.
         13    1    5    5    0    0  0.35670289656E+01 -0.64910608795E+02  0.28222665244E+02  0.70870513355E+02  0.00000000000E+00 0. -1.
        -14    1    5    5    0    0 -0.15148732477E+01 -0.21436329885E+02  0.10007682059E+03  0.10235810227E+03  0.00000000000E+00 0.  1.
          5    1    4    4  501    0  0.57834587073E+02 -0.91628208565E+02  0.65852388537E+02  0.12686440613E+03  0.41800000000E+01 0. -1.
         -5    1    4    4    0  501  0.83241860189E+01  0.38433470518E+02  0.42487107874E+01  0.39773705790E+02  0.41800000000E+01 0. -1.
</event>
<event>
11    1  0.1078607E-008  0.1803222E+03  0.7561462E-02  0.1069383E+00
         22   -1    0    0    0    0  0.00000000000E+00  0.00000000000E+00  0.82291710934E+03  0.82291710934E+03  0.00000000000E+00 0. -1.
         22   -1    0    0    0    0 -0.00000000000E+00 -0.00000000000E+00 -0.92634601312E+03  0.92634601312E+03  0.00000000000E+00 0. -1.
        -24    2    1    2    0    0  0.81629200178E+02  0.10276998984E+03 -0.83260528896E+03  0.84684207705E+03  0.81761476943E+02 0.  0.
         25    2    1    2    0    0 -0.78007778970E+02 -0.83016975354E+02  0.41713037394E-01  0.16919403682E+03  0.12509831565E+03 0.  0.
         24    2    1    2    0    0 -0.36214212082E+01 -0.19753014487E+02  0.72913467215E+03  0.73322700860E+03  0.74707293786E+02 0.  0.
        -13    1    5    5    0    0 -0.16405140762E+02  0.25394873687E+02  0.26016369349E+03  0.26191444341E+03  0.00000000000E+00 0.  1.
         14    1    5    5    0    0  0.12783719553E+02 -0.45147888175E+02  0.46897097865E+03  0.47131256519E+03  0.00000000000E+00 0. -1.
         11    1    3    3    0    0  0.52129904873E+02  0.10204028531E+03 -0.75802089253E+03  0.76663251974E+03  0.00000000000E+00 0. -1.
        -12    1    3    3    0    0  0.29499295305E+02  0.72970453390E+00 -0.74584396432E+02  0.80209557307E+02  0.00000000000E+00 0.  1.
          5    1    4    4  501    0 -0.55598696985E+01 -0.61943508679E+02  0.48885827293E+02  0.79216203700E+02  0.41800000000E+01 0. -1.
         -5    1    4    4    0  501 -0.72447909271E+02 -0.21073466675E+02 -0.48844114255E+02  0.89977833119E+02  0.41800000000E+01 0. -1.
</event>
<event>
11    1  0.1078607E-008  0.1273318E+03  0.7561462E-02  0.1122591E+00
         22   -1    0    0    0    0  0.00000000000E+00  0.00000000000E+00  0.26599278839E+03  0.26599278839E+03  0.00000000000E+00 0.  1.
         22   -1    0    0    0    0 -0.00000000000E+00 -0.00000000000E+00 -0.36799161668E+03  0.36799161668E+03  0.00000000000E+00 0. -1.
         24    2    1    2    0    0  0.33598208294E+02 -0.24324363340E+01 -0.29921286709E+03  0.31030092328E+03  0.74990444760E+02 0.  0.
         25    2    1    2    0    0 -0.54328083800E+01 -0.36587840281E+01  0.19550294426E+02  0.12678419594E+03  0.12509642768E+03 0.  0.
        -24    2    1    2    0    0 -0.28165399914E+02  0.60912203621E+01  0.17766374437E+03  0.19689928586E+03  0.79840653732E+02 0.  0.
        -13    1    3    3    0    0 -0.22127878219E+02 -0.12716652725E+02 -0.96125783344E+02  0.99456133418E+02  0.00000000000E+00 0.  1.
         14    1    3    3    0    0  0.55726086513E+02  0.10284216391E+02 -0.20308708375E+03  0.21084478986E+03  0.00000000000E+00 0. -1.
         13    1    5    5    0    0 -0.28338942999E+01  0.33556865630E+02  0.31770368871E+02  0.46297413816E+02  0.00000000000E+00 0. -1.
        -14    1    5    5    0    0 -0.25331505614E+02 -0.27465645268E+02  0.14589337550E+03  0.15060187204E+03  0.00000000000E+00 0.  1.
          5    1    4    4  501    0  0.51029113265E+01  0.40568489453E+02 -0.36168166851E+02  0.54748979295E+02  0.41800000000E+01 0. -1.
         -5    1    4    4    0  501 -0.10535719706E+02 -0.44227273482E+02  0.55718461277E+02  0.72035216640E+02  0.41800000000E+01 0. -1.
</event>
<event>
11    1  0.1078607E-008  0.1360431E+03  0.7561462E-02  0.1112059E+00
         22   -1    0    0    0    0  0.00000000000E+00  0.00000000000E+00  0.29627190660E+03  0.29627190660E+03  0.00000000000E+00 0. -1.
         22   -1    0    0    0    0 -0.00000000000E+00 -0.00000000000E+00 -0.20345909164E+04  0.20345909164E+04  0.00000000000E+00 0. -1.
         24    2    1    2    0    0  0.23161990190E+01 -0.10945075096E+03 -0.19112348313E+04  0.19160680460E+04  0.80705297466E+02 0.  0.
         25    2    1    2    0    0  0.18442824854E+02  0.11701575140E+01 -0.63665405619E+02  0.14157183359E+03  0.12509113932E+03 0.  0.
        -24    2    1    2    0    0 -0.20759023873E+02  0.10828059344E+03  0.23658122708E+03  0.27322294340E+03  0.80774227361E+02 0.  0.
        -13    1    3    3    0    0  0.22064849344E+02 -0.54868646583E+00 -0.18982929752E+03  0.19110813910E+03  0.00000000000E+00 0.  1.
         14    1    3    3    0    0 -0.19748650325E+02 -0.10890206449E+03 -0.17214055337E+04  0.17249599069E+04  0.00000000000E+00 0. -1.
         13    1    5    5    0    0 -0.44932065463E+02  0.58670195360E+02  0.17805488244E+03  0.19278128408E+03  0.00000000000E+00 0. -1.
        -14    1    5    5    0    0  0.24173041590E+02  0.49610398082E+02  0.58526344640E+02  0.80441659322E+02  0.00000000000E+00 0.  1.
          5    1    4    4  501    0 -0.20894486678E+01 -0.67232570837E+00 -0.99719121864E+02  0.99830824312E+02  0.41800000000E+01 0. -1.
         -5    1    4    4    0  501  0.20532273522E+02  0.18424832223E+01  0.36053716245E+02  0.41741009277E+02  0.41800000000E+01 0. -1.
</event>
<event>
11    1  0.1078607E-008  0.2028817E+03  0.7561462E-02  0.1052504E+00
         22   -1    0    0    0    0  0.00000000000E+00  0.00000000000E+00  0.31654405851E+03  0.31654405851E+03  0.00000000000E+00 0. -1.
         22   -1    0    0    0    0 -0.00000000000E+00 -0.00000000000E+00 -0.14774061400E+04  0.14774061400E+04  0.00000000000E+00 0. -1.
         24    2    1    2    0    0  0.15272141812E+03  0.48944529413E+02 -0.12451576390E+04  0.12579466808E+04  0.79327845798E+02 0.  0.
         25    2    1    2    0    0 -0.16282417027E+03  0.41531990063E+01 -0.16723887481E+03  0.26484870239E+03  0.12508810665E+03 0.  0.
        -24    2    1    2    0    0  0.10102752154E+02 -0.53097728419E+02  0.25153443232E+03  0.27115481538E+03  0.85638361104E+02 0.  0.
        -13    1    3    3    0    0  0.95325839941E+02  0.25834323725E+02 -0.46680697125E+03  0.47714062544E+03  0.00000000000E+00 0.  1.
         14    1    3    3    0    0  0.57395578180E+02  0.23110205688E+02 -0.77835066779E+03  0.78080605534E+03  0.00000000000E+00 0. -1.
         11    1    5    5    0    0  0.34111531505E+02 -0.60019370359E+02  0.22190750526E+03  0.23239806861E+03  0.00000000000E+00 0. -1.
        -12    1    5    5    0    0 -0.24008779351E+02  0.69216419399E+01  0.29626927062E+02  0.38756746771E+02  0.00000000000E+00 0.  1.
          5    1    4    4  501    0 -0.11610155767E+03  0.32554970860E+02 -0.17167600530E+03  0.20983212580E+03  0.41800000000E+01 0.  1.
         -5    1    4    4    0  501 -0.46722612604E+02 -0.28401771854E+02  0.44371304944E+01  0.55016576593E+02  0.41800000000E+01 0.  1.
</event>
<event>
11    1  0.1078607E-008  0.1574925E+03  0.7561462E-02  0.1089460E+00
         22   -1    0    0    0    0  0.00000000000E+00  0.00000000000E+00  0.34971942916E+03  0.34971942916E+03  0.00000000000E+00 0. -1.
         22   -1    0    0    0    0 -0.00000000000E+00 -0.00000000000E+00 -0.30062916987E+03  0.30062916987E+03  0.00000000000E+00 0.  1.
         24    2    1    2    0    0  0.48282848232E+02  0.62380843749E+02 -0.17291382305E+03  0.20626720116E+03  0.80152136417E+02 0.  0.
         25    2    1    2    0    0 -0.13350110602E+03 -0.79633465240E+02  0.91523905130E+01  0.19973603625E+03  0.12508670525E+03 0.  0.
        -24    2    1    2    0    0  0.85218257784E+02  0.17252621491E+02  0.21285169183E+03  0.24434536161E+03  0.82698298765E+02 0.  0.
        -11    1    3    3    0    0  0.48456253266E+02  0.12149755384E+01 -0.54133303671E+02  0.72662914973E+02  0.00000000000E+00 0.  1.
         12    1    3    3    0    0 -0.17340503347E+00  0.61165868211E+02 -0.11878051938E+03  0.13360428619E+03  0.00000000000E+00 0. -1.
         11    1    5    5    0    0  0.39323354761E+02 -0.72311765667E+01  0.17628266863E+03  0.18076004925E+03  0.00000000000E+00 0. -1.
        -12    1    5    5    0    0  0.45894903022E+02  0.24483798058E+02  0.36569023198E+02  0.63585312364E+02  0.00000000000E+00 0.  1.
          5    1    4    4  501    0 -0.10469632488E+03 -0.95227663059E+02 -0.33791789951E+02  0.14556436969E+03  0.41800000000E+01 0.  1.
         -5    1    4    4    0  501 -0.28804781139E+02  0.15594197819E+02  0.42944180464E+02  0.54171666559E+02  0.41800000000E+01 0.  1.
</event>
<event>
11    1  0.1078607E-008  0.2231854E+03  0.7561462E-02  0.1039240E+00
         22   -1    0    0    0    0  0.00000000000E+00  0.00000000000E+00  0.55892145106E+03  0.55892145106E+03  0.00000000000E+00 0. -1.
         22   -1    0    0    0    0 -0.00000000000E+00 -0.00000000000E+00 -0.57079335305E+03  0.57079335305E+03  0.00000000000E+00 0.  1.
        -24    2    1    2    0    0 -0.28889257329E+02  0.61209425425E+01 -0.30232816145E+03  0.31389431481E+03  0.79090255616E+02 0.  0.
         25    2    1    2    0    0  0.19267209783E+03  0.75672766235E+02 -0.18243602140E+03  0.30295144795E+03  0.12509105914E+03 0.  0.
         24    2    1    2    0    0 -0.16378284050E+03 -0.81793708777E+02  0.47289228086E+03  0.51286904136E+03  0.76762716521E+02 0.  0.
        -13    1    5    5    0    0 -0.36755697438E+02  0.37508469755E+01  0.44001201647E+02  0.57455686347E+02  0.00000000000E+00 0.  1.
         14    1    5    5    0    0 -0.12702714307E+03 -0.85544555753E+02  0.42889107921E+03  0.45541335501E+03  0.00000000000E+00 0. -1.
         13    1    3    3    0    0 -0.20231625081E+02 -0.20290280201E+02 -0.35492560899E+02  0.45615085260E+02  0.00000000000E+00 0. -1.
        -14    1    3    3    0    0 -0.86576322475E+01  0.26411222744E+02 -0.26683560056E+03  0.26827922955E+03  0.00000000000E+00 0.  1.
          5    1    4    4  501    0  0.45952620362E+02  0.41789930868E+02  0.50352809442E+01  0.62456929914E+02  0.41800000000E+01 0.  1.
         -5    1    4    4    0  501  0.14671947747E+03  0.33882835367E+02 -0.18747130234E+03  0.24049451803E+03  0.41800000000E+01 0.  1.
</event>
<event>
11    1  0.1078607E-008  0.1797337E+03  0.7561462E-02  0.1069858E+00
         22   -1    0    0    0    0  0.00000000000E+00  0.00000000000E+00  0.70590648738E+03  0.70590648738E+03  0.00000000000E+00 0. -1.
         22   -1    0    0    0    0 -0.00000000000E+00 -0.00000000000E+00 -0.30444201671E+03  0.30444201671E+03  0.00000000000E+00 0. -1.
         24    2    1    2    0    0  0.12002601843E+02  0.97050240110E+02 -0.24187337753E+03  0.27165749927E+03  0.75711654304E+02 0.  0.
         25    2    1    2    0    0 -0.78011315104E+02 -0.17647770792E+03  0.36354708474E+03  0.43016676676E+03  0.12508724044E+03 0.  0.
        -24    2    1    2    0    0  0.66008713261E+02  0.79427467805E+02  0.27979076345E+03  0.30852423806E+03  0.78983930587E+02 0.  0.
        -11    1    3    3    0    0 -0.25911829169E+02  0.86954041791E+01 -0.60089409293E+02  0.66013408137E+02  0.00000000000E+00 0.  1.
         12    1    3    3    0    0  0.37914431012E+02  0.88354835931E+02 -0.18178396823E+03  0.20564409113E+03  0.00000000000E+00 0. -1.
         13    1    5    5    0    0  0.79470842541E+02  0.74931757791E+02  0.20385125790E+03  0.23126979588E+03  0.00000000000E+00 0. -1.
        -14    1    5    5    0    0 -0.13462129280E+02  0.44957100140E+01  0.75939505546E+02  0.77254442176E+02  0.00000000000E+00 0.  1.
          5    1    4    4  501    0 -0.10119177462E+03 -0.12861606792E+03  0.20180384778E+03  0.25985406203E+03  0.41800000000E+01 0.  1.
         -5    1    4    4    0  501  0.23180459516E+02 -0.47861639999E+02  0.16174323696E+03  0.17031270472E+03  0.41800000000E+01 0.  1.
</event>
<event>
11    1  0.1078607E-008  0.1470213E+03  0.7561462E-02  0.1099962E+00
         22   -1    0    0    0    0  0.00000000000E+00  0.00000000000E+00  0.17472799715E+03  0.17472799715E+03  0.00000000000E+00 0. -1.
         22   -1    0    0    0    0 -0.00000000000E+00 -0.00000000000E+00 -0.57757841348E+03  0.57757841348E+03  0.00000000000E+00 0. -1.
        -24    2    1    2    0    0  0.35000535557E+01 -0.12726977199E+02 -0.29597406693E+03  0.30627377796E+03  0.77645041345E+02 0.  0.
         25    2    1    2    0    0  0.59330354227E+01 -0.64941593963E+02 -0.23600785774E+03  0.27495489717E+03  0.12509146663E+03 0.  0.
         24    2    1    2    0    0 -0.94330889783E+01  0.77668571162E+02  0.12913150835E+03  0.17107773550E+03  0.80444111177E+02 0.  0.
        -13    1    5    5    0    0  0.48488523935E+01 -0.12727657399E+02  0.44097052006E+02  0.46152514861E+02  0.00000000000E+00 0.  1.
         14    1    5    5    0    0 -0.14281941372E+02  0.90396228561E+02  0.85034456342E+02  0.12492522064E+03  0.00000000000E+00 0. -1.
         13    1    3    3    0    0  0.17894905166E+02 -0.31318937227E+02 -0.26470083583E+03  0.26714721775E+03  0.00000000000E+00 0. -1.
        -14    1    3    3    0    0 -0.14394851610E+02  0.18591960028E+02 -0.31273231100E+02  0.39126560211E+02  0.00000000000E+00 0.  1.
          5    1    4    4  501    0  0.42143543054E+02 -0.43987780678E+02 -0.36658961377E+02  0.71220466997E+02  0.41800000000E+01 0.  1.
         -5    1    4    4    0  501 -0.36210507631E+02 -0.20953813285E+02 -0.19934889637E+03  0.20373443017E+03  0.41800000000E+01 0.  1.
</event>
<event>
11    1  0.1078607E-008  0.5816917E+03  0.7561462E-02  0.9227485E-01
         22   -1    0    0    0    0  0.00000000000E+00  0.00000000000E+00  0.31386390814E+04  0.31386390814E+04  0.00000000000E+00 0.  1.
         22   -1    0    0    0    0 -0.00000000000E+00 -0.00000000000E+00 -0.47067824527E+03  0.47067824527E+03  0.00000000000E+00 0.  1.
        -24    2    1    2    0    0  0.55208069466E+03 -0.11332463221E+03 -0.21988741693E+03  0.61056865775E+03  0.82510872117E+02 0.  0.
         25    2    1    2    0    0 -0.57925624550E+03  0.24451000144E+03  0.21104959217E+04  0.22057115691E+04  0.12509017478E+03 0.  0.
         24    2    1    2    0    0  0.27175550844E+02 -0.13118536923E+03  0.77735233134E+03  0.79303709979E+03  0.81750125055E+02 0.  0.
        -11    1    5    5    0    0 -0.11775185322E+02 -0.71936884309E+01  0.23208723447E+03  0.23249707213E+03  0.00000000000E+00 0.  1.
         12    1    5    5    0    0  0.38950736165E+02 -0.12399168080E+03  0.54526509687E+03  0.56054002767E+03  0.00000000000E+00 0. -1.
         11    1    3    3    0    0  0.21802345159E+03 -0.15012668064E+02 -0.55407372124E+02  0.22545416947E+03  0.00000000000E+00 0. -1.
        -12    1    3    3    0    0  0.33405724307E+03 -0.98311964148E+02 -0.16448004481E+03  0.38511448828E+03  0.00000000000E+00 0.  1.
          5    1    4    4  501    0 -0.94147250378E+02  0.26399760819E+02  0.50510292828E+03  0.51449693165E+03  0.41800000000E+01 0.  1.
         -5    1    4    4    0  501 -0.48510899512E+03  0.21811024062E+03  0.16053929934E+04  0.16912146374E+04  0.41800000000E+01 0.  1.
</event>
<event>
11    1  0.1078607E-008  0.1473180E+03  0.7561462E-02  0.1099651E+00
         22   -1    0    0    0    0  0.00000000000E+00  0.00000000000E+00  0.27161199667E+03  0.27161199667E+03  0.00000000000E+00 0.  1.
         22   -1    0    0    0    0 -0.00000000000E+00 -0.00000000000E+00 -0.46870006915E+03  0.46870006915E+03  0.00000000000E+00 0.  1.
        -24    2    1    2    0    0  0.12680136901E+02 -0.78024027845E+02 -0.30295083092E+03  0.32367798801E+03  0.82095670869E+02 0.  0.
         25    2    1    2    0    0 -0.74026368722E+02  0.24246692994E+02 -0.10181501371E+03  0.17910955491E+03  0.12508449246E+03 0.  0.
         24    2    1    2    0    0  0.61346231820E+02  0.53777334852E+02  0.20767777215E+03  0.23752452290E+03  0.81440039484E+02 0.  0.
        -13    1    5    5    0    0  0.55487052886E+02 -0.19274024349E+00  0.14110777878E+03  0.15162537854E+03  0.00000000000E+00 0.  1.
         14    1    5    5    0    0  0.58591789341E+01  0.53970075095E+02  0.66569993372E+02  0.85899144356E+02  0.00000000000E+00 0. -1.
         11    1    3    3    0    0  0.35209798657E+02 -0.17882857564E+02 -0.56073703476E+02  0.68584158066E+02  0.00000000000E+00 0. -1.
        -12    1    3    3    0    0 -0.22529661755E+02 -0.60141170281E+02 -0.24687712744E+03  0.25509382995E+03  0.00000000000E+00 0.  1.
          5    1    4    4  501    0 -0.96590136082E+02 -0.18371528363E+02 -0.75340603863E+02  0.12393888185E+03  0.41800000000E+01 0. -1.
         -5    1    4    4    0  501  0.22563767360E+02  0.42618221356E+02 -0.26474409851E+02  0.55170673061E+02  0.41800000000E+01 0. -1.
</event>
<event>
11    1  0.1078607E-008  0.1583460E+03  0.7561462E-02  0.1088643E+00
         22   -1    0    0    0    0  0.00000000000E+00  0.00000000000E+00  0.73644672967E+03  0.73644672967E+03  0.00000000000E+00 0. -1.
         22   -1    0    0    0    0 -0.00000000000E+00 -0.00000000000E+00 -0.84624997181E+03  0.84624997181E+03  0.00000000000E+00 0.  1.
         24    2    1    2    0    0  0.75920380311E+02 -0.50246476573E+02 -0.56172396478E+03  0.57463632973E+03  0.79902980496E+02 0.  0.
         25    2    1    2    0    0 -0.64167542237E+02 -0.47336324882E+02 -0.25217483801E+03  0.29257010849E+03  0.12508764259E+03 0.  0.
        -24    2    1    2    0    0 -0.11752838075E+02  0.97582801455E+02  0.70409556064E+03  0.71549026326E+03  0.80716949684E+02 0.  0.
        -13    1    3    3    0    0  0.91882795858E+02 -0.39011541028E+02 -0.50115500445E+03  0.51099969373E+03  0.00000000000E+00 0.  1.
         14    1    3    3    0    0 -0.15962415547E+02 -0.11234935545E+02 -0.60568960323E+02  0.63636636000E+02  0.00000000000E+00 0. -1.
         11    1    5    5    0    0  0.32332923730E+02  0.28918136762E+02  0.31137250245E+03  0.31437956657E+03  0.00000000000E+00 0. -1.
        -12    1    5    5    0    0 -0.44085761804E+02  0.68664664693E+02  0.39272305819E+03  0.40111069670E+03  0.00000000000E+00 0.  1.
          5    1    4    4  501    0 -0.77492338278E+02  0.18398302144E+01 -0.21713389270E+03  0.23059281694E+03  0.41800000000E+01 0.  1.
         -5    1    4    4    0  501  0.13324796042E+02 -0.49176155096E+02 -0.35040945308E+02  0.61977291549E+02  0.41800000000E+01 0.  1.
</event>
<event>
11    1  0.1078607E-008  0.1332960E+03  0.7561462E-02  0.1115284E+00
         22   -1    0    0    0    0  0.00000000000E+00  0.00000000000E+00  0.21304389136E+03  0.21304389136E+03  0.00000000000E+00 0. -1.
         22   -1    0    0    0    0 -0.00000000000E+00 -0.00000000000E+00 -0.19801281589E+04  0.19801281589E+04  0.00000000000E+00 0. -1.
         24    2    1    2    0    0  0.38635831594E+02 -0.29650545577E+02 -0.15478779115E+04  0.15514079185E+04  0.92566831651E+02 0.  0.
         25    2    1    2    0    0 -0.46487366599E+02 -0.15522682018E+02 -0.40956131170E+03  0.43103258843E+03  0.12508635151E+03 0.  0.
        -24    2    1    2    0    0  0.78515350041E+01  0.45173227596E+02  0.19035495563E+03  0.21073154337E+03  0.77913459346E+02 0.  0.
        -13    1    3    3    0    0 -0.49159526425E+00 -0.56305992303E+02 -0.94329636683E+03  0.94497547170E+03  0.00000000000E+00 0.  1.
         14    1    3    3    0    0  0.39127426859E+02  0.26655446726E+02 -0.60458154465E+03  0.60643244678E+03  0.00000000000E+00 0. -1.
         13    1    5    5    0    0  0.16906178947E+01  0.49489973425E+02  0.19546330359E+03  0.20163833640E+03  0.00000000000E+00 0. -1.
        -14    1    5    5    0    0  0.61609171094E+01 -0.43167458296E+01 -0.51083479570E+01  0.90932069720E+01  0.00000000000E+00 0.  1.
          5    1    4    4  501    0  0.10156718282E+02 -0.41134306083E+02 -0.48080264841E+02  0.64221291877E+02  0.41800000000E+01 0. -1.
         -5    1    4    4    0  501 -0.56644084880E+02  0.25611624064E+02 -0.36148104686E+03  0.36681129655E+03  0.41800000000E+01 0. -1.
</event>
<event>
11    1  0.1078607E-008  0.2497027E+03  0.7561462E-02  0.1024058E+00
         22   -1    0    0    0    0  0.00000000000E+00  0.00000000000E+00  0.16089824055E+04  0.16089824055E+04  0.00000000000E+00 0. -1.
         22   -1    0    0    0    0 -0.00000000000E+00 -0.00000000000E+00 -0.40414836344E+03  0.40414836344E+03  0.00000000000E+00 0.  1.
         24    2    1    2    0    0 -0.54537379845E+02 -0.85917805107E+02 -0.12947316193E+03  0.18312194806E+03  0.80088408425E+02 0.  0.
         25    2    1    2    0    0 -0.42879061725E+02  0.27671996606E+03 -0.14055358312E+03  0.33736563297E+03  0.12509079514E+03 0.  0.
        -24    2    1    2    0    0  0.97416441571E+02 -0.19080216095E+03  0.14748607872E+04  0.14926431880E+04  0.82909091112E+02 0.  0.
        -11    1    3    3    0    0  0.15705888010E+02 -0.42806195314E+02 -0.59800149388E+02  0.75200419827E+02  0.00000000000E+00 0.  1.
         12    1    3    3    0    0 -0.70243267855E+02 -0.43111609793E+02 -0.69673012545E+02  0.10792152823E+03  0.00000000000E+00 0. -1.
         11    1    5    5    0    0  0.80406238678E+02 -0.10997820479E+03  0.68073521407E+03  0.69423396663E+03  0.00000000000E+00 0. -1.
        -12    1    5    5    0    0  0.17010202893E+02 -0.80823956169E+02  0.79412557308E+03  0.79840922134E+03  0.00000000000E+00 0.  1.
          5    1    4    4  501    0 -0.13037462214E+02  0.26926942360E+03 -0.10294555792E+03  0.28860224912E+03  0.41800000000E+01 0. -1.
         -5    1    4    4    0  501 -0.29841599511E+02  0.74505424654E+01 -0.37608025199E+02  0.48763383843E+02  0.41800000000E+01 0. -1.
</event>
<event>
11    1  0.1078607E-008  0.2144981E+03  0.7561462E-02  0.1044720E+00
         22   -1    0    0    0    0  0.00000000000E+00  0.00000000000E+00  0.25193790752E+03  0.25193790752E+03  0.00000000000E+00 0.  1.
         22   -1    0    0    0    0 -0.00000000000E+00 -0.00000000000E+00 -0.21695934761E+04  0.21695934761E+04  0.00000000000E+00 0.  1.
         24    2    1    2    0    0  0.52507486273E+02  0.89757438385E+01 -0.16417332505E+04  0.16446175024E+04  0.81492718784E+02 0.  0.
         25    2    1    2    0    0 -0.21317446386E+03  0.48489964032E+02 -0.45292166795E+03  0.51824712353E+03  0.12508962827E+03 0.  0.
        -24    2    1    2    0    0  0.16066697759E+03 -0.57465707870E+02  0.17699934989E+03  0.25866675769E+03  0.80396121853E+02 0.  0.
        -11    1    3    3    0    0  0.17430127630E+01  0.28647745409E+02 -0.10481214668E+04  0.10485143492E+04  0.00000000000E+00 0.  1.
         12    1    3    3    0    0  0.50764473510E+02 -0.19672001570E+02 -0.59361178376E+03  0.59610315319E+03  0.00000000000E+00 0. -1.
         13    1    5    5    0    0  0.17458723236E+02 -0.26798178791E+02  0.43677667266E+01  0.32280439739E+02  0.00000000000E+00 0. -1.
        -14    1    5    5    0    0  0.14320825435E+03 -0.30667529079E+02  0.17263158316E+03  0.22638631796E+03  0.00000000000E+00 0.  1.
          5    1    4    4  501    0 -0.12851529879E+03  0.28503140356E+02 -0.13495758384E+03  0.18857261961E+03  0.41800000000E+01 0. -1.
         -5    1    4    4    0  501 -0.84659165071E+02  0.19986823676E+02 -0.31796408411E+03  0.32967450392E+03  0.41800000000E+01 0. -1.
</event>
<event>
11    1  0.1078607E-008  0.1636185E+03  0.7561462E-02  0.1083722E+00
         22   -1    0    0    0    0  0.00000000000E+00  0.00000000000E+00  0.19879761273E+03  0.19879761273E+03  0.00000000000E+00 0.  1.
         22   -1    0    0    0    0 -0.00000000000E+00 -0.00000000000E+00 -0.13712135412E+04  0.13712135412E+04  0.00000000000E+00 0. -1.
        -24    2    1    2    0    0 -0.19069331647E+02 -0.10487655176E+03 -0.12692127413E+04  0.12762240997E+04  0.80524776743E+02 0.  0.
         25    2    1    2    0    0 -0.58535878775E+02  0.83914543834E+02  0.36851266980E+02  0.16575058031E+03  0.12508852555E+03 0.  0.
         24    2    1    2    0    0  0.77605210422E+02  0.20962007928E+02  0.59945545813E+02  0.12803647387E+03  0.79610901992E+02 0.  0.
        -13    1    5    5    0    0  0.89742915667E+02  0.88149133312E+01  0.32878286095E+02  0.95981640464E+02  0.00000000000E+00 0.  1.
         14    1    5    5    0    0 -0.12137705246E+02  0.12147094597E+02  0.27067259718E+02  0.32054833402E+02  0.00000000000E+00 0. -1.
         13    1    3    3    0    0 -0.49581113196E+02 -0.66045896465E+02 -0.69435140927E+03  0.69924546962E+03  0.00000000000E+00 0. -1.
        -14    1    3    3    0    0  0.30511781549E+02 -0.38830655297E+02 -0.57486133199E+03  0.57697863012E+03  0.00000000000E+00 0.  1.
          5    1    4    4  501    0 -0.90681999272E+02  0.88866568432E+02  0.19104962852E+02  0.12846386255E+03  0.41800000000E+01 0. -1.
         -5    1    4    4    0  501  0.32146120497E+02 -0.49520245985E+01  0.17746304128E+02  0.37286717754E+02  0.41800000000E+01 0. -1.
</event>
<event>
11    1  0.1078607E-008  0.1773240E+03  0.7561462E-02  0.1071828E+00
         22   -1    0    0    0    0  0.00000000000E+00  0.00000000000E+00  0.94559335375E+03  0.94559335375E+03  0.00000000000E+00 0. -1.
         22   -1    0    0    0    0 -0.00000000000E+00 -0.00000000000E+00 -0.42171644681E+03  0.42171644681E+03  0.00000000000E+00 0.  1.
         24    2    1    2    0    0 -0.10683376980E+03  0.47901541830E+02 -0.28951800959E+03  0.32358794124E+03  0.84737628933E+02 0.  0.
         25    2    1    2    0    0  0.15600157222E+03 -0.94639950492E+02 -0.10029394699E+01  0.22122376548E+03  0.12508292353E+03 0.  0.
        -24    2    1    2    0    0 -0.49167802418E+02  0.46738408662E+02  0.81439785600E+03  0.82249809384E+03  0.93044585365E+02 0.  0.
        -11    1    3    3    0    0 -0.11905668354E+03  0.30549454845E+02 -0.23789499266E+03  0.26777190035E+03  0.00000000000E+00 0.  1.
         12    1    3    3    0    0  0.12222913735E+02  0.17352086985E+02 -0.51623016938E+02  0.55816040890E+02  0.00000000000E+00 0. -1.
         11    1    5    5    0    0 -0.63933279121E+02 -0.17980324765E+01  0.41740060157E+03  0.42227237572E+03  0.00000000000E+00 0. -1.
        -12    1    5    5    0    0  0.14765476703E+02  0.48536441139E+02  0.39699725443E+03  0.40022571812E+03  0.00000000000E+00 0.  1.
          5    1    4    4  501    0  0.86265064159E+02  0.16166345950E+02 -0.16222820758E+02  0.89351353370E+02  0.41800000000E+01 0.  1.
         -5    1    4    4    0  501  0.69736508063E+02 -0.11080629644E+03  0.15219881288E+02  0.13187241211E+03  0.41800000000E+01 0.  1.
</event>
<event>
11    1  0.1078607E-008  0.1463119E+03  0.7561462E-02  0.1100708E+00
         22   -1    0    0    0    0  0.00000000000E+00  0.00000000000E+00  0.91312232436E+03  0.91312232436E+03  0.00000000000E+00 0.  1.
         22   -1    0    0    0    0 -0.00000000000E+00 -0.00000000000E+00 -0.13248785722E+03  0.13248785722E+03  0.00000000000E+00 0. -1.
         24    2    1    2    0    0  0.74380540876E+02 -0.46822668456E+02 -0.27956352147E+02  0.12268138100E+03  0.80897073343E+02 0.  0.
         25    2    1    2    0    0 -0.51715656408E+02  0.19232078357E+02  0.30369738293E+02  0.14004977823E+03  0.12508891807E+03 0.  0.
        -24    2    1    2    0    0 -0.22664884468E+02  0.27590590099E+02  0.77822108099E+03  0.78287902235E+03  0.77437556041E+02 0.  0.
        -13    1    3    3    0    0  0.28585873167E+02 -0.42106381385E+02 -0.50258999398E+02  0.71526683961E+02  0.00000000000E+00 0.  1.
         14    1    3    3    0    0  0.45794667710E+02 -0.47162870704E+01  0.22302647250E+02  0.51154697035E+02  0.00000000000E+00 0. -1.
         11    1    5    5    0    0  0.27534175581E+01 -0.12229668093E+02  0.23104979768E+02  0.26286615986E+02  0.00000000000E+00 0. -1.
        -12    1    5    5    0    0 -0.25418302027E+02  0.39820258192E+02  0.75511610122E+03  0.75659240636E+03  0.00000000000E+00 0.  1.
          5    1    4    4  501    0  0.11994333191E+02 -0.44052074230E+02  0.24267814369E+01  0.45910902200E+02  0.41800000000E+01 0.  1.
         -5    1    4    4    0  501 -0.63709989598E+02  0.63284152587E+02  0.27942956856E+02  0.94138876035E+02  0.41800000000E+01 0.  1.
</event>
<event>
11    1  0.1078607E-008  0.1410676E+03  0.7561462E-02  0.1106372E+00
         22   -1    0    0    0    0  0.00000000000E+00  0.00000000000E+00  0.85914101931E+03  0.85914101931E+03  0.00000000000E+00 0.  1.
         22   -1    0    0    0    0 -0.00000000000E+00 -0.00000000000E+00 -0.18855931224E+04  0.18855931224E+04  0.00000000000E+00 0.  1.
        -24    2    1    2    0    0 -0.30344595637E+02  0.44953031538E+02 -0.17546246809E+04  0.17572712608E+04  0.79705357118E+02 0.  0.
         25    2    1    2    0    0 -0.31988858912E+02 -0.65317003319E+02 -0.84965779440E+02  0.16779739640E+03  0.12508870671E+03 0.  0.
         24    2    1    2    0    0  0.62333454550E+02  0.20363971780E+02  0.81313835723E+03  0.81966548445E+03  0.79733101628E+02 0.  0.
        -13    1    5    5    0    0 -0.52611627141E+01 -0.69582588345E+01  0.40319397849E+03  0.40328833543E+03  0.00000000000E+00 0.  1.
         14    1    5    5    0    0  0.67594617264E+02  0.27322230615E+02  0.40994437874E+03  0.41637714902E+03  0.00000000000E+00 0. -1.
         13    1    3    3    0    0  0.55670591332E+01 -0.17491740754E+02 -0.67312997342E+03  0.67338021523E+03  0.00000000000E+00 0. -1.
        -14    1    3    3    0    0 -0.35911654770E+02  0.62444772292E+02 -0.10814947074E+04  0.10838910456E+04  0.00000000000E+00 0.  1.
          5    1    4    4  501    0 -0.35471327127E+02  0.21489433349E+02 -0.67118048791E+02  0.79008326569E+02  0.41800000000E+01 0. -1.
         -5    1    4    4    0  501  0.34824682145E+01 -0.86806436668E+02 -0.17847730649E+02  0.88789069829E+02  0.41800000000E+01 0. -1.
</event>
<event>
11    1  0.1078607E-008  0.1500528E+03  0.7561462E-02  0.1096825E+00
         22   -1    0    0    0    0  0.00000000000E+00  0.00000000000E+00  0.23380936849E+03  0.23380936849E+03  0.00000000000E+00 0. -1.
         22   -1    0    0    0    0 -0.00000000000E+00 -0.00000000000E+00 -0.35287876023E+04  0.35287876023E+04  0.00000000000E+00 0.  1.
         24    2    1    2    0    0  0.90681453765E+02  0.47686849607E+01 -0.28822477438E+04  0.28848825678E+04  0.83363704889E+02 0.  0.
         25    2    1    2    0    0 -0.40586642390E+02 -0.13941714010E+02 -0.62734468429E+03  0.64113172470E+03  0.12508752366E+03 0.  0.
        -24    2    1    2    0    0 -0.50094811375E+02  0.91730290493E+01  0.21461419428E+03  0.23658267823E+03  0.85548095604E+02 0.  0.
        -11    1    3    3    0    0  0.30972523657E+02  0.68160631640E+01 -0.21397786072E+04  0.21400136083E+04  0.00000000000E+00 0.  1.
         12    1    3    3    0    0  0.59708930108E+02 -0.20473782033E+01 -0.74246913654E+03  0.74486895948E+03  0.00000000000E+00 0. -1.
         13    1    5    5    0    0  0.71057391203E+01 -0.18335829334E+02  0.12632390311E+03  0.12784530755E+03  0.00000000000E+00 0. -1.
        -14    1    5    5    0    0 -0.57200550496E+02  0.27508858383E+02  0.88290291171E+02  0.10873737068E+03  0.00000000000E+00 0.  1.
          5    1    4    4  501    0 -0.32209987165E+02  0.95377267520E+01 -0.36630660631E+02  0.49877141087E+02  0.41800000000E+01 0. -1.
         -5    1    4    4    0  501 -0.83766552247E+01 -0.23479440762E+02 -0.59071402366E+03  0.59125458361E+03  0.41800000000E+01 0. -1.
</event>
<event>
11    1  0.1078607E-008  0.1406803E+03  0.7561462E-02  0.1106801E+00
         22   -1    0    0    0    0  0.00000000000E+00  0.00000000000E+00  0.73565078549E+03  0.73565078549E+03  0.00000000000E+00 0.  1.
         22   -1    0    0    0    0 -0.00000000000E+00 -0.00000000000E+00 -0.59457128704E+03  0.59457128704E+03  0.00000000000E+00 0.  1.
         24    2    1    2    0    0  0.62874493898E+02 -0.15196014120E+02 -0.44328846438E+03  0.45499891854E+03  0.79594173101E+02 0.  0.
         25    2    1    2    0    0 -0.45188112386E+02  0.65759620743E+02 -0.10336462734E+03  0.18082624465E+03  0.12509033275E+03 0.  0.
        -24    2    1    2    0    0 -0.17686381511E+02 -0.50563606622E+02  0.68773259018E+03  0.69439690933E+03  0.79633320241E+02 0.  0.
        -13    1    3    3    0    0  0.40657999169E+02 -0.24906684881E+02 -0.41504919743E+03  0.41777895128E+03  0.00000000000E+00 0.  1.
         14    1    3    3    0    0  0.22216494729E+02  0.97106707612E+01 -0.28239266951E+02  0.37219967257E+02  0.00000000000E+00 0. -1.
         13    1    5    5    0    0 -0.24582362341E+02  0.93651871795E+01  0.37357507281E+03  0.37450011254E+03  0.00000000000E+00 0. -1.
        -14    1    5    5    0    0  0.68959808293E+01 -0.59928793802E+02  0.31415751736E+03  0.31989679679E+03  0.00000000000E+00 0.  1.
          5    1    4    4  501    0 -0.48285503622E+02  0.57739973582E+02 -0.13124407170E+03  0.15135347094E+03  0.41800000000E+01 0. -1.
         -5    1    4    4    0  501  0.30973912359E+01  0.80196471608E+01  0.27879444353E+02  0.29472773715E+02  0.41800000000E+01 0. -1.
</event>
<event>
11    1  0.1078607E-008  0.1290608E+03  0.7561462E-02  0.1120428E+00
         22   -1    0    0    0    0  0.00000000000E+00  0.00000000000E+00  0.14796676330E+03  0.14796676330E+03  0.00000000000E+00 0.  1.
         22   -1    0    0    0    0 -0.00000000000E+00 -0.00000000000E+00 -0.13012231041E+04  0.13012231041E+04  0.00000000000E+00 0.  1.
        -24    2    1    2    0    0  0.76239435030E+01 -0.37003501486E+02 -0.10736028950E+04  0.10771689483E+04  0.79008755755E+02 0.  0.
         25    2    1    2    0    0  0.76427312352E+01  0.63107547413E+01 -0.19156608657E+03  0.22900450078E+03  0.12508900386E+03 0.  0.
         24    2    1    2    0    0 -0.15266674738E+02  0.30692746744E+02  0.11191264076E+03  0.14301641830E+03  0.82183579141E+02 0.  0.
        -13    1    5    5    0    0  0.24695553419E+02  0.36368509648E+02  0.35137852516E+02  0.56277948898E+02  0.00000000000E+00 0.  1.
         14    1    5    5    0    0 -0.39962228157E+02 -0.56757629039E+01  0.76774788244E+02  0.86738469399E+02  0.00000000000E+00 0. -1.
         11    1    3    3    0    0  0.27938807623E+02  0.10216428574E+02 -0.21760599781E+03  0.21962996760E+03  0.00000000000E+00 0. -1.
        -12    1    3    3    0    0 -0.20314864120E+02 -0.47219930059E+02 -0.85599689715E+03  0.85753898071E+03  0.00000000000E+00 0.  1.
          5    1    4    4  501    0  0.51123156914E+02 -0.25738199865E+02 -0.15035330578E+03  0.16093359209E+03  0.41800000000E+01 0. -1.
         -5    1    4    4    0  501 -0.43480425679E+02  0.32048954606E+02 -0.41212780794E+02  0.68070908686E+02  0.41800000000E+01 0. -1.
</event>
<event>
11    1  0.1078607E-008  0.1264849E+03  0.7561462E-02  0.1123665E+00
         22   -1    0    0    0    0  0.00000000000E+00  0.00000000000E+00  0.58945671128E+03  0.58945671128E+03  0.00000000000E+00 0.  1.
         22   -1    0    0    0    0 -0.00000000000E+00 -0.00000000000E+00 -0.66316044914E+03  0.66316044914E+03  0.00000000000E+00 0. -1.
         24    2    1    2    0    0 -0.21414778976E+01  0.18431460486E+02 -0.62044043548E+03  0.62644087342E+03  0.84483899400E+02 0.  0.
         25    2    1    2    0    0  0.15630805004E+02 -0.18863636899E+02  0.75771682691E+02  0.14830231275E+03  0.12510822997E+03 0.  0.
        -24    2    1    2    0    0 -0.13489327106E+02  0.43217641324E+00  0.47096501493E+03  0.47787397425E+03  0.79833209017E+02 0.  0.
        -13    1    3    3    0    0  0.40386520224E+02  0.12361163413E+02 -0.25351238636E+03  0.25700661357E+03  0.00000000000E+00 0.  1.
         14    1    3    3    0    0 -0.42527998121E+02  0.60702970721E+01 -0.36692804911E+03  0.36943425986E+03  0.00000000000E+00 0. -1.
         13    1    5    5    0    0 -0.43257673299E+02  0.17647301951E+01  0.16956975155E+03  0.17500926036E+03  0.00000000000E+00 0. -1.
        -14    1    5    5    0    0  0.29768346192E+02 -0.13325537819E+01  0.30139526337E+03  0.30286471389E+03  0.00000000000E+00 0.  1.
          5    1    4    4  501    0 -0.27583446130E+02 -0.50698232039E+02  0.74652071848E+02  0.94454017720E+02  0.41800000000E+01 0. -1.
         -5    1    4    4    0  501  0.43214251134E+02  0.31834595140E+02  0.11196108432E+01  0.53848295026E+02  0.41800000000E+01 0. -1.
</event>
<event>
11    1  0.1078607E-008  0.2228487E+03  0.7561462E-02  0.1039448E+00
         22   -1    0    0    0    0  0.00000000000E+00  0.00000000000E+00  0.15680375899E+04  0.15680375899E+04  0.00000000000E+00 0.  1.
         22   -1    0    0    0    0 -0.00000000000E+00 -0.00000000000E+00 -0.61372304695E+02  0.61372304695E+02  0.00000000000E+00 0.  1.
        -24    2    1    2    0    0 -0.22277584157E+03 -0.11743842186E+03  0.61654012249E+03  0.67020306495E+03  0.75030441278E+02 0.  0.
         25    2    1    2    0    0  0.97990407968E+02  0.11165000737E+03  0.36609977492E+03  0.41442072512E+03  0.12509055924E+03 0.  0.
         24    2    1    2    0    0  0.12478543361E+03  0.57884144905E+01  0.52402538775E+03  0.54478610448E+03  0.81144207715E+02 0.  0.
        -13    1    5    5    0    0  0.13476251772E+03  0.43177823545E+01  0.44102463219E+03  0.46117491868E+03  0.00000000000E+00 0.  1.
         14    1    5    5    0    0 -0.99770841149E+01  0.14706321360E+01  0.83000755566E+02  0.83611185800E+02  0.00000000000E+00 0. -1.
         11    1    3    3    0    0 -0.65829365924E+02  0.10970593918E+01  0.14209110447E+03  0.15660329156E+03  0.00000000000E+00 0. -1.
        -12    1    3    3    0    0 -0.15694647565E+03 -0.11853548125E+03  0.47444901802E+03  0.51359977340E+03  0.00000000000E+00 0.  1.
          5    1    4    4  501    0 -0.25034603983E+02 -0.44845702567E+00  0.73635693619E+02  0.77888511894E+02  0.41800000000E+01 0. -1.
         -5    1    4    4    0  501  0.12302501195E+03  0.11209846439E+03  0.29246408130E+03  0.33653221322E+03  0.41800000000E+01 0. -1.
</event>
<event>
11    1  0.1078607E-008  0.1447976E+03  0.7561462E-02  0.1102316E+00
         22   -1    0    0    0    0  0.00000000000E+00  0.00000000000E+00  0.12516484858E+04  0.12516484858E+04  0.00000000000E+00 0. -1.
         22   -1    0    0    0    0 -0.00000000000E+00 -0.00000000000E+00 -0.80809969529E+03  0.80809969529E+03  0.00000000000E+00 0.  1.
         24    2    1    2    0    0  0.31136250693E+02 -0.65195778696E+02 -0.76955210751E+03  0.77702429289E+03  0.79601192830E+02 0.  0.
         25    2    1    2    0    0 -0.48344563106E+02  0.10147608342E+03  0.18244253470E+03  0.24812658876E+03  0.12508770241E+03 0.  0.
        -24    2    1    2    0    0  0.17208312413E+02 -0.36280304721E+02  0.10306583633E+04  0.10345972994E+04  0.80762142208E+02 0.  0.
        -11    1    3    3    0    0  0.36979206219E+02 -0.10431362075E+02 -0.14351592644E+03  0.14857017248E+03  0.00000000000E+00 0.  1.
         12    1    3    3    0    0 -0.58429555258E+01 -0.54764416621E+02 -0.62603618106E+03  0.62845412041E+03  0.00000000000E+00 0. -1.
         11    1    5    5    0    0 -0.19997327140E+02 -0.18447068587E+02  0.78702433563E+03  0.78749443954E+03  0.00000000000E+00 0. -1.
        -12    1    5    5    0    0  0.37205639553E+02 -0.17833236133E+02  0.24363402766E+03  0.24710285987E+03  0.00000000000E+00 0.  1.
          5    1    4    4  501    0 -0.22849940561E+02  0.73352324836E+02  0.17615371085E+02  0.78933244206E+02  0.41800000000E+01 0. -1.
         -5    1    4    4    0  501 -0.25494622545E+02  0.28123758581E+02  0.16482716362E+03  0.16919334455E+03  0.41800000000E+01 0. -1.
</event>
<event>
11    1  0.1078607E-008  0.1531924E+03  0.7561462E-02  0.1093661E+00
         22   -1    0    0    0    0  0.00000000000E+00  0.00000000000E+00  0.37576214541E+03  0.37576214541E+03  0.00000000000E+00 0. -1.
         22   -1    0    0    0    0 -0.00000000000E+00 -0.00000000000E+00 -0.15779763820E+04  0.15779763820E+04  0.00000000000E+00 0. -1.
        -24    2    1    2    0    0 -0.69232009362E+02  0.23590153866E+02 -0.14954312779E+04  0.14993988060E+04  0.80823920190E+02 0.  0.
         25    2    1    2    0    0  0.13507969360E+03 -0.62885830655E+02  0.73075028231E+02  0.20782078022E+03  0.12509342756E+03 0.  0.
         24    2    1    2    0    0 -0.65847684237E+02  0.39295676789E+02  0.22014201312E+03  0.24651894113E+03  0.80181136557E+02 0.  0.
        -13    1    5    5    0    0 -0.32339225555E+02  0.57002571994E+02  0.92462210952E+02  0.11333304539E+03  0.00000000000E+00 0.  1.
         14    1    5    5    0    0 -0.33508458683E+02 -0.17706895205E+02  0.12767980217E+03  0.13318589574E+03  0.00000000000E+00 0. -1.
         13    1    3    3    0    0 -0.56721427291E+02  0.42657776700E+02 -0.13748043391E+04  0.13766350195E+04  0.00000000000E+00 0. -1.
        -14    1    3    3    0    0 -0.12510582071E+02 -0.19067622833E+02 -0.12062693882E+03  0.12276378649E+03  0.00000000000E+00 0.  1.
          5    1    4    4  501    0  0.92054521993E+02  0.13245990627E+02 -0.10571823617E+01  0.93102531231E+02  0.41800000000E+01 0. -1.
         -5    1    4    4    0  501  0.43025171606E+02 -0.76131821282E+02  0.74132210593E+02  0.11471824899E+03  0.41800000000E+01 0. -1.
</event>
<event>
11    1  0.1078607E-008  0.1366440E+03  0.7561462E-02  0.1111365E+00
         22   -1    0    0    0    0  0.00000000000E+00  0.00000000000E+00  0.22741318550E+03  0.22741318550E+03  0.00000000000E+00 0. -1.
         22   -1    0    0    0    0 -0.00000000000E+00 -0.00000000000E+00 -0.25160953041E+04  0.25160953041E+04  0.00000000000E+00 0.  1.
        -24    2    1    2    0    0  0.12050174829E+02  0.53527994309E+02 -0.24453713438E+04  0.24473385891E+04  0.81330854269E+02 0.  0.
         25    2    1    2    0    0 -0.64768734757E+02 -0.61522074753E+02  0.10539449434E+03  0.18637251129E+03  0.12508700509E+03 0.  0.
         24    2    1    2    0    0  0.52718559928E+02  0.79940804440E+01  0.51294730869E+02  0.10979738918E+03  0.81124382117E+02 0.  0.
        -13    1    5    5    0    0 -0.17367194244E+02 -0.38248155651E+00 -0.65228328264E+01  0.18555675038E+02  0.00000000000E+00 0.  1.
         14    1    5    5    0    0  0.70085754172E+02  0.83765620005E+01  0.57817563695E+02  0.91241714147E+02  0.00000000000E+00 0. -1.
         13    1    3    3    0    0 -0.27136495830E+02 -0.49341070644E+01 -0.75013725657E+03  0.75064414906E+03  0.00000000000E+00 0. -1.
        -14    1    3    3    0    0  0.39186670659E+02  0.58462101373E+02 -0.16952340873E+04  0.16966944401E+04  0.00000000000E+00 0.  1.
          5    1    4    4  501    0 -0.29848205654E+02 -0.96779997250E+02  0.85992412416E+02  0.13292648585E+03  0.41800000000E+01 0. -1.
         -5    1    4    4    0  501 -0.34920529103E+02  0.35257922498E+02  0.19402081925E+02  0.53446025434E+02  0.41800000000E+01 0. -1.
</event>
<event>
11    1  0.1078607E-008  0.1971138E+03  0.7561462E-02  0.1056584E+00
         22   -1    0    0    0    0  0.00000000000E+00  0.00000000000E+00  0.99648018794E+03  0.99648018794E+03  0.00000000000E+00 0.  1.
         22   -1    0    0    0    0 -0.00000000000E+00 -0.00000000000E+00 -0.55897346481E+03  0.55897346481E+03  0.00000000000E+00 0. -1.
         24    2    1    2    0    0 -0.87089870151E+01 -0.85750393029E+02 -0.42554739057E+03  0.44160277403E+03  0.80581958621E+02 0.  0.
         25    2    1    2    0    0 -0.10090539020E+03 -0.26155426139E+02 -0.60818402662E+02  0.17381019968E+03  0.12508038744E+03 0.  0.
        -24    2    1    2    0    0  0.10961437722E+03  0.11190581917E+03  0.92387251635E+03  0.94004067904E+03  0.74818632158E+02 0.  0.
        -11    1    3    3    0    0  0.58329136757E+01 -0.53058195115E+02 -0.93742457221E+02  0.10787420098E+03  0.00000000000E+00 0.  1.
         12    1    3    3    0    0 -0.14541900691E+02 -0.32692197914E+02 -0.33180493335E+03  0.33372857305E+03  0.00000000000E+00 0. -1.
         11    1    5    5    0    0 -0.11030758677E+02  0.15970445223E+02  0.11054963710E+03  0.11224061218E+03  0.00000000000E+00 0. -1.
        -12    1    5    5    0    0  0.12064513589E+03  0.95935373946E+02  0.81332287925E+03  0.82780006686E+03  0.00000000000E+00 0.  1.
          5    1    4    4  501    0 -0.81496143747E+02 -0.11280356290E+02 -0.98679209823E+02  0.12854542674E+03  0.41800000000E+01 0.  1.
         -5    1    4    4    0  501 -0.19409246454E+02 -0.14875069850E+02  0.37860807160E+02  0.45264772945E+02  0.41800000000E+01 0.  1.
</event>
<event>
11    1  0.1078607E-008  0.1251304E+03  0.7561462E-02  0.1125401E+00
         22   -1    0    0    0    0  0.00000000000E+00  0.00000000000E+00  0.61633417681E+03  0.61633417681E+03  0.00000000000E+00 0. -1.
         22   -1    0    0    0    0 -0.00000000000E+00 -0.00000000000E+00 -0.52240762861E+03  0.52240762861E+03  0.00000000000E+00 0. -1.
        -24    2    1    2    0    0 -0.58810396463E+00  0.18559861901E+01 -0.48241552011E+03  0.49241977105E+03  0.98735537313E+02 0.  0.
         25    2    1    2    0    0  0.40414472931E+02 -0.24074256213E+02  0.11639697735E+03  0.17722436564E+03  0.12508924816E+03 0.  0.
         24    2    1    2    0    0 -0.39826368967E+02  0.22218270023E+02  0.45994509096E+03  0.46909766873E+03  0.80145772963E+02 0.  0.
        -13    1    5    5    0    0  0.14254210683E+02 -0.19316910074E+02  0.12359221104E+03  0.12590218491E+03  0.00000000000E+00 0.  1.
         14    1    5    5    0    0 -0.54080579649E+02  0.41535180097E+02  0.33635287992E+03  0.34319548382E+03  0.00000000000E+00 0. -1.
         13    1    3    3    0    0  0.93823066537E+01  0.20810897848E+02 -0.46284512396E+03  0.46340773615E+03  0.00000000000E+00 0. -1.
        -14    1    3    3    0    0 -0.99704106184E+01 -0.18954911658E+02 -0.19570396151E+02  0.29012034905E+02  0.00000000000E+00 0.  1.
          5    1    4    4  501    0 -0.45259265537E+02 -0.72236032443E+01  0.44861591584E+02  0.64269871325E+02  0.41800000000E+01 0. -1.
         -5    1    4    4    0  501  0.85673738468E+02 -0.16850652968E+02  0.71535385764E+02  0.11295449431E+03  0.41800000000E+01 0. -1.
</event>
<event>
11    1  0.1078607E-008  0.2057135E+03  0.7561462E-02  0.1050555E+00
         22   -1    0    0    0    0  0.00000000000E+00  0.00000000000E+00  0.35989325586E+03  0.35989325586E+03  0.00000000000E+00 0. -1.
         22   -1    0    0    0    0 -0.00000000000E+00 -0.00000000000E+00 -0.25283047016E+03  0.25283047016E+03  0.00000000000E+00 0.  1.
        -24    2    1    2    0    0  0.33648447628E+02  0.56203928489E+00 -0.10780860427E+03  0.13903246182E+03  0.81085118059E+02 0.  0.
         25    2    1    2    0    0 -0.15013568735E+03 -0.10510299861E+03  0.34011025886E+02  0.22446209095E+03  0.12505644910E+03 0.  0.
         24    2    1    2    0    0  0.11648723972E+03  0.10454095932E+03  0.18086036409E+03  0.24922917324E+03  0.70047271930E+02 0.  0.
        -11    1    5    5    0    0  0.40760756531E+02  0.21093588515E+02  0.14187406531E+02  0.48038122918E+02  0.00000000000E+00 0.  1.
         12    1    5    5    0    0  0.75726483188E+02  0.83447370808E+02  0.16667295756E+03  0.20119105033E+03  0.00000000000E+00 0. -1.
         11    1    3    3    0    0 -0.58345165157E+01 -0.32085018548E+02 -0.63128476725E+02  0.71054166464E+02  0.00000000000E+00 0. -1.
        -12    1    3    3    0    0  0.39482964144E+02  0.32647057833E+02 -0.44680127541E+02  0.67978295358E+02  0.00000000000E+00 0.  1.
          5    1    4    4  501    0  0.41673109546E+01 -0.41273563932E+02  0.39364289502E+02  0.57340153891E+02  0.41800000000E+01 0.  1.
         -5    1    4    4    0  501 -0.15430299830E+03 -0.63829434676E+02 -0.53532636162E+01  0.16712193706E+03  0.41800000000E+01 0.  1.
</event>
<event>
11    1  0.1078607E-008  0.1923223E+03  0.7561462E-02  0.1060090E+00
         22   -1    0    0    0    0  0.00000000000E+00  0.00000000000E+00  0.69692221703E+03  0.69692221703E+03  0.00000000000E+00 0. -1.
         22   -1    0    0    0    0 -0.00000000000E+00 -0.00000000000E+00 -0.55679569154E+03  0.55679569154E+03  0.00000000000E+00 0.  1.
        -24    2    1    2    0    0 -0.80449505670E+02  0.38143260979E+02 -0.49904871120E+03  0.51331366739E+03  0.80711050451E+02 0.  0.
         25    2    1    2    0    0 -0.95290296846E+02  0.35861238872E+01  0.17281907328E+03  0.23368018795E+03  0.12508755811E+03 0.  0.
         24    2    1    2    0    0  0.17573980252E+03 -0.41729384867E+02  0.46635616341E+03  0.50672405322E+03  0.81580483043E+02 0.  0.
        -11    1    5    5    0    0  0.18521017499E+00 -0.13969323535E+02  0.83030223032E+02  0.84197352925E+02  0.00000000000E+00 0.  1.
         12    1    5    5    0    0  0.17555459234E+03 -0.27760061331E+02  0.38332594038E+03  0.42252670030E+03  0.00000000000E+00 0. -1.
         13    1    3    3    0    0 -0.18259831512E+02  0.41648244004E+02 -0.10575261535E+03  0.11511565197E+03  0.00000000000E+00 0. -1.
        -14    1    3    3    0    0 -0.62189674158E+02 -0.35049830242E+01 -0.39329609584E+03  0.39819801542E+03  0.00000000000E+00 0.  1.
          5    1    4    4  501    0 -0.76203663798E+01 -0.49441311949E+02  0.84780343558E+02  0.98527622345E+02  0.41800000000E+01 0.  1.
         -5    1    4    4    0  501 -0.87669930466E+02  0.53027435836E+02  0.88038729720E+02  0.13515256561E+03  0.41800000000E+01 0.  1.
</event>
<event>
11    1  0.1078607E-008  0.2064845E+03  0.7561462E-02  0.1050031E+00
         22   -1    0    0    0    0  0.00000000000E+00  0.00000000000E+00  0.25426324529E+04  0.25426324529E+04  0.00000000000E+00 0. -1.
         22   -1    0    0    0    0 -0.00000000000E+00 -0.00000000000E+00 -0.20159846406E+03  0.20159846406E+03  0.00000000000E+00 0.  1.
        -24    2    1    2    0    0 -0.92143530119E+02 -0.12695899803E+03 -0.10743405323E+03  0.20676209824E+03  0.81237135280E+02 0.  0.
         25    2    1    2    0    0  0.10619688262E+03  0.19479316334E+03  0.33250393821E+03  0.41884228152E+03  0.12509130067E+03 0.  0.
         24    2    1    2    0    0 -0.14053352500E+02 -0.67834165311E+02  0.21159641039E+04  0.21186265372E+04  0.80469525639E+02 0.  0.
        -13    1    5    5    0    0 -0.33480831383E+02 -0.25036247166E+02  0.43472675759E+03  0.43673233623E+03  0.00000000000E+00 0.  1.
         14    1    5    5    0    0  0.19427478883E+02 -0.42797918145E+02  0.16812373463E+04  0.16818942010E+04  0.00000000000E+00 0. -1.
         11    1    3    3    0    0 -0.61899225456E+00 -0.66732162042E+02 -0.47133049895E+02  0.81701217828E+02  0.00000000000E+00 0. -1.
        -12    1    3    3    0    0 -0.91524537865E+02 -0.60226835990E+02 -0.60301003339E+02  0.12506088041E+03  0.00000000000E+00 0.  1.
          5    1    4    4  501    0 -0.78049183239E+01  0.11218566428E+03  0.12674996295E+03  0.16949798089E+03  0.41800000000E+01 0.  1.
         -5    1    4    4    0  501  0.11400180094E+03  0.82607499065E+02  0.20575397526E+03  0.24934430063E+03  0.41800000000E+01 0.  1.
</event>
<event>
11    1  0.1078607E-008  0.1613246E+03  0.7561462E-02  0.1085838E+00
         22   -1    0    0    0    0  0.00000000000E+00  0.00000000000E+00  0.10924724989E+03  0.10924724989E+03  0.00000000000E+00 0. -1.
         22   -1    0    0    0    0 -0.00000000000E+00 -0.00000000000E+00 -0.12427437057E+04  0.12427437057E+04  0.00000000000E+00 0.  1.
        -24    2    1    2    0    0 -0.41536535018E+02 -0.93322640111E+02 -0.10408993780E+04  0.10495307642E+04  0.87229071284E+02 0.  0.
         25    2    1    2    0    0  0.72322325637E+01  0.10475659408E+03 -0.12897180873E+03  0.20810798728E+03  0.12509579421E+03 0.  0.
         24    2    1    2    0    0  0.34304302454E+02 -0.11433953970E+02  0.36374730925E+02  0.94352204156E+02  0.79194045919E+02 0.  0.
        -11    1    5    5    0    0 -0.18300910102E+02 -0.25885533422E+02  0.72885265078E+01  0.32528553146E+02  0.00000000000E+00 0.  1.
         12    1    5    5    0    0  0.52605212557E+02  0.14451579453E+02  0.29086204417E+02  0.61823651010E+02  0.00000000000E+00 0. -1.
         11    1    3    3    0    0 -0.36012865436E+02 -0.17756007074E+02 -0.14572216962E+03  0.15115274719E+03  0.00000000000E+00 0. -1.
        -12    1    3    3    0    0 -0.55236695818E+01 -0.75566633037E+02 -0.89517720840E+03  0.89837801698E+03  0.00000000000E+00 0.  1.
          5    1    4    4  501    0 -0.16471393788E+02  0.22139728768E+02  0.21186628857E+02  0.35040263206E+02  0.41800000000E+01 0. -1.
         -5    1    4    4    0  501  0.23703626352E+02  0.82616865313E+02 -0.15015843759E+03  0.17306772407E+03  0.41800000000E+01 0. -1.
</event>
<event>
11    1  0.1078607E-008  0.1363234E+03  0.7561462E-02  0.1111735E+00
         22   -1    0    0    0    0  0.00000000000E+00  0.00000000000E+00  0.94454089407E+02  0.94454089407E+02  0.00000000000E+00 0. -1.
         22   -1    0    0    0    0 -0.00000000000E+00 -0.00000000000E+00 -0.28047608378E+04  0.28047608378E+04  0.00000000000E+00 0. -1.
        -24    2    1    2    0    0 -0.22613215976E+02 -0.51180667123E+02 -0.22917407739E+04  0.22938127575E+04  0.79814618402E+02 0.  0.
         25    2    1    2    0    0  0.12396439323E+02  0.37467527715E+02 -0.48315245615E+03  0.50064097882E+03  0.12509039314E+03 0.  0.
         24    2    1    2    0    0  0.10216776652E+02  0.13713139408E+02  0.64586481710E+02  0.10476119087E+03  0.80691144338E+02 0.  0.
        -11    1    5    5    0    0  0.21640856313E+02 -0.23931087513E+02  0.55793370853E+02  0.64450941364E+02  0.00000000000E+00 0.  1.
         12    1    5    5    0    0 -0.11424079661E+02  0.37644226920E+02  0.87931108572E+01  0.40310249504E+02  0.00000000000E+00 0. -1.
         11    1    3    3    0    0  0.39566929633E+01 -0.43354325295E+02 -0.20543951829E+04  0.20548563990E+04  0.00000000000E+00 0. -1.
        -12    1    3    3    0    0 -0.26569908939E+02 -0.78263418280E+01 -0.23734559105E+03  0.23895635852E+03  0.00000000000E+00 0.  1.
          5    1    4    4  501    0  0.46178224695E+02  0.47433484193E+02 -0.43911347480E+03  0.44409512496E+03  0.41800000000E+01 0. -1.
         -5    1    4    4    0  501 -0.33781785371E+02 -0.99659564773E+01 -0.44038981343E+02  0.56545853863E+02  0.41800000000E+01 0. -1.
</event>
<event>
11    1  0.1078607E-008  0.1476452E+03  0.7561462E-02  0.1099309E+00
         22   -1    0    0    0    0  0.00000000000E+00  0.00000000000E+00  0.40970291998E+03  0.40970291998E+03  0.00000000000E+00 0.  1.
         22   -1    0    0    0    0 -0.00000000000E+00 -0.00000000000E+00 -0.12997755669E+03  0.12997755669E+03  0.00000000000E+00 0. -1.
        -24    2    1    2    0    0 -0.17708602872E+02  0.71654663434E+02 -0.48140548451E+02  0.11900505918E+03  0.79979411708E+02 0.  0.
         25    2    1    2    0    0  0.40751652675E+01 -0.10464909901E+03  0.15322720493E+03  0.22381721189E+03  0.12509007598E+03 0.  0.
         24    2    1    2    0    0  0.13633437605E+02  0.32994435581E+02  0.17463870682E+03  0.19685820561E+03  0.83546225512E+02 0.  0.
        -11    1    5    5    0    0 -0.56284294436E+01  0.14038506052E+02  0.16845786108E+03  0.16913547774E+03  0.00000000000E+00 0.  1.
         12    1    5    5    0    0  0.19261867048E+02  0.18955929529E+02  0.61808457329E+01  0.27722727868E+02  0.00000000000E+00 0. -1.
         11    1    3    3    0    0 -0.39880076421E+02  0.68088023960E+02 -0.54219829588E+02  0.95740218417E+02  0.00000000000E+00 0. -1.
        -12    1    3    3    0    0  0.22171473548E+02  0.35666394740E+01  0.60792811373E+01  0.23264840760E+02  0.00000000000E+00 0.  1.
          5    1    4    4  501    0  0.60875412344E+02 -0.72236458300E+02  0.68786451939E+02  0.11693147611E+03  0.41800000000E+01 0.  1.
         -5    1    4    4    0  501 -0.56800247077E+02 -0.32412640714E+02  0.84440752990E+02  0.10688573577E+03  0.41800000000E+01 0.  1.
</event>
<event>
11    1  0.1078607E-008  0.1764561E+03  0.7561462E-02  0.1072546E+00
         22   -1    0    0    0    0  0.00000000000E+00  0.00000000000E+00  0.82752410143E+03  0.82752410143E+03  0.00000000000E+00 0.  1.
         22   -1    0    0    0    0 -0.00000000000E+00 -0.00000000000E+00 -0.43013383564E+03  0.43013383564E+03  0.00000000000E+00 0. -1.
         24    2    1    2    0    0 -0.11576836226E+03 -0.52693164525E+02 -0.34378289787E+03  0.37541026605E+03  0.81038902385E+02 0.  0.
         25    2    1    2    0    0  0.43475282137E+02  0.13530010034E+03  0.76540254242E+02  0.20421136348E+03  0.12509057976E+03 0.  0.
        -24    2    1    2    0    0  0.72293080123E+02 -0.82606935817E+02  0.66463290942E+03  0.67803630754E+03  0.77111184529E+02 0.  0.
        -11    1    3    3    0    0 -0.73273603896E+02  0.20154938913E+01 -0.23741599523E+03  0.24847422006E+03  0.00000000000E+00 0.  1.
         12    1    3    3    0    0 -0.42494758364E+02 -0.54708658416E+02 -0.10636690264E+03  0.12693604598E+03  0.00000000000E+00 0. -1.
         13    1    5    5    0    0  0.31613773298E+02 -0.38476152248E+02  0.11744206912E+03  0.12756364903E+03  0.00000000000E+00 0. -1.
        -14    1    5    5    0    0  0.40679306825E+02 -0.44130783569E+02  0.54719084030E+03  0.55047265851E+03  0.00000000000E+00 0.  1.
          5    1    4    4  501    0 -0.25031048384E+02  0.10691793021E+03  0.68539113044E+02  0.12951092464E+03  0.41800000000E+01 0.  1.
         -5    1    4    4    0  501  0.68506330521E+02  0.28382170132E+02  0.80011411980E+01  0.74700438843E+02  0.41800000000E+01 0.  1.
</event>
<event>
11    1  0.1078607E-008  0.1406463E+03  0.7561462E-02  0.1106839E+00
         22   -1    0    0    0    0  0.00000000000E+00  0.00000000000E+00  0.51435689592E+03  0.51435689592E+03  0.00000000000E+00 0. -1.
         22   -1    0    0    0    0 -0.00000000000E+00 -0.00000000000E+00 -0.27155738668E+03  0.27155738668E+03  0.00000000000E+00 0. -1.
         24    2    1    2    0    0 -0.51601269660E+02 -0.37218120223E+02 -0.22374677509E+03  0.24628621804E+03  0.80909840771E+02 0.  0.
         25    2    1    2    0    0  0.38147451398E+02  0.75233891411E+02  0.15949847682E+03  0.21955096333E+03  0.12508994735E+03 0.  0.
        -24    2    1    2    0    0  0.13453818261E+02 -0.38015771188E+02  0.30704780751E+03  0.32007710121E+03  0.80899879747E+02 0.  0.
        -13    1    3    3    0    0 -0.63191098005E+02  0.76969898696E+00 -0.13525767466E+03  0.14929281918E+03  0.00000000000E+00 0.  1.
         14    1    3    3    0    0  0.11589828345E+02 -0.37987819210E+02 -0.88489100425E+02  0.96993398865E+02  0.00000000000E+00 0. -1.
         11    1    5    5    0    0 -0.23015270951E+02 -0.40895970671E+02  0.23060861818E+03  0.23533490581E+03  0.00000000000E+00 0. -1.
        -12    1    5    5    0    0  0.36469089213E+02  0.28801994828E+01  0.76439189322E+02  0.84742195400E+02  0.00000000000E+00 0.  1.
          5    1    4    4  501    0  0.80508306061E+00 -0.29114237127E+02  0.73617324119E+02  0.79279693319E+02  0.41800000000E+01 0. -1.
         -5    1    4    4    0  501  0.37342368338E+02  0.10434812854E+03  0.85881152703E+02  0.14027127002E+03  0.41800000000E+01 0. -1.
</event>
<event>
11    1  0.1078607E-008  0.1299036E+03  0.7561462E-02  0.1119387E+00
         22   -1    0    0    0    0  0.00000000000E+00  0.00000000000E+00  0.16956945726E+03  0.16956945726E+03  0.00000000000E+00 0.  1.
         22   -1    0    0    0    0 -0.00000000000E+00 -0.00000000000E+00 -0.10470307825E+04  0.10470307825E+04  0.00000000000E+00 0.  1.
         24    2    1    2    0    0  0.98252888390E+01  0.66746694392E+01 -0.75192706367E+03  0.75648355173E+03  0.82048567611E+02 0.  0.
         25    2    1    2    0    0 -0.39110122039E+02  0.12207695052E+02 -0.26478495493E+03  0.29569636300E+03  0.12508651915E+03 0.  0.
        -24    2    1    2    0    0  0.29284833200E+02 -0.18882364491E+02  0.13925069337E+03  0.16442032501E+03  0.80181933917E+02 0.  0.
        -13    1    3    3    0    0  0.33972397593E+02 -0.13164306465E+02 -0.61313492081E+03  0.61421645523E+03  0.00000000000E+00 0.  1.
         14    1    3    3    0    0 -0.24147108754E+02  0.19838975904E+02 -0.13879214286E+03  0.14226709650E+03  0.00000000000E+00 0. -1.
         11    1    5    5    0    0  0.53201822184E+02 -0.70220709328E+01  0.58565715806E+02  0.79433534680E+02  0.00000000000E+00 0. -1.
        -12    1    5    5    0    0 -0.23916988984E+02 -0.11860293559E+02  0.80684977566E+02  0.84986790328E+02  0.00000000000E+00 0.  1.
          5    1    4    4  501    0  0.37768390408E+02  0.91139728227E+01 -0.32055027053E+02  0.50542190040E+02  0.41800000000E+01 0. -1.
         -5    1    4    4    0  501 -0.76878512447E+02  0.30937222294E+01 -0.23272992787E+03  0.24515417296E+03  0.41800000000E+01 0. -1.
</event>
<event>
11    1  0.1078607E-008  0.6806114E+03  0.7561462E-02  0.9061375E-01
         22   -1    0    0    0    0  0.00000000000E+00  0.00000000000E+00  0.10055921087E+04  0.10055921087E+04  0.00000000000E+00 0. -1.
         22   -1    0    0    0    0 -0.00000000000E+00 -0.00000000000E+00 -0.67399364693E+03  0.67399364693E+03  0.00000000000E+00 0. -1.
         24    2    1    2    0    0  0.50061202695E+02  0.19468777548E+02 -0.57010934086E+02  0.11210593807E+03  0.80201854288E+02 0.  0.
         25    2    1    2    0    0 -0.17462462470E+02 -0.68291399353E+03 -0.14767217351E+03  0.71002129600E+03  0.12508680901E+03 0.  0.
        -24    2    1    2    0    0 -0.32598740225E+02  0.66344521598E+03  0.53628156940E+03  0.85745852161E+03  0.80093458650E+02 0.  0.
        -13    1    3    3    0    0  0.81964843503E+01  0.45669619057E+02 -0.20704648040E+02  0.50809240409E+02  0.00000000000E+00 0.  1.
         14    1    3    3    0    0  0.41864718345E+02 -0.26200841509E+02 -0.36306286046E+02  0.61296697662E+02  0.00000000000E+00 0. -1.
         11    1    5    5    0    0 -0.16106438988E+02  0.41465106286E+03  0.38347181836E+03  0.56501819155E+03  0.00000000000E+00 0. -1.
        -12    1    5    5    0    0 -0.16492301237E+02  0.24879415313E+03  0.15280975104E+03  0.29244033006E+03  0.00000000000E+00 0.  1.
          5    1    4    4  501    0 -0.22085275885E+02 -0.16692696563E+03 -0.89478728183E+02  0.19072568380E+03  0.41800000000E+01 0. -1.
         -5    1    4    4    0  501  0.46228134149E+01 -0.51598702790E+03 -0.58193445323E+02  0.51929561220E+03  0.41800000000E+01 0. -1.
</event>
<event>
11    1  0.1078607E-008  0.1458697E+03  0.7561462E-02  0.1101175E+00
         22   -1    0    0    0    0  0.00000000000E+00  0.00000000000E+00  0.17745206137E+03  0.17745206137E+03  0.00000000000E+00 0.  1.
         22   -1    0    0    0    0 -0.00000000000E+00 -0.00000000000E+00 -0.11531449136E+04  0.11531449136E+04  0.00000000000E+00 0. -1.
        -24    2    1    2    0    0 -0.11656614756E+02 -0.72791338037E+02 -0.96478378363E+03  0.97089850368E+03  0.80010622700E+02 0.  0.
         25    2    1    2    0    0  0.20266072816E+02  0.87608207703E+02 -0.13877320221E+03  0.20734618162E+03  0.12509406707E+03 0.  0.
         24    2    1    2    0    0 -0.86094580600E+01 -0.14816869666E+02  0.12786413364E+03  0.15235228963E+03  0.81045179312E+02 0.  0.
        -13    1    5    5    0    0 -0.15858202329E+02 -0.28322310711E+02  0.13243703102E+03  0.13635689586E+03  0.00000000000E+00 0.  1.
         14    1    5    5    0    0  0.72487442689E+01  0.13505441045E+02 -0.45728973794E+01  0.15995393766E+02  0.00000000000E+00 0. -1.
         13    1    3    3    0    0  0.25080399765E+02 -0.65936961542E+02 -0.56970706365E+03  0.57405822677E+03  0.00000000000E+00 0. -1.
        -14    1    3    3    0    0 -0.36737014521E+02 -0.68543764946E+01 -0.39507671998E+03  0.39684027691E+03  0.00000000000E+00 0.  1.
          5    1    4    4  501    0 -0.32173988713E+02  0.17015386179E+02  0.67618868804E+01  0.37254320967E+02  0.41800000000E+01 0. -1.
         -5    1    4    4    0  501  0.52440061529E+02  0.70592821524E+02 -0.14553508910E+03  0.17009186066E+03  0.41800000000E+01 0. -1.
</event>
<event>
11    1  0.1078607E-008  0.1602402E+03  0.7561462E-02  0.1086852E+00
         22   -1    0    0    0    0  0.00000000000E+00  0.00000000000E+00  0.17627954467E+04  0.17627954467E+04  0.00000000000E+00 0.  1.
         22   -1    0    0    0    0 -0.00000000000E+00 -0.00000000000E+00 -0.65024440207E+03  0.65024440207E+03  0.00000000000E+00 0. -1.
        -24    2    1    2    0    0 -0.34018342852E+02  0.92299693889E+02 -0.53911944502E+03  0.55380631426E+03  0.79844702799E+02 0.  0.
         25    2    1    2    0    0 -0.10304869615E+02 -0.12969455832E+03 -0.22758691443E+02  0.18191434955E+03  0.12509198112E+03 0.  0.
         24    2    1    2    0    0  0.44323212467E+02  0.37394864434E+02  0.16744291811E+04  0.16773191849E+04  0.79521334512E+02 0.  0.
        -13    1    5    5    0    0  0.32333931460E+02  0.30187098272E+02  0.16328640389E+04  0.16334631044E+04  0.00000000000E+00 0.  1.
         14    1    5    5    0    0  0.11989281007E+02  0.72077661622E+01  0.41565142211E+02  0.43856080526E+02  0.00000000000E+00 0. -1.
         11    1    3    3    0    0 -0.46425864025E+02  0.98760188894E+02 -0.42311061091E+03  0.43695712012E+03  0.00000000000E+00 0. -1.
        -12    1    3    3    0    0  0.12407521173E+02 -0.64604950046E+01 -0.11600883412E+03  0.11684919414E+03  0.00000000000E+00 0.  1.
          5    1    4    4  501    0 -0.37109746852E+02 -0.33121576501E+02 -0.57142195968E+02  0.75874073974E+02  0.41800000000E+01 0. -1.
         -5    1    4    4    0  501  0.26804877237E+02 -0.96572981822E+02  0.34383504526E+02  0.10604027558E+03  0.41800000000E+01 0. -1.
</event>
<event>
11    1  0.1078607E-008  0.3973964E+03  0.7561462E-02  0.9657471E-01
         22   -1    0    0    0    0  0.00000000000E+00  0.00000000000E+00  0.16533292414E+03  0.16533292414E+03  0.00000000000E+00 0. -1.
         22   -1    0    0    0    0 -0.00000000000E+00 -0.00000000000E+00 -0.17075744848E+04  0.17075744848E+04  0.00000000000E+00 0.  1.
        -24    2    1    2    0    0  0.11715623054E+03  0.26133954031E+02 -0.38921627982E+03  0.41513877090E+03  0.80264068682E+02 0.  0.
         25    2    1    2    0    0 -0.45467316264E+03 -0.10061193815E+03 -0.90178839990E+03  0.10226048363E+04  0.12509151116E+03 0.  0.
         24    2    1    2    0    0  0.33751693210E+03  0.74477984122E+02 -0.25123688096E+03  0.43516380172E+03  0.82358450707E+02 0.  0.
        -11    1    5    5    0    0  0.11560334188E+03  0.62889249974E+02 -0.11299655252E+03  0.17345723190E+03  0.00000000000E+00 0.  1.
         12    1    5    5    0    0  0.22191359022E+03  0.11588734148E+02 -0.13824032845E+03  0.26170656983E+03  0.00000000000E+00 0. -1.
         13    1    3    3    0    0  0.13716570790E+02 -0.25105366626E+02 -0.66250686076E+02  0.72163544489E+02  0.00000000000E+00 0. -1.
        -14    1    3    3    0    0  0.10343965975E+03  0.51239320657E+02 -0.32296559374E+03  0.34297522641E+03  0.00000000000E+00 0.  1.
          5    1    4    4  501    0 -0.18898072479E+02 -0.17827937491E+02 -0.13180358893E+02  0.29430711156E+02  0.41800000000E+01 0.  1.
         -5    1    4    4    0  501 -0.43577509016E+03 -0.82784000662E+02 -0.88860804100E+03  0.99317412517E+03  0.41800000000E+01 0.  1.
</event>
<event>
11    1  0.1078607E-008  0.1344322E+03  0.7561462E-02  0.1113940E+00
         22   -1    0    0    0    0  0.00000000000E+00  0.00000000000E+00  0.72145027555E+03  0.72145027555E+03  0.00000000000E+00 0.  1.
         22   -1    0    0    0    0 -0.00000000000E+00 -0.00000000000E+00 -0.19060673384E+03  0.19060673384E+03  0.00000000000E+00 0. -1.
         24    2    1    2    0    0 -0.28045390082E+02  0.83243627178E+01 -0.14300031858E+03  0.16644704839E+03  0.79998061764E+02 0.  0.
         25    2    1    2    0    0  0.29202336114E+01  0.36659978577E+02  0.10143026091E+03  0.16519031557E+03  0.12508901126E+03 0.  0.
        -24    2    1    2    0    0  0.25125156471E+02 -0.44984341295E+02  0.57241359938E+03  0.58041964543E+03  0.81084965298E+02 0.  0.
        -13    1    3    3    0    0 -0.43147279407E+02  0.21625549189E+02 -0.43634950550E+02  0.65064283654E+02  0.00000000000E+00 0.  1.
         14    1    3    3    0    0  0.15101889325E+02 -0.13301186471E+02 -0.99365368029E+02  0.10138276474E+03  0.00000000000E+00 0. -1.
         11    1    5    5    0    0  0.29852801550E+02 -0.58404095017E+01  0.68313057874E+02  0.74779502670E+02  0.00000000000E+00 0. -1.
        -12    1    5    5    0    0 -0.47276450790E+01 -0.39143931793E+02  0.50410054150E+03  0.50564014276E+03  0.00000000000E+00 0.  1.
          5    1    4    4  501    0  0.13830923474E+02  0.82100077737E+02  0.61726998266E+02  0.10372758516E+03  0.41800000000E+01 0.  1.
         -5    1    4    4    0  501 -0.10910689863E+02 -0.45440099160E+02  0.39703262644E+02  0.61462730411E+02  0.41800000000E+01 0.  1.
</event>
<event>
11    1  0.1078607E-008  0.1632188E+03  0.7561462E-02  0.1084088E+00
         22   -1    0    0    0    0  0.00000000000E+00  0.00000000000E+00  0.22883231826E+03  0.22883231826E+03  0.00000000000E+00 0. -1.
         22   -1    0    0    0    0 -0.00000000000E+00 -0.00000000000E+00 -0.94147747588E+03  0.94147747588E+03  0.00000000000E+00 0. -1.
         24    2    1    2    0    0 -0.17229909886E+02 -0.10153458723E+03 -0.68490810782E+03  0.69701320223E+03  0.78244141796E+02 0.  0.
         25    2    1    2    0    0  0.17916960161E+02  0.11239938443E+03 -0.21275328323E+03  0.27179030849E+03  0.12510544825E+03 0.  0.
        -24    2    1    2    0    0 -0.68705027424E+00 -0.10864797199E+02  0.18501623343E+03  0.20150628343E+03  0.79090200224E+02 0.  0.
        -13    1    3    3    0    0 -0.10950572717E+02 -0.30332706207E+01 -0.10664558808E+02  0.15583599971E+02  0.00000000000E+00 0.  1.
         14    1    3    3    0    0 -0.62793371692E+01 -0.98501316611E+02 -0.67424354901E+03  0.68142960226E+03  0.00000000000E+00 0. -1.
         13    1    5    5    0    0 -0.35892833040E+02 -0.17566722541E+02  0.12863452078E+03  0.13469864566E+03  0.00000000000E+00 0. -1.
        -14    1    5    5    0    0  0.35205782766E+02  0.67019253417E+01  0.56381712649E+02  0.66807637772E+02  0.00000000000E+00 0.  1.
          5    1    4    4  501    0  0.50258423444E+02  0.77104429420E+02 -0.20275650858E+03  0.22270760278E+03  0.41800000000E+01 0.  1.
         -5    1    4    4    0  501 -0.32341463284E+02  0.35294955010E+02 -0.99967746497E+01  0.49082705711E+02  0.41800000000E+01 0.  1.
</event>
<event>
11    1  0.1078607E-008  0.1478310E+03  0.7561462E-02  0.1099116E+00
         22   -1    0    0    0    0  0.00000000000E+00  0.00000000000E+00  0.55478719522E+03  0.55478719522E+03  0.00000000000E+00 0.  1.
         22   -1    0    0    0    0 -0.00000000000E+00 -0.00000000000E+00 -0.53572589629E+03  0.53572589629E+03  0.00000000000E+00 0. -1.
        -24    2    1    2    0    0 -0.83000545264E+01  0.23338129663E+02 -0.47896182552E+03  0.48639049024E+03  0.80979747413E+02 0.  0.
         25    2    1    2    0    0  0.85221108919E+02 -0.30582963657E+02  0.84972332079E+02  0.17625380476E+03  0.12508857422E+03 0.  0.
         24    2    1    2    0    0 -0.76921054393E+02  0.72448339947E+01  0.41305079237E+03  0.42786879651E+03  0.80569310016E+02 0.  0.
        -13    1    5    5    0    0 -0.86417671399E+02  0.85057692943E+01  0.40780307349E+03  0.41694569045E+03  0.00000000000E+00 0.  1.
         14    1    5    5    0    0  0.94966170062E+01 -0.12609352995E+01  0.52477188863E+01  0.10923106056E+02  0.00000000000E+00 0. -1.
         11    1    3    3    0    0 -0.25994718003E+02  0.47655584015E+02 -0.32808908884E+03  0.33254959069E+03  0.00000000000E+00 0. -1.
        -12    1    3    3    0    0  0.17694663477E+02 -0.24317454353E+02 -0.15087273668E+03  0.15384089955E+03  0.00000000000E+00 0.  1.
          5    1    4    4  501    0  0.22599565895E+02 -0.92210974497E+01  0.10429814927E+03  0.10719769287E+03  0.41800000000E+01 0.  1.
         -5    1    4    4    0  501  0.62621543025E+02 -0.21361866208E+02 -0.19325817187E+02  0.69056111885E+02  0.41800000000E+01 0.  1.
</event>
<event>
11    1  0.1078607E-008  0.1347651E+03  0.7561462E-02  0.1113549E+00
         22   -1    0    0    0    0  0.00000000000E+00  0.00000000000E+00  0.17996493189E+04  0.17996493189E+04  0.00000000000E+00 0. -1.
         22   -1    0    0    0    0 -0.00000000000E+00 -0.00000000000E+00 -0.62391449671E+03  0.62391449671E+03  0.00000000000E+00 0. -1.
        -24    2    1    2    0    0 -0.10310614710E+02  0.49036139052E+02 -0.57235574663E+03  0.58000485567E+03  0.79395719005E+02 0.  0.
         25    2    1    2    0    0 -0.22238254745E+02 -0.56934132880E+02  0.57507288818E+02  0.15062812300E+03  0.12508280342E+03 0.  0.
         24    2    1    2    0    0  0.32548869455E+02  0.78979938283E+01  0.16905832800E+04  0.16929308369E+04  0.82590464357E+02 0.  0.
        -11    1    5    5    0    0  0.59309110487E+01 -0.10960062684E+02  0.37318129123E+02  0.39343886961E+02  0.00000000000E+00 0.  1.
         12    1    5    5    0    0  0.26617958406E+02  0.18858056512E+02  0.16532651508E+04  0.16535869499E+04  0.00000000000E+00 0. -1.
         13    1    3    3    0    0  0.14775977022E+02  0.31639427817E+01 -0.39024348926E+03  0.39053594065E+03  0.00000000000E+00 0. -1.
        -14    1    3    3    0    0 -0.25086591731E+02  0.45872196270E+02 -0.18211225737E+03  0.18946891502E+03  0.00000000000E+00 0.  1.
          5    1    4    4  501    0 -0.29110343103E+01  0.33993498450E+01  0.82256152291E+02  0.82483796529E+02  0.41800000000E+01 0.  1.
         -5    1    4    4    0  501 -0.19327220435E+02 -0.60333482725E+02 -0.24748863472E+02  0.68144326474E+02  0.41800000000E+01 0.  1.
</event>
<event>
11    1  0.1078607E-008  0.2178605E+03  0.7561462E-02  0.1042566E+00
         22   -1    0    0    0    0  0.00000000000E+00  0.00000000000E+00  0.55232597407E+03  0.55232597407E+03  0.00000000000E+00 0. -1.
         22   -1    0    0    0    0 -0.00000000000E+00 -0.00000000000E+00 -0.20518884825E+04  0.20518884825E+04  0.00000000000E+00 0.  1.
         24    2    1    2    0    0  0.74509508615E+01  0.17779968167E+03 -0.19872714880E+04  0.19967717066E+04  0.78619577250E+02 0.  0.
         25    2    1    2    0    0 -0.31943044653E+02 -0.20049471903E+03  0.21404358285E+03  0.32043789858E+03  0.12508917230E+03 0.  0.
        -24    2    1    2    0    0  0.24492093792E+02  0.22695037367E+02  0.27366539669E+03  0.28700485139E+03  0.79775359564E+02 0.  0.
        -13    1    3    3    0    0  0.29479424285E+02  0.14589055390E+03 -0.17535929589E+04  0.17598981094E+04  0.00000000000E+00 0.  1.
         14    1    3    3    0    0 -0.22028473423E+02  0.31909127771E+02 -0.23367852909E+03  0.23687359716E+03  0.00000000000E+00 0. -1.
         13    1    5    5    0    0  0.97768729178E+01 -0.15955558804E+02  0.21158007192E+03  0.21240596492E+03  0.00000000000E+00 0. -1.
        -14    1    5    5    0    0  0.14715220874E+02  0.38650596170E+02  0.62085324770E+02  0.74598886463E+02  0.00000000000E+00 0.  1.
          5    1    4    4  501    0  0.28436841909E+02 -0.15072060990E+03  0.17547862649E+03  0.23309992917E+03  0.41800000000E+01 0.  1.
         -5    1    4    4    0  501 -0.60379886563E+02 -0.49774109138E+02  0.38564956359E+02  0.87337969410E+02  0.41800000000E+01 0.  1.
</event>
<event>
11    1  0.1078607E-008  0.1423191E+03  0.7561462E-02  0.1104996E+00
         22   -1    0    0    0    0  0.00000000000E+00  0.00000000000E+00  0.99704635951E+03  0.99704635951E+03  0.00000000000E+00 0. -1.
         22   -1    0    0    0    0 -0.00000000000E+00 -0.00000000000E+00 -0.10274495550E+03  0.10274495550E+03  0.00000000000E+00 0. -1.
         24    2    1    2    0    0  0.45558987300E+02  0.28433139107E+02 -0.48661236610E+02  0.10856619094E+03  0.80837102520E+02 0.  0.
         25    2    1    2    0    0 -0.43503023425E+02  0.43986202789E+02  0.22244053422E+03  0.26259301839E+03  0.12509197800E+03 0.  0.
        -24    2    1    2    0    0 -0.20559638757E+01 -0.72419341896E+02  0.72052210640E+03  0.72863210568E+03  0.80646460258E+02 0.  0.
        -11    1    3    3    0    0 -0.72416918474E-01  0.52693394738E+00  0.20850467141E+02  0.20857250144E+02  0.00000000000E+00 0.  1.
         12    1    3    3    0    0  0.45631404219E+02  0.27906205159E+02 -0.69511703751E+02  0.87708940797E+02  0.00000000000E+00 0. -1.
         13    1    5    5    0    0 -0.27821371699E+01 -0.43899861730E+02  0.66266846646E+03  0.66412682117E+03  0.00000000000E+00 0. -1.
        -14    1    5    5    0    0  0.72617329413E+00 -0.28519480166E+02  0.57853639933E+02  0.64505284513E+02  0.00000000000E+00 0.  1.
          5    1    4    4  501    0 -0.59685895985E+02 -0.24364199387E+02  0.14013692997E+03  0.15431089376E+03  0.41800000000E+01 0.  1.
         -5    1    4    4    0  501  0.16182872561E+02  0.68350402176E+02  0.82303604246E+02  0.10828212463E+03  0.41800000000E+01 0.  1.
</event>
<event>
11    1  0.1078607E-008  0.2045253E+03  0.7561462E-02  0.1051369E+00
         22   -1    0    0    0    0  0.00000000000E+00  0.00000000000E+00  0.17496045136E+04  0.17496045136E+04  0.00000000000E+00 0. -1.
         22   -1    0    0    0    0 -0.00000000000E+00 -0.00000000000E+00 -0.93650369299E+03  0.93650369299E+03  0.00000000000E+00 0. -1.
         24    2    1    2    0    0  0.27991679681E+02 -0.15972830918E+03 -0.90669942446E+03  0.92464706170E+03  0.81065871428E+02 0.  0.
         25    2    1    2    0    0  0.41662317865E+01  0.14594684600E+03  0.46079248715E+03  0.49929441577E+03  0.12508940031E+03 0.  0.
        -24    2    1    2    0    0 -0.32157911467E+02  0.13781463176E+02  0.12590077579E+04  0.12621667291E+04  0.82099071578E+02 0.  0.
        -13    1    3    3    0    0 -0.24197664639E+02 -0.22428763474E+02 -0.12587041979E+03  0.13012278426E+03  0.00000000000E+00 0.  1.
         14    1    3    3    0    0  0.52189344320E+02 -0.13729954570E+03 -0.78082900467E+03  0.79452427744E+03  0.00000000000E+00 0. -1.
         11    1    5    5    0    0 -0.19818857131E+02 -0.23775025254E+02  0.96700276005E+03  0.96749799838E+03  0.00000000000E+00 0. -1.
        -12    1    5    5    0    0 -0.12339054336E+02  0.37556488430E+02  0.29200499789E+03  0.29466873075E+03  0.00000000000E+00 0.  1.
          5    1    4    4  501    0 -0.13092785262E+02  0.89458809104E+02  0.41412880523E+03  0.42390380899E+03  0.41800000000E+01 0.  1.
         -5    1    4    4    0  501  0.17259017049E+02  0.56488036895E+02  0.46663681911E+02  0.75390606784E+02  0.41800000000E+01 0.  1.
</event>
<event>
11    1  0.1078607E-008  0.1438147E+03  0.7561462E-02  0.1103372E+00
         22   -1    0    0    0    0  0.00000000000E+00  0.00000000000E+00  0.55357924296E+03  0.55357924296E+03  0.00000000000E+00 0. -1.
         22   -1    0    0    0    0 -0.00000000000E+00 -0.00000000000E+00 -0.26404704793E+03  0.26404704793E+03  0.00000000000E+00 0. -1.
        -24    2    1    2    0    0 -0.27430049944E+02 -0.22791651533E+02 -0.21301310668E+03  0.22974247248E+03  0.78327217644E+02 0.  0.
         25    2    1    2    0    0 -0.48096055420E+02  0.14692967211E+02  0.93206539800E+02  0.16390853438E+03  0.12509770081E+03 0.  0.
         24    2    1    2    0    0  0.75526105364E+02  0.80986843219E+01  0.40933876191E+03  0.42397528403E+03  0.80168810560E+02 0.  0.
        -13    1    5    5    0    0  0.18384941634E+02  0.36478949724E+02  0.23061577211E+03  0.23420579454E+03  0.00000000000E+00 0.  1.
         14    1    5    5    0    0  0.57141163730E+02 -0.28380265402E+02  0.17872298980E+03  0.18976948949E+03  0.00000000000E+00 0. -1.
         11    1    3    3    0    0 -0.35975052712E+01 -0.49667409631E+02 -0.11345771860E+03  0.12390499398E+03  0.00000000000E+00 0. -1.
        -12    1    3    3    0    0 -0.23832544673E+02  0.26875758098E+02 -0.99555388084E+02  0.10583747850E+03  0.00000000000E+00 0.  1.
          5    1    4    4  501    0 -0.45501964085E+01 -0.24706971960E+02 -0.22565671190E+02  0.34026763981E+02  0.41800000000E+01 0. -1.
         -5    1    4    4    0  501 -0.43545859011E+02  0.39399939171E+02  0.11577221099E+03  0.12988177040E+03  0.41800000000E+01 0. -1.
</event>
<event>
11    1  0.1078607E-008  0.1502787E+03  0.7561462E-02  0.1096594E+00
         22   -1    0    0    0    0  0.00000000000E+00  0.00000000000E+00  0.14076065893E+03  0.14076065893E+03  0.00000000000E+00 0.  1.
         22   -1    0    0    0    0 -0.00000000000E+00 -0.00000000000E+00 -0.25800728034E+04  0.25800728034E+04  0.00000000000E+00 0.  1.
         24    2    1    2    0    0  0.64545450109E+02  0.54481235848E+02 -0.22821033997E+04  0.22852235462E+04  0.84358810096E+02 0.  0.
         25    2    1    2    0    0 -0.61611363898E+01 -0.92868716034E+02 -0.24916820741E+03  0.29392952928E+03  0.12508882676E+03 0.  0.
        -24    2    1    2    0    0 -0.58384313719E+02  0.38387480185E+02  0.91959462669E+02  0.14168038686E+03  0.82063771069E+02 0.  0.
        -13    1    3    3    0    0  0.53193215829E+02  0.35873658002E+02 -0.21738961717E+04  0.21748427536E+04  0.00000000000E+00 0.  1.
         14    1    3    3    0    0  0.11352234279E+02  0.18607577846E+02 -0.10820722801E+03  0.11038079258E+03  0.00000000000E+00 0. -1.
         13    1    5    5    0    0  0.14866281609E+02  0.94790155311E+01 -0.34544014272E+01  0.17966383986E+02  0.00000000000E+00 0. -1.
        -14    1    5    5    0    0 -0.73250595328E+02  0.28908464654E+02  0.95413864096E+02  0.12371400287E+03  0.00000000000E+00 0.  1.
          5    1    4    4  501    0 -0.15918530209E+02  0.14226245554E+02  0.80986441419E+00  0.21769564694E+02  0.41800000000E+01 0. -1.
         -5    1    4    4    0  501  0.97573938190E+01 -0.10709496159E+03 -0.24997807182E+03  0.27215996459E+03  0.41800000000E+01 0. -1.
</event>
<event>
11    1  0.1190790E-008  0.1639679E+03  0.7561462E-02  0.1083404E+00
         22   -1    0    0    0    0  0.00000000000E+00  0.00000000000E+00  0.77371668905E+03  0.77371668905E+03  0.00000000000E+00 0. -1.
         22   -1    0    0    0    0 -0.00000000000E+00 -0.00000000000E+00 -0.49038214228E+03  0.49038214228E+03  0.00000000000E+00 0.  1.
         24    2    1    2    0    0  0.88034677366E+02  0.11879615144E+02 -0.23912288052E+03  0.26753732682E+03  0.80655065422E+02 0.  0.
         25    2    1    2    0    0 -0.11344195237E+03 -0.11390646486E+03 -0.18604493871E+03  0.27587026534E+03  0.12509166552E+03 0.  0.
        -24    2    1    2    0    0  0.25407275004E+02  0.10202684972E+03  0.70850236600E+03  0.72069123918E+03  0.79782528825E+02 0.  0.
        -11    1    3    3    0    0  0.48203876531E+02  0.45173540487E+02 -0.10921513257E+03  0.12764093252E+03  0.00000000000E+00 0.  1.
         12    1    3    3    0    0  0.39830800835E+02 -0.33293925343E+02 -0.12990774795E+03  0.13989639430E+03  0.00000000000E+00 0. -1.
         11    1    5    5    0    0  0.52475662917E+02  0.82243902223E+02  0.48821093537E+03  0.49786310575E+03  0.00000000000E+00 0. -1.
        -12    1    5    5    0    0 -0.27068387914E+02  0.19782947497E+02  0.22029143063E+03  0.22282813343E+03  0.00000000000E+00 0.  1.
          5    1    4    4  501    0 -0.34021078731E+02 -0.95737403160E+02 -0.16119515858E+03  0.19058970515E+03  0.41800000000E+01 0.  1.
         -5    1    4    4    0  501 -0.79420873638E+02 -0.18169061704E+02 -0.24849780135E+02  0.85280560185E+02  0.41800000000E+01 0.  1.
</event>
<event>
11    1  0.1078607E-008  0.1710014E+03  0.7561462E-02  0.1077164E+00
         22   -1    0    0    0    0  0.00000000000E+00  0.00000000000E+00  0.10866762873E+04  0.10866762873E+04  0.00000000000E+00 0. -1.
         22   -1    0    0    0    0 -0.00000000000E+00 -0.00000000000E+00 -0.10003133036E+04  0.10003133036E+04  0.00000000000E+00 0. -1.
         24    2    1    2    0    0 -0.40422839305E+02  0.10931929013E+03 -0.95732207152E+03  0.96804460906E+03  0.84024421367E+02 0.  0.
         25    2    1    2    0    0  0.58485666864E+02 -0.10430856623E+03  0.18016308437E+03  0.24981445438E+03  0.12509066484E+03 0.  0.
        -24    2    1    2    0    0 -0.18062827559E+02 -0.50107238973E+01  0.86352197086E+03  0.86913052742E+03  0.96779679967E+02 0.  0.
        -11    1    3    3    0    0 -0.16373841438E+01  0.26848647945E+02 -0.55982771688E+02  0.62109593858E+02  0.00000000000E+00 0.  1.
         12    1    3    3    0    0 -0.38785455161E+02  0.82470642182E+02 -0.90133929983E+03  0.90593501520E+03  0.00000000000E+00 0. -1.
         11    1    5    5    0    0 -0.38853873270E+02 -0.95598514581E+01  0.81691240315E+03  0.81789173406E+03  0.00000000000E+00 0. -1.
        -12    1    5    5    0    0  0.20791045711E+02  0.45491275608E+01  0.46609567709E+02  0.51238793363E+02  0.00000000000E+00 0.  1.
          5    1    4    4  501    0 -0.28536016611E+02 -0.40050077477E+02  0.11066116528E+03  0.12116797783E+03  0.41800000000E+01 0. -1.
         -5    1    4    4    0  501  0.87021683475E+02 -0.64258488753E+02  0.69501919091E+02  0.12864647655E+03  0.41800000000E+01 0. -1.
</event>
<event>
11    1  0.1078607E-008  0.1529137E+03  0.7561462E-02  0.1093938E+00
         22   -1    0    0    0    0  0.00000000000E+00  0.00000000000E+00  0.43130232190E+03  0.43130232190E+03  0.00000000000E+00 0. -1.
         22   -1    0    0    0    0 -0.00000000000E+00 -0.00000000000E+00 -0.27230842210E+03  0.27230842210E+03  0.00000000000E+00 0. -1.
         24    2    1    2    0    0 -0.42526798697E+02  0.68500659127E+02 -0.16119451226E+03  0.19920352078E+03  0.84838098762E+02 0.  0.
         25    2    1    2    0    0  0.67916881035E+02 -0.10172170091E+03  0.30858788755E+01  0.17497616486E+03  0.12508848251E+03 0.  0.
        -24    2    1    2    0    0 -0.25390082338E+02  0.33221041784E+02  0.31710253318E+03  0.32943105835E+03  0.78882899038E+02 0.  0.
        -13    1    3    3    0    0  0.41892693075E+01  0.56643703211E+02 -0.42021309238E+02  0.70653022022E+02  0.00000000000E+00 0.  1.
         14    1    3    3    0    0 -0.46716068004E+02  0.11856955916E+02 -0.11917320302E+03  0.12855049876E+03  0.00000000000E+00 0. -1.
         13    1    5    5    0    0  0.13866059361E+02  0.20732593775E+02  0.24596746181E+03  0.24722884200E+03  0.00000000000E+00 0. -1.
        -14    1    5    5    0    0 -0.39256141699E+02  0.12488448009E+02  0.71135071367E+02  0.82202216352E+02  0.00000000000E+00 0.  1.
          5    1    4    4  501    0  0.10167981051E+03 -0.61680828103E+02  0.18013181055E+02  0.12035470706E+03  0.41800000000E+01 0. -1.
         -5    1    4    4    0  501 -0.33762929473E+02 -0.40040872808E+02 -0.14927302179E+02  0.54621457800E+02  0.41800000000E+01 0. -1.
</event>
<event>
11    1  0.1078607E-008  0.1438119E+03  0.7561462E-02  0.1103375E+00
         22   -1    0    0    0    0  0.00000000000E+00  0.00000000000E+00  0.15767306707E+04  0.15767306707E+04  0.00000000000E+00 0. -1.
         22   -1    0    0    0    0 -0.00000000000E+00 -0.00000000000E+00 -0.13232264619E+04  0.13232264619E+04  0.00000000000E+00 0.  1.
         24    2    1    2    0    0 -0.65649441419E+02 -0.20257603953E+02 -0.11257176169E+04  0.11307232329E+04  0.81084257318E+02 0.  0.
         25    2    1    2    0    0  0.99201663773E+02  0.20606506455E+02 -0.16031913418E+03  0.22719203247E+03  0.12509355151E+03 0.  0.
        -24    2    1    2    0    0 -0.33552222353E+02 -0.34890250195E+00  0.15395409599E+04  0.15420418672E+04  0.81122620831E+02 0.  0.
        -11    1    3    3    0    0 -0.61165377477E+02 -0.82612848068E+01 -0.11023473714E+04  0.11040739013E+04  0.00000000000E+00 0.  1.
         12    1    3    3    0    0 -0.44840639423E+01 -0.11996319146E+02 -0.23370245474E+02  0.26649331624E+02  0.00000000000E+00 0. -1.
         11    1    5    5    0    0 -0.41688380373E+02  0.79437337789E+01  0.15050254335E+04  0.15056236514E+04  0.00000000000E+00 0. -1.
        -12    1    5    5    0    0  0.81361580199E+01 -0.82926362809E+01  0.34515526358E+02  0.36418215821E+02  0.00000000000E+00 0.  1.
          5    1    4    4  501    0  0.45789351554E+02  0.50681045438E+01  0.10551367653E+02  0.47446329244E+02  0.41800000000E+01 0. -1.
         -5    1    4    4    0  501  0.53412312219E+02  0.15538401911E+02 -0.17087050183E+03  0.17974570322E+03  0.41800000000E+01 0. -1.
</event>
<event>
11    1  0.1078607E-008  0.2026279E+03  0.7561462E-02  0.1052681E+00
         22   -1    0    0    0    0  0.00000000000E+00  0.00000000000E+00  0.14694524036E+04  0.14694524036E+04  0.00000000000E+00 0. -1.
         22   -1    0    0    0    0 -0.00000000000E+00 -0.00000000000E+00 -0.13657709270E+03  0.13657709270E+03  0.00000000000E+00 0.  1.
        -24    2    1    2    0    0  0.22452473171E+02 -0.15233541406E+03 -0.42012409447E+02  0.18116359535E+03  0.85703055982E+02 0.  0.
         25    2    1    2    0    0 -0.28260524141E+02  0.21931540412E+03  0.77070110657E+03  0.81149596070E+03  0.12509034680E+03 0.  0.
         24    2    1    2    0    0  0.58080509703E+01 -0.66979990061E+02  0.60418661380E+03  0.61336994028E+03  0.81615971587E+02 0.  0.
        -13    1    5    5    0    0 -0.95888064274E+01 -0.67974333819E+02  0.26226275443E+03  0.27109815128E+03  0.00000000000E+00 0.  1.
         14    1    5    5    0    0  0.15396857398E+02  0.99434375774E+00  0.34192385938E+03  0.34227178901E+03  0.00000000000E+00 0. -1.
         13    1    3    3    0    0 -0.75179625438E+01 -0.48212295792E+02  0.23906227478E+02  0.54336478894E+02  0.00000000000E+00 0. -1.
        -14    1    3    3    0    0  0.29970435715E+02 -0.10412311826E+03 -0.65918636925E+02  0.12682711645E+03  0.00000000000E+00 0.  1.
          5    1    4    4  501    0  0.26076017284E+02  0.17100652206E+03  0.62639100815E+03  0.64985102659E+03  0.41800000000E+01 0. -1.
         -5    1    4    4    0  501 -0.54336541426E+02  0.48308882053E+02  0.14431009842E+03  0.16164493411E+03  0.41800000000E+01 0. -1.
</event>
<event>
11    1  0.1078607E-008  0.1378326E+03  0.7561462E-02  0.1110003E+00
         22   -1    0    0    0    0  0.00000000000E+00  0.00000000000E+00  0.23281039468E+03  0.23281039468E+03  0.00000000000E+00 0. -1.
         22   -1    0    0    0    0 -0.00000000000E+00 -0.00000000000E+00 -0.27802641543E+03  0.27802641543E+03  0.00000000000E+00 0. -1.
        -24    2    1    2    0    0  0.40603184188E+02 -0.29196462688E+02 -0.11079966404E+03  0.14584812375E+03  0.80585716180E+02 0.  0.
         25    2    1    2    0    0 -0.41553549348E+02  0.67594649125E+02 -0.98626527721E+02  0.17796213335E+03  0.12509034688E+03 0.  0.
         24    2    1    2    0    0  0.95036515946E+00 -0.38398186437E+02  0.16421017100E+03  0.18702655300E+03  0.80861779287E+02 0.  0.
        -11    1    5    5    0    0 -0.31015340328E+01  0.22943508434E+02  0.21319965204E+02  0.31473242746E+02  0.00000000000E+00 0.  1.
         12    1    5    5    0    0  0.40518991922E+01 -0.61341694872E+02  0.14289020580E+03  0.15555331025E+03  0.00000000000E+00 0. -1.
         11    1    3    3    0    0  0.57871199235E+02 -0.32618186540E+02 -0.10965421513E+03  0.12820713197E+03  0.00000000000E+00 0. -1.
        -12    1    3    3    0    0 -0.17268015046E+02  0.34217238522E+01 -0.11454489090E+01  0.17640991779E+02  0.00000000000E+00 0.  1.
          5    1    4    4  501    0 -0.40200882134E+02  0.83408844397E+02 -0.11961246085E+03  0.15132005630E+03  0.41800000000E+01 0.  1.
         -5    1    4    4    0  501 -0.13526672140E+01 -0.15814195272E+02  0.20985933126E+02  0.26642077056E+02  0.41800000000E+01 0.  1.
</event>
<event>
11    1  0.1078607E-008  0.1351852E+03  0.7561462E-02  0.1113057E+00
         22   -1    0    0    0    0  0.00000000000E+00  0.00000000000E+00  0.81942391160E+03  0.81942391160E+03  0.00000000000E+00 0.  1.
         22   -1    0    0    0    0 -0.00000000000E+00 -0.00000000000E+00 -0.12941194118E+03  0.12941194118E+03  0.00000000000E+00 0.  1.
        -24    2    1    2    0    0 -0.16544234509E+02 -0.19460219133E+02 -0.95654081392E+02  0.11817622492E+03  0.64525227811E+02 0.  0.
         25    2    1    2    0    0 -0.35620792571E+02  0.14986076117E+01  0.21092594624E+03  0.24780666851E+03  0.12508918207E+03 0.  0.
         24    2    1    2    0    0  0.52165027080E+02  0.17961611521E+02  0.57474010557E+03  0.58285295936E+03  0.79671662138E+02 0.  0.
        -13    1    5    5    0    0  0.36311353512E+02  0.49415997601E+02  0.38873438190E+03  0.39354145256E+03  0.00000000000E+00 0.  1.
         14    1    5    5    0    0  0.15853673568E+02 -0.31454386080E+02  0.18600572366E+03  0.18931150679E+03  0.00000000000E+00 0. -1.
         13    1    3    3    0    0 -0.24497810011E+02 -0.18677148114E+02 -0.10348713254E+02  0.32497298704E+02  0.00000000000E+00 0. -1.
        -14    1    3    3    0    0  0.79535755026E+01 -0.78307101850E+00 -0.85305368138E+02  0.85678926211E+02  0.00000000000E+00 0.  1.
          5    1    4    4  501    0 -0.68384907241E+02 -0.16177222720E+02  0.19460049305E+03  0.20694207491E+03  0.41800000000E+01 0. -1.
         -5    1    4    4    0  501  0.32764114670E+02  0.17675830332E+02  0.16325453194E+02  0.40864593599E+02  0.41800000000E+01 0. -1.
</event>
<event>
11    1  0.1078607E-008  0.1484513E+03  0.7561462E-02  0.1098472E+00
         22   -1    0    0    0    0  0.00000000000E+00  0.00000000000E+00  0.67634552021E+03  0.67634552021E+03  0.00000000000E+00 0.  1.
         22   -1    0    0    0    0 -0.00000000000E+00 -0.00000000000E+00 -0.41803315892E+03  0.41803315892E+03  0.00000000000E+00 0. -1.
         24    2    1    2    0    0  0.50374699351E+02  0.65760349341E+02 -0.31544510457E+03  0.33514413716E+03  0.77161809197E+02 0.  0.
         25    2    1    2    0    0 -0.11783251076E+02 -0.68903386318E+02 -0.32091813845E+02  0.14686391985E+03  0.12511037042E+03 0.  0.
        -24    2    1    2    0    0 -0.38591448276E+02  0.31430369763E+01  0.60584927970E+03  0.61237062212E+03  0.80282317844E+02 0.  0.
        -13    1    3    3    0    0  0.96228267638E+01  0.14377905263E+02 -0.52321098769E+01  0.18074787093E+02  0.00000000000E+00 0.  1.
         14    1    3    3    0    0  0.40751872587E+02  0.51382444078E+02 -0.31021299469E+03  0.31706935007E+03  0.00000000000E+00 0. -1.
         11    1    5    5    0    0 -0.11750929346E+02  0.96031596745E+01  0.16663242449E+02  0.22538160198E+02  0.00000000000E+00 0. -1.
        -12    1    5    5    0    0 -0.26840518929E+02 -0.64601226982E+01  0.58918603725E+03  0.58983246192E+03  0.00000000000E+00 0.  1.
          5    1    4    4  501    0  0.24984872633E+02  0.12480771710E+02  0.27503008362E+02  0.39419555958E+02  0.41800000000E+01 0. -1.
         -5    1    4    4    0  501 -0.36768123709E+02 -0.81384158027E+02 -0.59594822207E+02  0.10744436389E+03  0.41800000000E+01 0. -1.
</event>
<event>
11    1  0.1078607E-008  0.1330455E+03  0.7561462E-02  0.1115583E+00
         22   -1    0    0    0    0  0.00000000000E+00  0.00000000000E+00  0.53974982442E+03  0.53974982442E+03  0.00000000000E+00 0. -1.
         22   -1    0    0    0    0 -0.00000000000E+00 -0.00000000000E+00 -0.26506553219E+03  0.26506553219E+03  0.00000000000E+00 0.  1.
         24    2    1    2    0    0 -0.93939412429E+01  0.41670639061E+02 -0.19213566201E+03  0.21342005386E+03  0.82506475397E+02 0.  0.
         25    2    1    2    0    0  0.42434804710E+02 -0.58242200996E+02  0.32622438573E+02  0.14801119109E+03  0.12510084956E+03 0.  0.
        -24    2    1    2    0    0 -0.33040863468E+02  0.16571561936E+02  0.43419751566E+03  0.44338411167E+03  0.81827089359E+02 0.  0.
        -13    1    3    3    0    0 -0.33653075378E+02  0.40473434079E+02 -0.17732400282E+03  0.18497143110E+03  0.00000000000E+00 0.  1.
         14    1    3    3    0    0  0.24259134135E+02  0.11972049819E+01 -0.14811659185E+02  0.28448622753E+02  0.00000000000E+00 0. -1.
         13    1    5    5    0    0 -0.20791112868E+01  0.10573876624E+02  0.38367527671E+03  0.38382658523E+03  0.00000000000E+00 0. -1.
        -14    1    5    5    0    0 -0.30961752181E+02  0.59976853121E+01  0.50522238949E+02  0.59557526440E+02  0.00000000000E+00 0.  1.
          5    1    4    4  501    0 -0.15713399843E+02 -0.32682892469E+01  0.60838400459E+02  0.63058512666E+02  0.41800000000E+01 0. -1.
         -5    1    4    4    0  501  0.58148204553E+02 -0.54973911750E+02 -0.28215961886E+02  0.84952678421E+02  0.41800000000E+01 0. -1.
</event>
<event>
11    1  0.1078607E-008  0.1891813E+03  0.7561462E-02  0.1062449E+00
         22   -1    0    0    0    0  0.00000000000E+00  0.00000000000E+00  0.44026035740E+03  0.44026035740E+03  0.00000000000E+00 0.  1.
         22   -1    0    0    0    0 -0.00000000000E+00 -0.00000000000E+00 -0.39098187511E+03  0.39098187511E+03  0.00000000000E+00 0. -1.
         24    2    1    2    0    0 -0.79202910118E+02 -0.16071529833E+01 -0.27864469539E+03  0.30096753143E+03  0.81626618167E+02 0.  0.
         25    2    1    2    0    0  0.45725063951E+02 -0.13973510595E+03  0.38501565084E+02  0.19683906051E+03  0.12508622595E+03 0.  0.
        -24    2    1    2    0    0  0.33477846167E+02  0.14134225893E+03  0.28942161260E+03  0.33343564057E+03  0.79473619647E+02 0.  0.
        -13    1    3    3    0    0  0.13969783186E+02  0.12858716819E+02 -0.37207734203E+02  0.41772202779E+02  0.00000000000E+00 0.  1.
         14    1    3    3    0    0 -0.93172693304E+02 -0.14465869802E+02 -0.24143696118E+03  0.25919532865E+03  0.00000000000E+00 0. -1.
         13    1    5    5    0    0  0.56859149467E+02  0.75736636098E+02  0.14647462142E+03  0.17442424042E+03  0.00000000000E+00 0. -1.
        -14    1    5    5    0    0 -0.23381303300E+02  0.65605622832E+02  0.14294699117E+03  0.15901140015E+03  0.00000000000E+00 0.  1.
          5    1    4    4  501    0  0.18312906009E+02 -0.93470866080E+02  0.83392312446E+02  0.12666457874E+03  0.41800000000E+01 0. -1.
         -5    1    4    4    0  501  0.27412157943E+02 -0.46264239867E+02 -0.44890747362E+02  0.70174481775E+02  0.41800000000E+01 0. -1.
</event>
<event>
11    1  0.1078607E-008  0.1705872E+03  0.7561462E-02  0.1077522E+00
         22   -1    0    0    0    0  0.00000000000E+00  0.00000000000E+00  0.15891248603E+04  0.15891248603E+04  0.00000000000E+00 0. -1.
         22   -1    0    0    0    0 -0.00000000000E+00 -0.00000000000E+00 -0.13437212409E+04  0.13437212409E+04  0.00000000000E+00 0. -1.
         24    2    1    2    0    0 -0.37365807503E+02  0.15594250383E+02 -0.12830956149E+04  0.12861921311E+04  0.79476141304E+02 0.  0.
         25    2    1    2    0    0  0.14134383161E+03 -0.61429007660E+02  0.12136957992E+03  0.23265797868E+03  0.12509020103E+03 0.  0.
        -24    2    1    2    0    0 -0.10397802411E+03  0.45834757278E+02  0.14071296544E+04  0.14139959915E+04  0.80365074708E+02 0.  0.
        -13    1    3    3    0    0 -0.16791891852E+02  0.21885993674E+02 -0.12994151438E+03  0.13283734983E+03  0.00000000000E+00 0.  1.
         14    1    3    3    0    0 -0.20573915652E+02 -0.62917432909E+01 -0.11531541005E+04  0.11533547813E+04  0.00000000000E+00 0. -1.
         11    1    5    5    0    0 -0.68163914100E+02 -0.12158317568E+02  0.82162053972E+03  0.82453287088E+03  0.00000000000E+00 0. -1.
        -12    1    5    5    0    0 -0.35814110010E+02  0.57993074846E+02  0.58550911464E+03  0.58946312059E+03  0.00000000000E+00 0.  1.
          5    1    4    4  501    0  0.75511984965E+02 -0.53961998614E+02  0.13597613889E+03  0.16468436452E+03  0.41800000000E+01 0. -1.
         -5    1    4    4    0  501  0.65831846648E+02 -0.74670090464E+01 -0.14606558970E+02  0.67973614161E+02  0.41800000000E+01 0. -1.
</event>
<event>
11    1  0.1078607E-008  0.1466994E+03  0.7561462E-02  0.1100300E+00
         22   -1    0    0    0    0  0.00000000000E+00  0.00000000000E+00  0.18505696200E+03  0.18505696200E+03  0.00000000000E+00 0. -1.
         22   -1    0    0    0    0 -0.00000000000E+00 -0.00000000000E+00 -0.63143129599E+03  0.63143129599E+03  0.00000000000E+00 0. -1.
         24    2    1    2    0    0 -0.57826138454E+02  0.10274934345E+02 -0.43551123678E+03  0.44621888427E+03  0.77406839191E+02 0.  0.
         25    2    1    2    0    0 -0.22073854135E+02  0.12672698558E+02 -0.14528841268E+03  0.19340472688E+03  0.12509521651E+03 0.  0.
        -24    2    1    2    0    0  0.79899992589E+02 -0.22947632903E+02  0.13442531547E+03  0.17686464685E+03  0.79374650827E+02 0.  0.
        -13    1    3    3    0    0 -0.30402621945E+02  0.26594399771E+02 -0.83424226202E+02  0.92688634890E+02  0.00000000000E+00 0.  1.
         14    1    3    3    0    0 -0.27423516509E+02 -0.16319465426E+02 -0.35208701057E+03  0.35353024938E+03  0.00000000000E+00 0. -1.
         13    1    5    5    0    0  0.70329795078E+02 -0.11608732937E+02  0.14296140857E+03  0.15974669667E+03  0.00000000000E+00 0. -1.
        -14    1    5    5    0    0  0.95701975112E+01 -0.11338899965E+02 -0.85360931027E+01  0.17117950178E+02  0.00000000000E+00 0.  1.
          5    1    4    4  501    0  0.18133313497E+02  0.41148518237E+02 -0.13572593819E+03  0.14304202288E+03  0.41800000000E+01 0. -1.
         -5    1    4    4    0  501 -0.40207167632E+02 -0.28475819679E+02 -0.95624744883E+01  0.50362703995E+02  0.41800000000E+01 0. -1.
</event>
<event>
11    1  0.1078607E-008  0.1510692E+03  0.7561462E-02  0.1095791E+00
         22   -1    0    0    0    0  0.00000000000E+00  0.00000000000E+00  0.24696070496E+03  0.24696070496E+03  0.00000000000E+00 0. -1.
         22   -1    0    0    0    0 -0.00000000000E+00 -0.00000000000E+00 -0.10103665163E+04  0.10103665163E+04  0.00000000000E+00 0. -1.
        -24    2    1    2    0    0 -0.70894675999E+02 -0.64508485359E+02 -0.80125878097E+03  0.81091536613E+03  0.79879266208E+02 0.  0.
         25    2    1    2    0    0  0.46962307039E+02 -0.88247628223E+01 -0.16656641008E+03  0.21371796411E+03  0.12509062513E+03 0.  0.
         24    2    1    2    0    0  0.23932368961E+02  0.73333248181E+02  0.20441937973E+03  0.23269389101E+03  0.80053985101E+02 0.  0.
        -11    1    5    5    0    0  0.11307697391E+02 -0.16384031692E+02  0.27808338610E+02  0.34199476766E+02  0.00000000000E+00 0.  1.
         12    1    5    5    0    0  0.12624671569E+02  0.89717279873E+02  0.17661104112E+03  0.19849441424E+03  0.00000000000E+00 0. -1.
         11    1    3    3    0    0 -0.63195837112E+02 -0.54448234917E+02 -0.78862433433E+03  0.79302374795E+03  0.00000000000E+00 0. -1.
        -12    1    3    3    0    0 -0.76988388875E+01 -0.10060250442E+02 -0.12634446647E+02  0.17891618184E+02  0.00000000000E+00 0.  1.
          5    1    4    4  501    0 -0.17046780942E+02 -0.12220476477E+02  0.11596717977E+02  0.24328770081E+02  0.41800000000E+01 0.  1.
         -5    1    4    4    0  501  0.64009087981E+02  0.33957136545E+01 -0.17816312806E+03  0.18938919403E+03  0.41800000000E+01 0.  1.
</event>
<event>
11    1  0.1078607E-008  0.1832269E+03  0.7561462E-02  0.1067062E+00
         22   -1    0    0    0    0  0.00000000000E+00  0.00000000000E+00  0.12992802054E+04  0.12992802054E+04  0.00000000000E+00 0. -1.
         22   -1    0    0    0    0 -0.00000000000E+00 -0.00000000000E+00 -0.15467243833E+04  0.15467243833E+04  0.00000000000E+00 0. -1.
         24    2    1    2    0    0  0.19948653193E+02 -0.66989066861E+02 -0.14912058020E+04  0.14949456545E+04  0.79260849195E+02 0.  0.
         25    2    1    2    0    0 -0.15075194465E+03  0.76559263370E+02  0.18177150270E+03  0.27798501824E+03  0.12508925434E+03 0.  0.
        -24    2    1    2    0    0  0.13080329145E+03 -0.95701965086E+01  0.10619901214E+04  0.10730739160E+04  0.80396029521E+02 0.  0.
        -13    1    3    3    0    0  0.34169331453E+02 -0.16129788340E+02 -0.27379488001E+03  0.27638985076E+03  0.00000000000E+00 0.  1.
         14    1    3    3    0    0 -0.14220678260E+02 -0.50859278522E+02 -0.12174109220E+04  0.12185558037E+04  0.00000000000E+00 0. -1.
         13    1    5    5    0    0  0.30795580987E+02 -0.12671060520E+02  0.57221205235E+03  0.57318021288E+03  0.00000000000E+00 0. -1.
        -14    1    5    5    0    0  0.10000771047E+03  0.31008640117E+01  0.48977806903E+03  0.49989370312E+03  0.00000000000E+00 0.  1.
          5    1    4    4  501    0 -0.20085050181E+02  0.63000475746E+02  0.10951469811E+03  0.12799769797E+03  0.41800000000E+01 0.  1.
         -5    1    4    4    0  501 -0.13066689446E+03  0.13558787624E+02  0.72256804586E+02  0.14998732026E+03  0.41800000000E+01 0.  1.
</event>
<event>
11    1  0.1078607E-008  0.1452886E+03  0.7561462E-02  0.1101792E+00
         22   -1    0    0    0    0  0.00000000000E+00  0.00000000000E+00  0.88563272013E+03  0.88563272013E+03  0.00000000000E+00 0. -1.
         22   -1    0    0    0    0 -0.00000000000E+00 -0.00000000000E+00 -0.13024229654E+04  0.13024229654E+04  0.00000000000E+00 0. -1.
         24    2    1    2    0    0 -0.67106029314E+02  0.33531555971E+02 -0.11869762811E+04  0.11920289853E+04  0.79955146461E+02 0.  0.
         25    2    1    2    0    0  0.16626118682E+02 -0.79350687388E+02 -0.58950093218E+02  0.16029535334E+03  0.12508607996E+03 0.  0.
        -24    2    1    2    0    0  0.50479910632E+02  0.45819131417E+02  0.82913612901E+03  0.83573134695E+03  0.79577318745E+02 0.  0.
        -11    1    3    3    0    0 -0.71001664247E+02  0.32910659165E+02 -0.60513509460E+03  0.61017442631E+03  0.00000000000E+00 0.  1.
         12    1    3    3    0    0  0.38956349334E+01  0.62089680598E+00 -0.58184118648E+03  0.58185455895E+03  0.00000000000E+00 0. -1.
         13    1    5    5    0    0  0.20567350085E+02  0.14209937784E+02  0.67783580534E+03  0.67829662923E+03  0.00000000000E+00 0. -1.
        -14    1    5    5    0    0  0.29912560547E+02  0.31609193632E+02  0.15130032367E+03  0.15743471772E+03  0.00000000000E+00 0.  1.
          5    1    4    4  501    0 -0.76650251046E+01 -0.10023220845E+02  0.37037966857E+02  0.39350996872E+02  0.41800000000E+01 0. -1.
         -5    1    4    4    0  501  0.24291143787E+02 -0.69327466543E+02 -0.95988060075E+02  0.12094435646E+03  0.41800000000E+01 0. -1.
</event>
<event>
11    1  0.1078607E-008  0.1414298E+03  0.7561462E-02  0.1105972E+00
         22   -1    0    0    0    0  0.00000000000E+00  0.00000000000E+00  0.11856069284E+04  0.11856069284E+04  0.00000000000E+00 0.  1.
         22   -1    0    0    0    0 -0.00000000000E+00 -0.00000000000E+00 -0.69701612474E+03  0.69701612474E+03  0.00000000000E+00 0. -1.
        -24    2    1    2    0    0  0.78987179065E+01  0.46009052612E+02 -0.59135917605E+03  0.59880889942E+03  0.81775303448E+02 0.  0.
         25    2    1    2    0    0  0.56737937891E+02 -0.59139767646E+02 -0.43017404603E+02  0.15560539109E+03  0.12508331193E+03 0.  0.
         24    2    1    2    0    0 -0.64636655797E+02  0.13130715034E+02  0.11229673843E+04  0.11282087627E+04  0.86307316528E+02 0.  0.
        -13    1    5    5    0    0 -0.38469658471E+02  0.47474464073E+02  0.80620787786E+03  0.80852018014E+03  0.00000000000E+00 0.  1.
         14    1    5    5    0    0 -0.26166997327E+02 -0.34343749039E+02  0.31675950648E+03  0.31968858252E+03  0.00000000000E+00 0. -1.
         13    1    3    3    0    0  0.51318167546E+01  0.57467739250E+02 -0.57847753098E+03  0.58134768465E+03  0.00000000000E+00 0. -1.
        -14    1    3    3    0    0  0.27669011519E+01 -0.11458686638E+02 -0.12881645072E+02  0.17461214769E+02  0.00000000000E+00 0.  1.
          5    1    4    4  501    0 -0.21805048074E+02  0.25236947548E+02 -0.15514608093E+02  0.37020792905E+02  0.41800000000E+01 0.  1.
         -5    1    4    4    0  501  0.78542985964E+02 -0.84376715194E+02 -0.27502796510E+02  0.11858459819E+03  0.41800000000E+01 0.  1.
</event>
<event>
11    1  0.1078607E-008  0.1712364E+03  0.7561462E-02  0.1076961E+00
         22   -1    0    0    0    0  0.00000000000E+00  0.00000000000E+00  0.20862242092E+04  0.20862242092E+04  0.00000000000E+00 0.  1.
         22   -1    0    0    0    0 -0.00000000000E+00 -0.00000000000E+00 -0.38933437310E+03  0.38933437310E+03  0.00000000000E+00 0. -1.
        -24    2    1    2    0    0  0.79185730605E+02  0.85029679991E+02 -0.36183857628E+03  0.38841217089E+03  0.80227381869E+02 0.  0.
         25    2    1    2    0    0 -0.12993887130E+03 -0.10830265002E+03  0.90408164796E+03  0.92823841080E+03  0.12509734943E+03 0.  0.
         24    2    1    2    0    0  0.50753140699E+02  0.23272970033E+02  0.11546467644E+04  0.11589080006E+04  0.82104146524E+02 0.  0.
        -13    1    5    5    0    0  0.19652434530E+02  0.49213723833E+02  0.45214805958E+03  0.45524287647E+03  0.00000000000E+00 0.  1.
         14    1    5    5    0    0  0.31100706169E+02 -0.25940753800E+02  0.70249870482E+03  0.70366512412E+03  0.00000000000E+00 0. -1.
         11    1    3    3    0    0  0.67684688974E+02  0.78591238072E+02 -0.36054613638E+03  0.37516838390E+03  0.00000000000E+00 0. -1.
        -12    1    3    3    0    0  0.11501041631E+02  0.64384419189E+01 -0.12924399037E+01  0.13243786990E+02  0.00000000000E+00 0.  1.
          5    1    4    4  501    0 -0.79935138368E+02 -0.37907072470E+02  0.19826765450E+03  0.21714996595E+03  0.41800000000E+01 0.  1.
         -5    1    4    4    0  501 -0.50003732936E+02 -0.70395577553E+02  0.70581399345E+03  0.71108844485E+03  0.41800000000E+01 0.  1.
</event>
<event>
11    1  0.1078607E-008  0.1394681E+03  0.7561462E-02  0.1108154E+00
         22   -1    0    0    0    0  0.00000000000E+00  0.00000000000E+00  0.35118009143E+03  0.35118009143E+03  0.00000000000E+00 0. -1.
         22   -1    0    0    0    0 -0.00000000000E+00 -0.00000000000E+00 -0.19057144368E+03  0.19057144368E+03  0.00000000000E+00 0.  1.
         24    2    1    2    0    0  0.97614322505E+01  0.17093200276E+02 -0.89999797185E+02  0.12258237072E+03  0.80864151907E+02 0.  0.
         25    2    1    2    0    0 -0.20991423461E+02 -0.75588291237E+02 -0.17327317191E+01  0.14765993506E+03  0.12508486892E+03 0.  0.
        -24    2    1    2    0    0  0.11229991210E+02  0.58495090961E+02  0.25234117665E+03  0.27150922932E+03  0.80581659248E+02 0.  0.
        -11    1    3    3    0    0  0.30417834006E+01  0.39427645689E+02 -0.91017292668E+02  0.99236783782E+02  0.00000000000E+00 0.  1.
         12    1    3    3    0    0  0.67196488499E+01 -0.22334445413E+02  0.10174954834E+01  0.23345586941E+02  0.00000000000E+00 0. -1.
         13    1    5    5    0    0  0.22140789503E+02  0.16285895682E+02  0.20622188700E+03  0.20804545570E+03  0.00000000000E+00 0. -1.
        -14    1    5    5    0    0 -0.10910798292E+02  0.42209195280E+02  0.46119289648E+02  0.63463773629E+02  0.00000000000E+00 0.  1.
          5    1    4    4  501    0  0.66718548593E+01 -0.96695999506E+02 -0.31159945002E+02  0.10189722538E+03  0.41800000000E+01 0. -1.
         -5    1    4    4    0  501 -0.27663278320E+02  0.21107708268E+02  0.29427213283E+02  0.45762709681E+02  0.41800000000E+01 0. -1.
</event>
<event>
11    1  0.1078607E-008  0.1361449E+03  0.7561462E-02  0.1111941E+00
         22   -1    0    0    0    0  0.00000000000E+00  0.00000000000E+00  0.60809283178E+02  0.60809283178E+02  0.00000000000E+00 0.  1.
         22   -1    0    0    0    0 -0.00000000000E+00 -0.00000000000E+00 -0.11336727274E+04  0.11336727274E+04  0.00000000000E+00 0. -1.
         24    2    1    2    0    0  0.35803825366E+02  0.37540392279E+02 -0.73519486786E+03  0.74122398093E+03  0.78805464371E+02 0.  0.
         25    2    1    2    0    0 -0.36586981949E+02 -0.50833672870E+02 -0.34525913884E+03  0.37252391806E+03  0.12509007567E+03 0.  0.
        -24    2    1    2    0    0  0.78315658231E+00  0.13293280591E+02  0.75905624294E+01  0.80734111632E+02  0.79265727145E+02 0.  0.
        -11    1    3    3    0    0 -0.14915466282E+02  0.33873781531E+02 -0.18382389323E+03  0.18751300737E+03  0.00000000000E+00 0.  1.
         12    1    3    3    0    0  0.50719291648E+02  0.36666107485E+01 -0.55137097463E+03  0.55371097356E+03  0.00000000000E+00 0. -1.
         13    1    5    5    0    0 -0.15284863999E+02  0.14137656789E+02 -0.31898855261E+02  0.38092484481E+02  0.00000000000E+00 0. -1.
        -14    1    5    5    0    0  0.16068020582E+02 -0.84437619748E+00  0.39489417690E+02  0.42641627151E+02  0.00000000000E+00 0.  1.
          5    1    4    4  501    0 -0.81345626686E+02 -0.18032093842E+02 -0.18696847736E+03  0.20473629702E+03  0.41800000000E+01 0. -1.
         -5    1    4    4    0  501  0.44758644738E+02 -0.32801579029E+02 -0.15829066147E+03  0.16778762104E+03  0.41800000000E+01 0. -1.
</event>
<event>
11    1  0.1078607E-008  0.1439901E+03  0.7561462E-02  0.1103183E+00
         22   -1    0    0    0    0  0.00000000000E+00  0.00000000000E+00  0.13680211168E+04  0.13680211168E+04  0.00000000000E+00 0.  1.
         22   -1    0    0    0    0 -0.00000000000E+00 -0.00000000000E+00 -0.34820797721E+03  0.34820797721E+03  0.00000000000E+00 0. -1.
         24    2    1    2    0    0  0.89914371135E+01 -0.35269382152E+02 -0.30949401319E+03  0.32212720900E+03  0.81575850096E+02 0.  0.
         25    2    1    2    0    0 -0.28137812371E+02 -0.35874886378E+02  0.11787811605E+03  0.17782408683E+03  0.12508961450E+03 0.  0.
        -24    2    1    2    0    0  0.19146375257E+02  0.71144268530E+02  0.12114290367E+04  0.12162777981E+04  0.79644715283E+02 0.  0.
        -13    1    3    3    0    0 -0.11105349694E+02  0.63151038195E+01 -0.43319363650E+01  0.13489810997E+02  0.00000000000E+00 0.  1.
         14    1    3    3    0    0  0.20096786808E+02 -0.41584485972E+02 -0.30516207682E+03  0.30863739800E+03  0.00000000000E+00 0. -1.
         11    1    5    5    0    0  0.37936339900E+02  0.35428370655E+02  0.34239442838E+03  0.34630662702E+03  0.00000000000E+00 0. -1.
        -12    1    5    5    0    0 -0.18789964643E+02  0.35715897875E+02  0.86903460831E+03  0.86997117111E+03  0.00000000000E+00 0.  1.
          5    1    4    4  501    0  0.48855049940E+02 -0.78538792891E+01  0.57414207116E+02  0.75910229240E+02  0.41800000000E+01 0. -1.
         -5    1    4    4    0  501 -0.76992862311E+02 -0.28021007088E+02  0.60463908935E+02  0.10191385759E+03  0.41800000000E+01 0. -1.
</event>
<event>
11    1  0.1078607E-008  0.6341276E+03  0.7561462E-02  0.9135437E-01
         22   -1    0    0    0    0  0.00000000000E+00  0.00000000000E+00  0.45888039960E+03  0.45888039960E+03  0.00000000000E+00 0. -1.
         22   -1    0    0    0    0 -0.00000000000E+00 -0.00000000000E+00 -0.21907552925E+03  0.21907552925E+03  0.00000000000E+00 0. -1.
        -24    2    1    2    0    0  0.48663629104E+02  0.34165090987E+01  0.32369519486E+02  0.10013267745E+03  0.81233896680E+02 0.  0.
         25    2    1    2    0    0 -0.19275311274E+03 -0.16771510886E+03  0.33077497454E+02  0.28639821731E+03  0.12509075838E+03 0.  0.
         24    2    1    2    0    0  0.14408948363E+03  0.16429859976E+03  0.17435785341E+03  0.29142503408E+03  0.82292650141E+02 0.  0.
        -11    1    5    5    0    0  0.88010552306E+02  0.39475286675E+02  0.65999918315E+02  0.11687662210E+03  0.00000000000E+00 0.  1.
         12    1    5    5    0    0  0.56078931329E+02  0.12482331309E+03  0.10835793509E+03  0.17454841199E+03  0.00000000000E+00 0. -1.
         13    1    3    3    0    0  0.69224319001E+02  0.72026864002E+00  0.10543390443E+02  0.70026339403E+02  0.00000000000E+00 0. -1.
        -14    1    3    3    0    0 -0.20560689898E+02  0.26962404587E+01  0.21826129043E+02  0.30106338048E+02  0.00000000000E+00 0.  1.
          5    1    4    4  501    0 -0.89482457153E+01  0.34037569460E+01  0.33649269509E+02  0.35233540856E+02  0.41800000000E+01 0. -1.
         -5    1    4    4    0  501 -0.18380486702E+03 -0.17111886581E+03 -0.57177205550E+00  0.25116467646E+03  0.41800000000E+01 0. -1.
</event>
<event>
11    1  0.1078607E-008  0.1984050E+03  0.7561462E-02  0.1055657E+00
         22   -1    0    0    0    0  0.00000000000E+00  0.00000000000E+00  0.77084015720E+02  0.77084015720E+02  0.00000000000E+00 0. -1.
         22   -1    0    0    0    0 -0.00000000000E+00 -0.00000000000E+00 -0.16054292697E+04  0.16054292697E+04  0.00000000000E+00 0.  1.
         24    2    1    2    0    0 -0.12983628615E+03  0.59991824797E+02 -0.99949335292E+03  0.10127622686E+04  0.79018794430E+02 0.  0.
         25    2    1    2    0    0  0.15354324257E+03 -0.14608881209E+03 -0.47712617685E+03  0.53685638385E+03  0.12509164600E+03 0.  0.
        -24    2    1    2    0    0 -0.23706956416E+02  0.86096987289E+02 -0.51725724179E+02  0.13289463296E+03  0.83730053887E+02 0.  0.
        -11    1    3    3    0    0 -0.13193050462E+03  0.52420944358E+02 -0.99129277647E+03  0.10014065019E+04  0.00000000000E+00 0.  1.
         12    1    3    3    0    0  0.20942184694E+01  0.75708804392E+01 -0.82005764492E+01  0.11355766629E+02  0.00000000000E+00 0. -1.
         11    1    5    5    0    0 -0.26618889534E+02  0.34901360092E+02  0.17065205882E+02  0.47094495093E+02  0.00000000000E+00 0. -1.
        -12    1    5    5    0    0  0.29119331176E+01  0.51195627198E+02 -0.68790930061E+02  0.85800137863E+02  0.00000000000E+00 0.  1.
          5    1    4    4  501    0  0.90832852644E+02 -0.44996667969E+01 -0.16767575381E+03  0.19079697308E+03  0.41800000000E+01 0. -1.
         -5    1    4    4    0  501  0.62710389922E+02 -0.14158914529E+03 -0.30945042303E+03  0.34605941077E+03  0.41800000000E+01 0. -1.
</event>
<event>
11    1  0.1078607E-008  0.1891018E+03  0.7561462E-02  0.1062509E+00
         22   -1    0    0    0    0  0.00000000000E+00  0.00000000000E+00  0.17097524760E+03  0.17097524760E+03  0.00000000000E+00 0.  1.
         22   -1    0    0    0    0 -0.00000000000E+00 -0.00000000000E+00 -0.70894710010E+03  0.70894710010E+03  0.00000000000E+00 0. -1.
        -24    2    1    2    0    0  0.36241272814E+02 -0.44080839976E+01 -0.45221370086E+03  0.46065265936E+03  0.79817167777E+02 0.  0.
         25    2    1    2    0    0 -0.86277884441E+02 -0.12599622148E+03 -0.14816037885E+03  0.24681550666E+03  0.12508986887E+03 0.  0.
         24    2    1    2    0    0  0.50036611626E+02  0.13040430548E+03  0.62402227200E+02  0.17245418169E+03  0.79608174400E+02 0.  0.
        -13    1    5    5    0    0  0.49832158446E+02  0.13659551533E+03  0.71037535635E+02  0.16182679102E+03  0.00000000000E+00 0.  1.
         14    1    5    5    0    0  0.20445318055E+00 -0.61912098522E+01 -0.86353084350E+01  0.10627390663E+02  0.00000000000E+00 0. -1.
         13    1    3    3    0    0  0.28511204047E+02  0.36382314710E+02 -0.23211050587E+03  0.23666822455E+03  0.00000000000E+00 0. -1.
        -14    1    3    3    0    0  0.77300687674E+01 -0.40790398708E+02 -0.22010319499E+03  0.22398443481E+03  0.00000000000E+00 0.  1.
          5    1    4    4  501    0  0.17988282701E+02 -0.24756267683E+02  0.95357872903E+01  0.32324212959E+02  0.41800000000E+01 0. -1.
         -5    1    4    4    0  501 -0.10426616714E+03 -0.10123995380E+03 -0.15769616614E+03  0.21449129370E+03  0.41800000000E+01 0. -1.
</event>
<event>
11    1  0.1078607E-008  0.2207623E+03  0.7561462E-02  0.1040741E+00
         22   -1    0    0    0    0  0.00000000000E+00  0.00000000000E+00  0.16765649192E+04  0.16765649192E+04  0.00000000000E+00 0. -1.
         22   -1    0    0    0    0 -0.00000000000E+00 -0.00000000000E+00 -0.17443348999E+03  0.17443348999E+03  0.00000000000E+00 0.  1.
         24    2    1    2    0    0  0.44771603212E+01  0.21976775608E+02 -0.83716552804E+02  0.11745944953E+03  0.79279489400E+02 0.  0.
         25    2    1    2    0    0  0.17263849692E+03  0.23165380837E+02  0.10400979676E+03  0.23833971109E+03  0.12508834707E+03 0.  0.
        -24    2    1    2    0    0 -0.17711565724E+03 -0.45142156446E+02  0.14818381852E+04  0.14951992485E+04  0.79803604458E+02 0.  0.
        -13    1    3    3    0    0 -0.31002819913E+02  0.65643523331E+01 -0.83917341725E+01  0.32782415508E+02  0.00000000000E+00 0.  1.
         14    1    3    3    0    0  0.35479980235E+02  0.15412423275E+02 -0.75324818631E+02  0.84677034020E+02  0.00000000000E+00 0. -1.
         11    1    5    5    0    0 -0.16266585764E+03 -0.49188700663E+02  0.10984877921E+04  0.11115552793E+04  0.00000000000E+00 0. -1.
        -12    1    5    5    0    0 -0.14449799609E+02  0.40465442172E+01  0.38335039317E+03  0.38364396929E+03  0.00000000000E+00 0.  1.
          5    1    4    4  501    0 -0.70625195256E+01 -0.26680065047E+02  0.13289531064E+02  0.30915838802E+02  0.41800000000E+01 0. -1.
         -5    1    4    4    0  501  0.17970101645E+03  0.49845445884E+02  0.90720265697E+02  0.20742387229E+03  0.41800000000E+01 0. -1.
</event>
<event>
11    1  0.1201736E-008  0.1939214E+03  0.7561462E-02  0.1058907E+00
         22   -1    0    0    0    0  0.00000000000E+00  0.00000000000E+00  0.24011204270E+03  0.24011204270E+03  0.00000000000E+00 0. -1.
         22   -1    0    0    0    0 -0.00000000000E+00 -0.00000000000E+00 -0.12867094553E+04  0.12867094553E+04  0.00000000000E+00 0.  1.
         24    2    1    2    0    0 -0.59816580180E+02 -0.12065932850E+02 -0.79834402044E+03  0.80413052662E+03  0.74492408127E+02 0.  0.
         25    2    1    2    0    0  0.72111455766E+02  0.15851689938E+03 -0.42689538410E+03  0.47771802161E+03  0.12508864761E+03 0.  0.
        -24    2    1    2    0    0 -0.12294875585E+02 -0.14645096653E+03  0.17864199193E+03  0.24497294979E+03  0.80620935776E+02 0.  0.
        -11    1    3    3    0    0 -0.64831397279E+02 -0.14255571051E+02 -0.79489590239E+03  0.79766272761E+03  0.00000000000E+00 0.  1.
         12    1    3    3    0    0  0.50148170982E+01  0.21896382010E+01 -0.34481180534E+01  0.64677990144E+01  0.00000000000E+00 0. -1.
         13    1    5    5    0    0 -0.76764423277E+00 -0.13952883880E+03  0.18363396166E+03  0.23063026256E+03  0.00000000000E+00 0. -1.
        -14    1    5    5    0    0 -0.11527231352E+02 -0.69221277316E+01 -0.49919697363E+01  0.14342687225E+02  0.00000000000E+00 0.  1.
          5    1    4    4  501    0 -0.22359781037E+02  0.26722166669E+02 -0.21699790229E+02  0.41259996310E+02  0.41800000000E+01 0. -1.
         -5    1    4    4    0  501  0.94471236802E+02  0.13179473271E+03 -0.40519559387E+03  0.43645802530E+03  0.41800000000E+01 0. -1.
</event>
<event>
11    1  0.1078607E-008  0.1403586E+03  0.7561462E-02  0.1107159E+00
         22   -1    0    0    0    0  0.00000000000E+00  0.00000000000E+00  0.12281351846E+04  0.12281351846E+04  0.00000000000E+00 0.  1.
         22   -1    0    0    0    0 -0.00000000000E+00 -0.00000000000E+00 -0.19246161664E+04  0.19246161664E+04  0.00000000000E+00 0.  1.
         24    2    1    2    0    0  0.18656471879E+02  0.45722533837E+02 -0.19016311939E+04  0.19039186950E+04  0.79161768676E+02 0.  0.
         25    2    1    2    0    0 -0.18232908663E+02  0.23963896131E+02  0.19947593264E+03  0.23737111723E+03  0.12509073634E+03 0.  0.
        -24    2    1    2    0    0 -0.42356321591E+00 -0.69686429968E+02  0.10056742794E+04  0.10114615387E+04  0.82567003189E+02 0.  0.
        -13    1    3    3    0    0  0.33960905058E+02  0.62163122970E+02 -0.14351829662E+04  0.14369299716E+04  0.00000000000E+00 0.  1.
         14    1    3    3    0    0 -0.15304433179E+02 -0.16440589134E+02 -0.46644822771E+03  0.46698872340E+03  0.00000000000E+00 0. -1.
         11    1    5    5    0    0 -0.85419648701E+00 -0.42463218836E+02  0.16603960491E+03  0.17138554491E+03  0.00000000000E+00 0. -1.
        -12    1    5    5    0    0  0.43063327110E+00 -0.27223211132E+02  0.83963467453E+03  0.84007599379E+03  0.00000000000E+00 0.  1.
          5    1    4    4  501    0  0.15826966837E+02 -0.43096384917E+02  0.40145756880E+02  0.61130560832E+02  0.41800000000E+01 0.  1.
         -5    1    4    4    0  501 -0.34059875501E+02  0.67060281048E+02  0.15933017576E+03  0.17624055640E+03  0.41800000000E+01 0.  1.
</event>
<event>
11    1  0.1078607E-008  0.1496978E+03  0.7561462E-02  0.1097188E+00
         22   -1    0    0    0    0  0.00000000000E+00  0.00000000000E+00  0.22473643685E+03  0.22473643685E+03  0.00000000000E+00 0.  1.
         22   -1    0    0    0    0 -0.00000000000E+00 -0.00000000000E+00 -0.12165844056E+04  0.12165844056E+04  0.00000000000E+00 0. -1.
         24    2    1    2    0    0 -0.31914264380E+02  0.76581315126E+02 -0.10655776580E+04  0.10724433724E+04  0.88293961625E+02 0.  0.
         25    2    1    2    0    0  0.24733454519E+01 -0.78540710970E+02 -0.99872128609E+02  0.17831674313E+03  0.12509059953E+03 0.  0.
        -24    2    1    2    0    0  0.29440918928E+02  0.19593958440E+01  0.17360181787E+03  0.19056072691E+03  0.72836752616E+02 0.  0.
        -13    1    3    3    0    0 -0.41229440916E+02  0.88101268376E+02 -0.71908778801E+03  0.72563692515E+03  0.00000000000E+00 0.  1.
         14    1    3    3    0    0  0.93151765358E+01 -0.11519953250E+02 -0.34648986997E+03  0.34680644721E+03  0.00000000000E+00 0. -1.
         13    1    5    5    0    0 -0.22430147200E+02 -0.98190407727E+01  0.68916133363E+02  0.73136574317E+02  0.00000000000E+00 0. -1.
        -14    1    5    5    0    0  0.51871066128E+02  0.11778436617E+02  0.10468568451E+03  0.11742415259E+03  0.00000000000E+00 0.  1.
          5    1    4    4  501    0 -0.56431752236E+02 -0.41894423150E+02 -0.21608124616E+02  0.73648277651E+02  0.41800000000E+01 0.  1.
         -5    1    4    4    0  501  0.58905097688E+02 -0.36646287819E+02 -0.78264003993E+02  0.10466846548E+03  0.41800000000E+01 0.  1.
</event>
<event>
11    1  0.1078607E-008  0.1420122E+03  0.7561462E-02  0.1105332E+00
         22   -1    0    0    0    0  0.00000000000E+00  0.00000000000E+00  0.16117892707E+04  0.16117892707E+04  0.00000000000E+00 0.  1.
         22   -1    0    0    0    0 -0.00000000000E+00 -0.00000000000E+00 -0.40548196908E+03  0.40548196908E+03  0.00000000000E+00 0.  1.
         24    2    1    2    0    0  0.78123552144E+01 -0.48171200955E+00 -0.32889352625E+03  0.33903072286E+03  0.81912236542E+02 0.  0.
         25    2    1    2    0    0 -0.74159582857E+02  0.99248667006E+01  0.68874844405E+01  0.14591977135E+03  0.12508795114E+03 0.  0.
        -24    2    1    2    0    0  0.66347227642E+02 -0.94431546911E+01  0.15283133434E+04  0.15323207455E+04  0.88170651527E+02 0.  0.
        -11    1    3    3    0    0  0.32137977460E+02 -0.25965551950E+02 -0.23778751207E+03  0.24135028564E+03  0.00000000000E+00 0.  1.
         12    1    3    3    0    0 -0.24325622246E+02  0.25483839941E+02 -0.91106014176E+02  0.97680437217E+02  0.00000000000E+00 0. -1.
         11    1    5    5    0    0 -0.11698555096E+02  0.20895761516E+02  0.21235777205E+03  0.21370379592E+03  0.00000000000E+00 0. -1.
        -12    1    5    5    0    0  0.78045782738E+02 -0.30338916207E+02  0.13159555714E+04  0.13186169496E+04  0.00000000000E+00 0.  1.
          5    1    4    4  501    0 -0.88339270780E+02 -0.20137013688E+02 -0.30525324758E+02  0.95700543017E+02  0.41800000000E+01 0. -1.
         -5    1    4    4    0  501  0.14179687923E+02  0.30061880388E+02  0.37412809199E+02  0.50219228332E+02  0.41800000000E+01 0. -1.
</event>
<event>
11    1  0.1078607E-008  0.3914958E+03  0.7561462E-02  0.9675188E-01
         22   -1    0    0    0    0  0.00000000000E+00  0.00000000000E+00  0.18545814758E+04  0.18545814758E+04  0.00000000000E+00 0.  1.
         22   -1    0    0    0    0 -0.00000000000E+00 -0.00000000000E+00 -0.34883913573E+03  0.34883913573E+03  0.00000000000E+00 0.  1.
        -24    2    1    2    0    0  0.16890110613E+03 -0.33156370082E+03 -0.20078834277E+03  0.43259096090E+03  0.91416133776E+02 0.  0.
         25    2    1    2    0    0 -0.13940396084E+03  0.32841438698E+03  0.15154018094E+04  0.15618511501E+04  0.12508755927E+03 0.  0.
         24    2    1    2    0    0 -0.29497145289E+02  0.31493138373E+01  0.19112887348E+03  0.20897850051E+03  0.79131331581E+02 0.  0.
        -13    1    5    5    0    0 -0.30522231420E+02  0.38361480457E+02  0.10304662526E+03  0.11411317528E+03  0.00000000000E+00 0.  1.
         14    1    5    5    0    0  0.10250861316E+01 -0.35212166620E+02  0.88082248223E+02  0.94865325233E+02  0.00000000000E+00 0. -1.
         11    1    3    3    0    0  0.26345501094E+01  0.37630502567E+01  0.38706766884E+01  0.60069575942E+01  0.00000000000E+00 0. -1.
        -12    1    3    3    0    0  0.16626655602E+03 -0.33532675107E+03 -0.20465901946E+03  0.42658400331E+03  0.00000000000E+00 0.  1.
          5    1    4    4  501    0 -0.16232074560E+03  0.27798900821E+03  0.13216027984E+04  0.13602490001E+04  0.41800000000E+01 0. -1.
         -5    1    4    4    0  501  0.22916784763E+02  0.50425378772E+02  0.19379901100E+03  0.20160215007E+03  0.41800000000E+01 0. -1.
</event>
<event>
11    1  0.1078607E-008  0.1341693E+03  0.7561462E-02  0.1114250E+00
         22   -1    0    0    0    0  0.00000000000E+00  0.00000000000E+00  0.26624727631E+03  0.26624727631E+03  0.00000000000E+00 0.  1.
         22   -1    0    0    0    0 -0.00000000000E+00 -0.00000000000E+00 -0.25641747597E+03  0.25641747597E+03  0.00000000000E+00 0. -1.
         24    2    1    2    0    0 -0.25381498087E+02  0.37394513692E+02 -0.16691963462E+03  0.19048269624E+03  0.79868160402E+02 0.  0.
         25    2    1    2    0    0 -0.17794256629E+02 -0.25673071841E+01 -0.37912370176E+01  0.12643581545E+03  0.12509362620E+03 0.  0.
        -24    2    1    2    0    0  0.43175754716E+02 -0.34827206508E+02  0.18054067199E+03  0.20574624059E+03  0.81605766747E+02 0.  0.
        -11    1    3    3    0    0  0.50108138724E+01  0.27107697579E+02 -0.85017867487E+01  0.28848152482E+02  0.00000000000E+00 0.  1.
         12    1    3    3    0    0 -0.30392311959E+02  0.10286816113E+02 -0.15841784787E+03  0.16163454376E+03  0.00000000000E+00 0. -1.
         13    1    5    5    0    0  0.24551988294E+02 -0.61339249851E+02  0.12722590600E+03  0.14335876276E+03  0.00000000000E+00 0. -1.
        -14    1    5    5    0    0  0.18623766422E+02  0.26512043344E+02  0.53314765984E+02  0.62387477830E+02  0.00000000000E+00 0.  1.
          5    1    4    4  501    0 -0.45787298560E+01 -0.61107328297E+02  0.15341519542E+02  0.63308016558E+02  0.41800000000E+01 0.  1.
         -5    1    4    4    0  501 -0.13215526773E+02  0.58540021113E+02 -0.19132756560E+02  0.63127798895E+02  0.41800000000E+01 0.  1.
</event>
<event>
11    1  0.1078607E-008  0.2014936E+03  0.7561462E-02  0.1053472E+00
         22   -1    0    0    0    0  0.00000000000E+00  0.00000000000E+00  0.29179220035E+03  0.29179220035E+03  0.00000000000E+00 0.  1.
         22   -1    0    0    0    0 -0.00000000000E+00 -0.00000000000E+00 -0.18986139567E+04  0.18986139567E+04  0.00000000000E+00 0.  1.
         24    2    1    2    0    0  0.13857919619E+03  0.78420127817E+02 -0.18075383391E+04  0.18162573521E+04  0.79006403260E+02 0.  0.
         25    2    1    2    0    0 -0.95594078511E+02 -0.88482600269E+02  0.31032074597E+02  0.18324104759E+03  0.12508754323E+03 0.  0.
        -24    2    1    2    0    0 -0.42985117682E+02  0.10062472452E+02  0.16968450817E+03  0.19090775733E+03  0.75524603938E+02 0.  0.
        -13    1    3    3    0    0  0.32311728871E+02  0.60595473218E+02 -0.59845348252E+03  0.60238063542E+03  0.00000000000E+00 0.  1.
         14    1    3    3    0    0  0.10626746732E+03  0.17824654599E+02 -0.12090848566E+04  0.12138767167E+04  0.00000000000E+00 0. -1.
         13    1    5    5    0    0 -0.30586105049E+02 -0.22228737042E+01  0.13090304852E+02  0.33343771093E+02  0.00000000000E+00 0. -1.
        -14    1    5    5    0    0 -0.12399012633E+02  0.12285346157E+02  0.15659420332E+03  0.15756398623E+03  0.00000000000E+00 0.  1.
          5    1    4    4  501    0  0.15434278421E+02 -0.64604835079E+02  0.17334689364E+02  0.68774744793E+02  0.41800000000E+01 0.  1.
         -5    1    4    4    0  501 -0.11102835693E+03 -0.23877765190E+02  0.13697385233E+02  0.11446630280E+03  0.41800000000E+01 0.  1.
</event>
<event>
11    1  0.1078607E-008  0.1665145E+03  0.7561462E-02  0.1081105E+00
         22   -1    0    0    0    0  0.00000000000E+00  0.00000000000E+00  0.15781020013E+03  0.15781020013E+03  0.00000000000E+00 0. -1.
         22   -1    0    0    0    0 -0.00000000000E+00 -0.00000000000E+00 -0.81858325417E+03  0.81858325417E+03  0.00000000000E+00 0.  1.
         24    2    1    2    0    0 -0.71762620062E+02  0.49076022759E+02 -0.32660393873E+03  0.34767225479E+03  0.81532412635E+02 0.  0.
         25    2    1    2    0    0  0.13822981976E+03 -0.78388590626E+02 -0.43542852718E+03  0.48010186455E+03  0.12509014293E+03 0.  0.
        -24    2    1    2    0    0 -0.66467199702E+02  0.29312567867E+02  0.10125941187E+03  0.14861933496E+03  0.80976064113E+02 0.  0.
        -13    1    3    3    0    0 -0.79787777423E+02  0.30352493889E+02 -0.30954979770E+03  0.32110503043E+03  0.00000000000E+00 0.  1.
         14    1    3    3    0    0  0.80251573610E+01  0.18723528871E+02 -0.17054141031E+02  0.26567224363E+02  0.00000000000E+00 0. -1.
         11    1    5    5    0    0 -0.55353522280E+02 -0.11888690734E+02  0.86664766680E+02  0.10351876728E+03  0.00000000000E+00 0. -1.
        -12    1    5    5    0    0 -0.11113677422E+02  0.41201258601E+02  0.14594645190E+02  0.45100567672E+02  0.00000000000E+00 0.  1.
          5    1    4    4  501    0  0.46325353120E+02 -0.50229521942E+02 -0.33142187585E+03  0.33841834378E+03  0.41800000000E+01 0. -1.
         -5    1    4    4    0  501  0.91904466644E+02 -0.28159068684E+02 -0.10400665132E+03  0.14168352077E+03  0.41800000000E+01 0. -1.
</event>
<event>
11    1  0.1078607E-008  0.1559802E+03  0.7561462E-02  0.1090920E+00
         22   -1    0    0    0    0  0.00000000000E+00  0.00000000000E+00  0.83406335561E+03  0.83406335561E+03  0.00000000000E+00 0. -1.
         22   -1    0    0    0    0 -0.00000000000E+00 -0.00000000000E+00 -0.28587964620E+04  0.28587964620E+04  0.00000000000E+00 0. -1.
         24    2    1    2    0    0  0.22999000478E+02 -0.15456047618E+01 -0.26769935188E+04  0.26782634305E+04  0.79179295315E+02 0.  0.
         25    2    1    2    0    0 -0.10894472129E+03  0.36061814386E+02 -0.13561755790E+03  0.21727198007E+03  0.12508231113E+03 0.  0.
        -24    2    1    2    0    0  0.85945720813E+02 -0.34516209625E+02  0.78787797023E+03  0.79732440706E+03  0.79977987393E+02 0.  0.
        -13    1    3    3    0    0  0.22227298099E+02 -0.32744195344E+02 -0.77152181167E+03  0.77253617456E+03  0.00000000000E+00 0.  1.
         14    1    3    3    0    0  0.77170237832E+00  0.31198590582E+02 -0.19054717071E+04  0.19057272560E+04  0.00000000000E+00 0. -1.
         11    1    5    5    0    0  0.31274468202E+02 -0.32474092494E+02  0.59867967600E+03  0.60037489413E+03  0.00000000000E+00 0. -1.
        -12    1    5    5    0    0  0.54671252611E+02 -0.20421171308E+01  0.18919829423E+03  0.19694951293E+03  0.00000000000E+00 0.  1.
          5    1    4    4  501    0 -0.52749683752E+02  0.72300835527E+02 -0.34574722738E+02  0.96035534081E+02  0.41800000000E+01 0.  1.
         -5    1    4    4    0  501 -0.56195037539E+02 -0.36239021140E+02 -0.10104283516E+03  0.12123644599E+03  0.41800000000E+01 0.  1.
</event>
<event>
11    1  0.1078607E-008  0.2283943E+03  0.7561462E-02  0.1036083E+00
         22   -1    0    0    0    0  0.00000000000E+00  0.00000000000E+00  0.53682758258E+03  0.53682758258E+03  0.00000000000E+00 0. -1.
         22   -1    0    0    0    0 -0.00000000000E+00 -0.00000000000E+00 -0.67001279738E+03  0.67001279738E+03  0.00000000000E+00 0. -1.
         24    2    1    2    0    0 -0.53018515683E+00  0.21485971552E+02 -0.46251245843E+03  0.47007372747E+03  0.81176394251E+02 0.  0.
         25    2    1    2    0    0  0.19114527620E+03 -0.31627001502E+02 -0.10663916301E+03  0.25407964913E+03  0.12509105953E+03 0.  0.
        -24    2    1    2    0    0 -0.19061509105E+03  0.10141029950E+02  0.43596640663E+03  0.48268700336E+03  0.80517588619E+02 0.  0.
        -13    1    3    3    0    0  0.12113512160E+02  0.49104432183E+02 -0.34553749950E+03  0.34921933794E+03  0.00000000000E+00 0.  1.
         14    1    3    3    0    0 -0.12643697317E+02 -0.27618460632E+02 -0.11697495893E+03  0.12085438952E+03  0.00000000000E+00 0. -1.
         11    1    5    5    0    0 -0.39173077894E+02 -0.30510822357E+02  0.12277746608E+03  0.13243770796E+03  0.00000000000E+00 0. -1.
        -12    1    5    5    0    0 -0.15144201315E+03  0.40651852308E+02  0.31318894056E+03  0.35024929540E+03  0.00000000000E+00 0.  1.
          5    1    4    4  501    0  0.17597616593E+02 -0.45810955924E+02 -0.51792037495E+02  0.71471724061E+02  0.41800000000E+01 0. -1.
         -5    1    4    4    0  501  0.17354765961E+03  0.14183954422E+02 -0.54847125510E+02  0.18260792506E+03  0.41800000000E+01 0. -1.
</event>
<event>
11    1  0.1078607E-008  0.1314443E+03  0.7561462E-02  0.1117507E+00
         22   -1    0    0    0    0  0.00000000000E+00  0.00000000000E+00  0.11261904124E+04  0.11261904124E+04  0.00000000000E+00 0.  1.
         22   -1    0    0    0    0 -0.00000000000E+00 -0.00000000000E+00 -0.18572622619E+03  0.18572622619E+03  0.00000000000E+00 0.  1.
        -24    2    1    2    0    0 -0.72878363974E+00 -0.39911995106E+02 -0.14714834589E+03  0.17379242451E+03  0.83412664744E+02 0.  0.
         25    2    1    2    0    0  0.12317798245E+02  0.46664689283E+02  0.16722668215E+03  0.21433885313E+03  0.12508820631E+03 0.  0.
         24    2    1    2    0    0 -0.11589014605E+02 -0.67526941768E+01  0.92038584991E+03  0.92378536093E+03  0.78034455234E+02 0.  0.
        -11    1    5    5    0    0 -0.66053674026E+01  0.17547322628E+02  0.82542977201E+03  0.82564268781E+03  0.00000000000E+00 0.  1.
         12    1    5    5    0    0 -0.49836472022E+01 -0.24300016805E+02  0.94956077902E+02  0.98142673117E+02  0.00000000000E+00 0. -1.
         11    1    3    3    0    0  0.36828387181E+02 -0.12048932782E+02 -0.34729929624E+02  0.52035323534E+02  0.00000000000E+00 0. -1.
        -12    1    3    3    0    0 -0.37557170821E+02 -0.27863062324E+02 -0.11241841627E+03  0.12175710097E+03  0.00000000000E+00 0.  1.
          5    1    4    4  501    0 -0.24711664850E+01 -0.36919523972E+02  0.97637176080E+02  0.10449712181E+03  0.41800000000E+01 0.  1.
         -5    1    4    4    0  501  0.14788964730E+02  0.83584213255E+02  0.69589506066E+02  0.10984173131E+03  0.41800000000E+01 0.  1.
</event>
<event>
11    1  0.1078607E-008  0.1563484E+03  0.7561462E-02  0.1090563E+00
         22   -1    0    0    0    0  0.00000000000E+00  0.00000000000E+00  0.25473557250E+03  0.25473557250E+03  0.00000000000E+00 0.  1.
         22   -1    0    0    0    0 -0.00000000000E+00 -0.00000000000E+00 -0.60670036875E+03  0.60670036875E+03  0.00000000000E+00 0. -1.
         24    2    1    2    0    0 -0.32555351872E+02 -0.25064947447E+02 -0.51441320028E+03  0.52220759098E+03  0.79948264101E+02 0.  0.
         25    2    1    2    0    0  0.88028673555E+02 -0.49900325352E+02  0.40742028437E+02  0.16596921422E+03  0.12508707907E+03 0.  0.
        -24    2    1    2    0    0 -0.55473321683E+02  0.74965272799E+02  0.12170637559E+03  0.17325913604E+03  0.80679643146E+02 0.  0.
        -13    1    3    3    0    0 -0.25903651921E+02  0.26894720463E+02 -0.19872149213E+03  0.20219929922E+03  0.00000000000E+00 0.  1.
         14    1    3    3    0    0 -0.66516999511E+01 -0.51959667910E+02 -0.31569170815E+03  0.32000829176E+03  0.00000000000E+00 0. -1.
         13    1    5    5    0    0 -0.12829941636E+02 -0.77367409839E+01 -0.52322561124E+01  0.15869501172E+02  0.00000000000E+00 0. -1.
        -14    1    5    5    0    0 -0.42643380047E+02  0.82702013783E+02  0.12693863170E+03  0.15738963487E+03  0.00000000000E+00 0.  1.
          5    1    4    4  501    0  0.39175293187E+02 -0.55442617635E+02  0.78477591469E+02  0.10384985416E+03  0.41800000000E+01 0.  1.
         -5    1    4    4    0  501  0.48853380369E+02  0.55422922828E+01 -0.37735563032E+02  0.62119360062E+02  0.41800000000E+01 0.  1.
</event>
<event>
11    1  0.1078607E-008  0.2440074E+03  0.7561462E-02  0.1027141E+00
         22   -1    0    0    0    0  0.00000000000E+00  0.00000000000E+00  0.12955940394E+03  0.12955940394E+03  0.00000000000E+00 0. -1.
         22   -1    0    0    0    0 -0.00000000000E+00 -0.00000000000E+00 -0.11522327236E+04  0.11522327236E+04  0.00000000000E+00 0. -1.
         24    2    1    2    0    0  0.25212835814E+03 -0.22321317619E+02 -0.83385387107E+03  0.87479930376E+03  0.76776255206E+02 0.  0.
         25    2    1    2    0    0 -0.13141102078E+03 -0.33170194415E+00 -0.18640839637E+03  0.26012423002E+03  0.12509020104E+03 0.  0.
        -24    2    1    2    0    0 -0.12071733735E+03  0.22653019563E+02 -0.24110521742E+01  0.14686859371E+03  0.80490594561E+02 0.  0.
        -13    1    3    3    0    0 -0.12564364862E+01  0.42435897520E+00 -0.63718208481E+02  0.63732007698E+02  0.00000000000E+00 0.  1.
         14    1    3    3    0    0  0.25338479462E+03 -0.22745676594E+02 -0.77013566259E+03  0.81106729607E+03  0.00000000000E+00 0. -1.
         13    1    5    5    0    0 -0.31618738523E+02  0.14996202678E+01  0.35670833876E+02  0.47690689616E+02  0.00000000000E+00 0. -1.
        -14    1    5    5    0    0 -0.89098598832E+02  0.21153399295E+02 -0.38081886050E+02  0.99177904095E+02  0.00000000000E+00 0.  1.
          5    1    4    4  501    0 -0.57033657313E+02  0.61648077480E+02 -0.77664838257E+02  0.11446668959E+03  0.41800000000E+01 0.  1.
         -5    1    4    4    0  501 -0.74377363471E+02 -0.61979779424E+02 -0.10874355811E+03  0.14565754043E+03  0.41800000000E+01 0.  1.
</event>
<event>
11    1  0.1078607E-008  0.9931658E+03  0.7561462E-02  0.8685542E-01
         22   -1    0    0    0    0  0.00000000000E+00  0.00000000000E+00  0.64994237800E+03  0.64994237800E+03  0.00000000000E+00 0. -1.
         22   -1    0    0    0    0 -0.00000000000E+00 -0.00000000000E+00 -0.37940989651E+03  0.37940989651E+03  0.00000000000E+00 0.  1.
         24    2    1    2    0    0  0.34710139640E+02  0.31709391868E+02 -0.62627130707E+01  0.93655027098E+02  0.80757434328E+02 0.  0.
         25    2    1    2    0    0 -0.30196327809E+03 -0.34222074082E+03  0.10835472533E+03  0.48547448758E+03  0.12509146583E+03 0.  0.
        -24    2    1    2    0    0  0.26725313845E+03  0.31051134895E+03  0.16844046923E+03  0.45022275984E+03  0.80540697556E+02 0.  0.
        -13    1    3    3    0    0  0.41233027585E+01  0.26512993776E+02 -0.39779641417E+02  0.47982917126E+02  0.00000000000E+00 0.  1.
         14    1    3    3    0    0  0.30586836881E+02  0.51963980921E+01  0.33516928347E+02  0.45672109972E+02  0.00000000000E+00 0. -1.
         11    1    5    5    0    0  0.15754724382E+02  0.61720047089E+01  0.24951753460E+02  0.30147885219E+02  0.00000000000E+00 0. -1.
        -12    1    5    5    0    0  0.25149841407E+03  0.30433934424E+03  0.14348871577E+03  0.42007487462E+03  0.00000000000E+00 0.  1.
          5    1    4    4  501    0 -0.12303579657E+02  0.90169156447E+01  0.12608054215E+02  0.20226672272E+02  0.41800000000E+01 0. -1.
         -5    1    4    4    0  501 -0.28965969843E+03 -0.35123765646E+03  0.95746671119E+02  0.46524781530E+03  0.41800000000E+01 0. -1.
</event>
<event>
11    1  0.1078607E-008  0.2620372E+03  0.7561462E-02  0.1017675E+00
         22   -1    0    0    0    0  0.00000000000E+00  0.00000000000E+00  0.29414304358E+04  0.29414304358E+04  0.00000000000E+00 0. -1.
         22   -1    0    0    0    0 -0.00000000000E+00 -0.00000000000E+00 -0.46796318845E+02  0.46796318845E+02  0.00000000000E+00 0. -1.
         24    2    1    2    0    0 -0.33707273843E+02  0.21946761984E+03  0.41996995711E+03  0.48176096451E+03  0.80103967308E+02 0.  0.
         25    2    1    2    0    0  0.58904971943E+02 -0.25126909745E+03  0.14840162131E+04  0.15114762479E+04  0.12510144733E+03 0.  0.
        -24    2    1    2    0    0 -0.25197698100E+02  0.31801477614E+02  0.99064794673E+03  0.99498954224E+03  0.83513932011E+02 0.  0.
        -11    1    3    3    0    0 -0.23665994082E+01  0.29375943569E+02  0.14493886032E+02  0.32842344399E+02  0.00000000000E+00 0.  1.
         12    1    3    3    0    0 -0.31340674435E+02  0.19009167627E+03  0.40547607108E+03  0.44891862011E+03  0.00000000000E+00 0. -1.
         13    1    5    5    0    0 -0.34479646904E+01  0.54663898184E+02  0.78781098505E+03  0.78971271890E+03  0.00000000000E+00 0. -1.
        -14    1    5    5    0    0 -0.21749733409E+02 -0.22862420570E+02  0.20283696167E+03  0.20527682334E+03  0.00000000000E+00 0.  1.
          5    1    4    4  501    0 -0.37976717144E+02 -0.82889906760E+02  0.54171318523E+03  0.54934835500E+03  0.41800000000E+01 0.  1.
         -5    1    4    4    0  501  0.96881689087E+02 -0.16837919069E+03  0.94230302791E+03  0.96212789293E+03  0.41800000000E+01 0.  1.
</event>
<event>
11    1  0.1078607E-008  0.1790960E+03  0.7561462E-02  0.1070376E+00
         22   -1    0    0    0    0  0.00000000000E+00  0.00000000000E+00  0.78386729202E+03  0.78386729202E+03  0.00000000000E+00 0.  1.
         22   -1    0    0    0    0 -0.00000000000E+00 -0.00000000000E+00 -0.11035271760E+04  0.11035271760E+04  0.00000000000E+00 0. -1.
        -24    2    1    2    0    0 -0.11909116291E+03 -0.58579532681E+02 -0.88397426617E+03  0.89745255475E+03  0.79976984524E+02 0.  0.
         25    2    1    2    0    0  0.11924221401E+03 -0.12894904607E+02 -0.17289422003E+03  0.24480066856E+03  0.12509984749E+03 0.  0.
         24    2    1    2    0    0 -0.15105109711E+00  0.71474437289E+02  0.73720860219E+03  0.74514124473E+03  0.81549576654E+02 0.  0.
        -11    1    5    5    0    0  0.21276759614E+02  0.15938443177E+02  0.49542742847E+03  0.49614017309E+03  0.00000000000E+00 0.  1.
         12    1    5    5    0    0 -0.21427810711E+02  0.55535994112E+02  0.24178117372E+03  0.24900107164E+03  0.00000000000E+00 0. -1.
         11    1    3    3    0    0 -0.11053199798E+03 -0.18616919439E+02 -0.70627177158E+03  0.71511098971E+03  0.00000000000E+00 0. -1.
        -12    1    3    3    0    0 -0.85591649342E+01 -0.39962613242E+02 -0.17770249459E+03  0.18234156505E+03  0.00000000000E+00 0.  1.
          5    1    4    4  501    0 -0.31312498791E+00 -0.47295514682E+02 -0.61993873677E+02  0.78087620848E+02  0.41800000000E+01 0.  1.
         -5    1    4    4    0  501  0.11955533900E+03  0.34400610074E+02 -0.11090034635E+03  0.16671304771E+03  0.41800000000E+01 0.  1.
</event>
<event>
11    1  0.1078607E-008  0.1633044E+03  0.7561462E-02  0.1084010E+00
         22   -1    0    0    0    0  0.00000000000E+00  0.00000000000E+00  0.16858176121E+04  0.16858176121E+04  0.00000000000E+00 0.  1.
         22   -1    0    0    0    0 -0.00000000000E+00 -0.00000000000E+00 -0.26711095856E+03  0.26711095856E+03  0.00000000000E+00 0.  1.
         24    2    1    2    0    0  0.31559078481E+02 -0.99816073048E+02 -0.23502530598E+03  0.26937559319E+03  0.79794059181E+02 0.  0.
         25    2    1    2    0    0 -0.74756552670E+02  0.97067562151E+02  0.58987943685E+03  0.61531757749E+03  0.12508923759E+03 0.  0.
        -24    2    1    2    0    0  0.43197474189E+02  0.27485108971E+01  0.10638525227E+04  0.10682354000E+04  0.86435546441E+02 0.  0.
        -11    1    3    3    0    0  0.51265485169E+02 -0.98121152949E+02 -0.21079400699E+03  0.23809666946E+03  0.00000000000E+00 0.  1.
         12    1    3    3    0    0 -0.19706406688E+02 -0.16949200989E+01 -0.24231298992E+02  0.31278923727E+02  0.00000000000E+00 0. -1.
         11    1    5    5    0    0  0.45911728092E+02 -0.12796649351E+02  0.26661067949E+03  0.27083739666E+03  0.00000000000E+00 0. -1.
        -12    1    5    5    0    0 -0.27142539035E+01  0.15545160248E+02  0.79724184316E+03  0.79739800330E+03  0.00000000000E+00 0.  1.
          5    1    4    4  501    0 -0.10449992651E+03  0.53278251841E+02  0.46566312558E+03  0.48022747285E+03  0.41800000000E+01 0.  1.
         -5    1    4    4    0  501  0.29743373839E+02  0.43789310310E+02  0.12421631128E+03  0.13509010464E+03  0.41800000000E+01 0.  1.
</event>
<event>
11    1  0.1078607E-008  0.2467120E+03  0.7561462E-02  0.1025665E+00
         22   -1    0    0    0    0  0.00000000000E+00  0.00000000000E+00  0.22424208001E+03  0.22424208001E+03  0.00000000000E+00 0.  1.
         22   -1    0    0    0    0 -0.00000000000E+00 -0.00000000000E+00 -0.10281831511E+04  0.10281831511E+04  0.00000000000E+00 0.  1.
         24    2    1    2    0    0  0.22777068165E+03  0.80570406790E+02 -0.80991577911E+03  0.84914340862E+03  0.81913889369E+02 0.  0.
         25    2    1    2    0    0 -0.11445916629E+03 -0.80061220489E+02 -0.11564322505E+03  0.22027808600E+03  0.12505350813E+03 0.  0.
        -24    2    1    2    0    0 -0.11331151536E+03 -0.50918630096E+00  0.12161793309E+03  0.18300373648E+03  0.76548593287E+02 0.  0.
        -11    1    3    3    0    0  0.11072309720E+03  0.82443351251E+02 -0.43667080863E+03  0.45797151169E+03  0.00000000000E+00 0.  1.
         12    1    3    3    0    0  0.11704758446E+03 -0.18729444609E+01 -0.37324497049E+03  0.39117189692E+03  0.00000000000E+00 0. -1.
         11    1    5    5    0    0 -0.87129644364E+02  0.22843517532E+02  0.49439253960E+02  0.10275038225E+03  0.00000000000E+00 0. -1.
        -12    1    5    5    0    0 -0.26181870998E+02 -0.23352703833E+02  0.72178679129E+02  0.80253354236E+02  0.00000000000E+00 0.  1.
          5    1    4    4  501    0 -0.74537758303E+02 -0.86846453512E+02 -0.13344228791E+03  0.17584794711E+03  0.41800000000E+01 0.  1.
         -5    1    4    4    0  501 -0.39921407988E+02  0.67852330228E+01  0.17799062856E+02  0.44430138887E+02  0.41800000000E+01 0.  1.
</event>
<event>
11    1  0.1078607E-008  0.1844003E+03  0.7561462E-02  0.1066138E+00
         22   -1    0    0    0    0  0.00000000000E+00  0.00000000000E+00  0.11361044832E+03  0.11361044832E+03  0.00000000000E+00 0.  1.
         22   -1    0    0    0    0 -0.00000000000E+00 -0.00000000000E+00 -0.24620620224E+04  0.24620620224E+04  0.00000000000E+00 0.  1.
        -24    2    1    2    0    0 -0.45616441595E+02 -0.83811076521E+02 -0.21777743037E+04  0.21814237595E+04  0.82483600808E+02 0.  0.
         25    2    1    2    0    0 -0.83233844484E+02  0.12752348387E+03 -0.93833972054E+02  0.21827364110E+03  0.12509378994E+03 0.  0.
         24    2    1    2    0    0  0.12885028608E+03 -0.43712407352E+02 -0.76843298310E+02  0.17597507010E+03  0.80926893067E+02 0.  0.
        -11    1    5    5    0    0  0.68488081353E+02 -0.55622533994E+02 -0.16428225678E+02  0.89746142949E+02  0.00000000000E+00 0.  1.
         12    1    5    5    0    0  0.60362204726E+02  0.11910126642E+02 -0.60415072632E+02  0.86228927149E+02  0.00000000000E+00 0. -1.
         13    1    3    3    0    0  0.14540255704E+02  0.77855924924E+01 -0.30661501570E+03  0.30705830446E+03  0.00000000000E+00 0. -1.
        -14    1    3    3    0    0 -0.60156697298E+02 -0.91596669013E+02 -0.18711592880E+04  0.18743654551E+04  0.00000000000E+00 0.  1.
          5    1    4    4  501    0 -0.78385714808E+02  0.13160791034E+03 -0.32725532711E+02  0.15669523044E+03  0.41800000000E+01 0. -1.
         -5    1    4    4    0  501 -0.48481296766E+01 -0.40844264713E+01 -0.61108439344E+02  0.61578410665E+02  0.41800000000E+01 0. -1.
</event>
<event>
11    1  0.1078607E-008  0.2651247E+03  0.7561462E-02  0.1016137E+00
         22   -1    0    0    0    0  0.00000000000E+00  0.00000000000E+00  0.79670134409E+03  0.79670134409E+03  0.00000000000E+00 0.  1.
         22   -1    0    0    0    0 -0.00000000000E+00 -0.00000000000E+00 -0.17011450496E+04  0.17011450496E+04  0.00000000000E+00 0. -1.
        -24    2    1    2    0    0  0.11981343386E+03  0.10202781316E+03 -0.15039763620E+04  0.15146949086E+04  0.87125399060E+02 0.  0.
         25    2    1    2    0    0 -0.33955065929E+03 -0.94928944327E+02  0.37010322699E+02  0.37594001608E+03  0.12511985057E+03 0.  0.
         24    2    1    2    0    0  0.21973722543E+03 -0.70988688302E+01  0.56252233384E+03  0.60721146894E+03  0.62765832762E+02 0.  0.
        -11    1    5    5    0    0  0.21588853927E+03  0.14202199085E+01  0.50922185044E+03  0.55309743390E+03  0.00000000000E+00 0.  1.
         12    1    5    5    0    0  0.38486861560E+01 -0.85190887387E+01  0.53300483400E+02  0.54114035044E+02  0.00000000000E+00 0. -1.
         13    1    3    3    0    0  0.68541846658E+02  0.35015821824E+01 -0.60743372049E+03  0.61129859366E+03  0.00000000000E+00 0. -1.
        -14    1    3    3    0    0  0.51271587206E+02  0.98526230975E+02 -0.89654264152E+03  0.90339631498E+03  0.00000000000E+00 0.  1.
          5    1    4    4  501    0 -0.72190059654E+02  0.25381758566E+01  0.54823899957E+02  0.90779840582E+02  0.41800000000E+01 0.  1.
         -5    1    4    4    0  501 -0.26736059964E+03 -0.97467120184E+02 -0.17813577258E+02  0.28516017550E+03  0.41800000000E+01 0.  1.
</event>
<event>
11    1  0.1078607E-008  0.1878658E+03  0.7561462E-02  0.1063452E+00
         22   -1    0    0    0    0  0.00000000000E+00  0.00000000000E+00  0.20780954367E+04  0.20780954367E+04  0.00000000000E+00 0. -1.
         22   -1    0    0    0    0 -0.00000000000E+00 -0.00000000000E+00 -0.62108275976E+03  0.62108275976E+03  0.00000000000E+00 0. -1.
        -24    2    1    2    0    0 -0.95745896948E+02  0.10095639212E+03 -0.56567850802E+03  0.58652871388E+03  0.68295591959E+02 0.  0.
         25    2    1    2    0    0  0.12513746624E+03 -0.10746856680E+03  0.19926839771E+03  0.28733958981E+03  0.12508903725E+03 0.  0.
         24    2    1    2    0    0 -0.29391569290E+02  0.65121746745E+01  0.18234227872E+04  0.18253098927E+04  0.77325744808E+02 0.  0.
        -13    1    5    5    0    0 -0.45768167904E+02 -0.18338857580E+01  0.59886517124E+03  0.60061433687E+03  0.00000000000E+00 0.  1.
         14    1    5    5    0    0  0.16376598614E+02  0.83460604326E+01  0.12245576160E+04  0.12246955559E+04  0.00000000000E+00 0. -1.
         13    1    3    3    0    0 -0.52284016971E+02  0.92586506787E+02 -0.32926318702E+03  0.34600596237E+03  0.00000000000E+00 0. -1.
        -14    1    3    3    0    0 -0.43461879977E+02  0.83698853370E+01 -0.23641532100E+03  0.24052275151E+03  0.00000000000E+00 0.  1.
          5    1    4    4  501    0  0.26704707570E+02  0.80822171987E+01  0.10473459769E+03  0.10846783853E+03  0.41800000000E+01 0.  1.
         -5    1    4    4    0  501  0.98432758669E+02 -0.11555078400E+03  0.94533800023E+02  0.17887175129E+03  0.41800000000E+01 0.  1.
</event>
<event>
11    1  0.1078607E-008  0.2223982E+03  0.7561462E-02  0.1039726E+00
         22   -1    0    0    0    0  0.00000000000E+00  0.00000000000E+00  0.24886938663E+03  0.24886938663E+03  0.00000000000E+00 0. -1.
         22   -1    0    0    0    0 -0.00000000000E+00 -0.00000000000E+00 -0.28586324929E+04  0.28586324929E+04  0.00000000000E+00 0. -1.
         24    2    1    2    0    0 -0.68986441245E+02 -0.44895111852E+00 -0.25174421807E+04  0.25197040411E+04  0.81449317641E+02 0.  0.
         25    2    1    2    0    0  0.14456209646E+03  0.16309198100E+03 -0.23592428663E+03  0.34468100749E+03  0.12509010315E+03 0.  0.
        -24    2    1    2    0    0 -0.75575655212E+02 -0.16264302988E+03  0.14360336102E+03  0.24311683090E+03  0.79494863636E+02 0.  0.
        -11    1    3    3    0    0 -0.51996296081E+02 -0.18312375560E+02 -0.72517245241E+03  0.72726476859E+03  0.00000000000E+00 0.  1.
         12    1    3    3    0    0 -0.16990145164E+02  0.17863424441E+02 -0.17922697283E+04  0.17924392726E+04  0.00000000000E+00 0. -1.
         13    1    5    5    0    0 -0.49455385332E+02 -0.15844548669E+03  0.10530832244E+03  0.19657225177E+03  0.00000000000E+00 0. -1.
        -14    1    5    5    0    0 -0.26120269879E+02 -0.41975431925E+01  0.38295038577E+02  0.46544579137E+02  0.00000000000E+00 0.  1.
          5    1    4    4  501    0  0.44149115912E+02 -0.12761124368E+02 -0.64636473282E+02  0.79418743438E+02  0.41800000000E+01 0.  1.
         -5    1    4    4    0  501  0.10041298054E+03  0.17585310537E+03 -0.17128781335E+03  0.26526226405E+03  0.41800000000E+01 0.  1.
</event>
<event>
11    1  0.1078607E-008  0.3582802E+03  0.7561462E-02  0.9781567E-01
         22   -1    0    0    0    0  0.00000000000E+00  0.00000000000E+00  0.16836602090E+03  0.16836602090E+03  0.00000000000E+00 0.  1.
         22   -1    0    0    0    0 -0.00000000000E+00 -0.00000000000E+00 -0.19357747666E+04  0.19357747666E+04  0.00000000000E+00 0. -1.
        -24    2    1    2    0    0 -0.15152853934E+02 -0.33723273700E+03 -0.13373966609E+04  0.13816766890E+04  0.80281482652E+02 0.  0.
         25    2    1    2    0    0 -0.13310769383E+03  0.32841090020E+03 -0.40349038754E+03  0.55138026083E+03  0.12507726278E+03 0.  0.
         24    2    1    2    0    0  0.14826054777E+03  0.88218367980E+01 -0.26521697283E+02  0.17108383769E+03  0.80667615941E+02 0.  0.
        -11    1    5    5    0    0  0.11986428340E+03  0.33273798928E+02  0.13130930077E+01  0.12440384376E+03  0.00000000000E+00 0.  1.
         12    1    5    5    0    0  0.28396264370E+02 -0.24451962130E+02 -0.27834790291E+02  0.46679993924E+02  0.00000000000E+00 0. -1.
         13    1    3    3    0    0 -0.36166766594E+01 -0.57225751724E+02 -0.37318983834E+03  0.37756922869E+03  0.00000000000E+00 0. -1.
        -14    1    3    3    0    0 -0.11536177275E+02 -0.28000698527E+03 -0.96420682255E+03  0.10041074603E+04  0.00000000000E+00 0.  1.
          5    1    4    4  501    0 -0.87189321262E+02  0.11623071884E+03 -0.93227445091E+02  0.17268580331E+03  0.41800000000E+01 0. -1.
         -5    1    4    4    0  501 -0.45918372572E+02  0.21218018136E+03 -0.31026294245E+03  0.37869445752E+03  0.41800000000E+01 0. -1.
</event>
<event>
11    1  0.1078607E-008  0.1529553E+03  0.7561462E-02  0.1093897E+00
         22   -1    0    0    0    0  0.00000000000E+00  0.00000000000E+00  0.15642273707E+04  0.15642273707E+04  0.00000000000E+00 0. -1.
         22   -1    0    0    0    0 -0.00000000000E+00 -0.00000000000E+00 -0.94194960726E+03  0.94194960726E+03  0.00000000000E+00 0. -1.
         24    2    1    2    0    0  0.28881238319E+02  0.42751751229E+02 -0.91817772158E+03  0.92298530853E+03  0.78674730321E+02 0.  0.
         25    2    1    2    0    0 -0.58682610674E+02 -0.11701084073E+03  0.43776309194E+03  0.47372892244E+03  0.12508949453E+03 0.  0.
        -24    2    1    2    0    0  0.29801372355E+02  0.74259089498E+02  0.11026923931E+04  0.11094627470E+04  0.92598806921E+02 0.  0.
        -13    1    3    3    0    0  0.50973600070E+02  0.37693849206E+02 -0.47281444222E+03  0.47704573255E+03  0.00000000000E+00 0.  1.
         14    1    3    3    0    0 -0.22092361751E+02  0.50579020226E+01 -0.44536327936E+03  0.44593957598E+03  0.00000000000E+00 0. -1.
         11    1    5    5    0    0  0.56635901623E+02  0.23393226199E+02  0.43443789192E+03  0.43873813411E+03  0.00000000000E+00 0. -1.
        -12    1    5    5    0    0 -0.26834529268E+02  0.50865863299E+02  0.66825450116E+03  0.67072461289E+03  0.00000000000E+00 0.  1.
          5    1    4    4  501    0 -0.36664020151E+02  0.19831550594E+02  0.11710229958E+03  0.12437026067E+03  0.41800000000E+01 0. -1.
         -5    1    4    4    0  501 -0.22018590524E+02 -0.13684239132E+03  0.32066079236E+03  0.34935866176E+03  0.41800000000E+01 0. -1.
</event>
<event>
11    1  0.1078607E-008  0.1387829E+03  0.7561462E-02  0.1108925E+00
         22   -1    0    0    0    0  0.00000000000E+00  0.00000000000E+00  0.64301900883E+03  0.64301900883E+03  0.00000000000E+00 0.  1.
         22   -1    0    0    0    0 -0.00000000000E+00 -0.00000000000E+00 -0.11897196275E+04  0.11897196275E+04  0.00000000000E+00 0.  1.
        -24    2    1    2    0    0  0.94962667168E+01 -0.29867358789E+02 -0.11297761728E+04  0.11329517972E+04  0.78761259145E+02 0.  0.
         25    2    1    2    0    0  0.28340855816E+02 -0.19749397700E+02  0.24413860260E+02  0.13204893889E+03  0.12509053870E+03 0.  0.
         24    2    1    2    0    0 -0.37837122532E+02  0.49616756489E+02  0.55866169386E+03  0.56773790026E+03  0.79561076141E+02 0.  0.
        -13    1    5    5    0    0 -0.56487681926E+02  0.38742526938E+02  0.50897673732E+03  0.51356514751E+03  0.00000000000E+00 0.  1.
         14    1    5    5    0    0  0.18650559394E+02  0.10874229550E+02  0.49684956538E+02  0.54172752747E+02  0.00000000000E+00 0. -1.
         13    1    3    3    0    0  0.53691481056E+01  0.24851390367E+02 -0.20878993580E+03  0.21033225298E+03  0.00000000000E+00 0. -1.
        -14    1    3    3    0    0  0.41271186113E+01 -0.54718749156E+02 -0.92098623703E+03  0.92261954424E+03  0.00000000000E+00 0.  1.
          5    1    4    4  501    0  0.41900576568E+02 -0.67395513326E+02  0.21112022378E+02  0.82225321053E+02  0.41800000000E+01 0. -1.
         -5    1    4    4    0  501 -0.13559720753E+02  0.47646115627E+02  0.33018378818E+01  0.49823617839E+02  0.41800000000E+01 0. -1.
</event>
<event>
11    1  0.1078607E-008  0.1378353E+03  0.7561462E-02  0.1110000E+00
         22   -1    0    0    0    0  0.00000000000E+00  0.00000000000E+00  0.98111520262E+03  0.98111520262E+03  0.00000000000E+00 0.  1.
         22   -1    0    0    0    0 -0.00000000000E+00 -0.00000000000E+00 -0.83447729456E+03  0.83447729456E+03  0.00000000000E+00 0. -1.
         24    2    1    2    0    0 -0.43696863927E+02  0.37779810850E+02 -0.81169110505E+03  0.81772764472E+03  0.80618365741E+02 0.  0.
         25    2    1    2    0    0  0.69241384098E+02 -0.31016477475E+02  0.29674233525E+03  0.33084406362E+03  0.12508153242E+03 0.  0.
        -24    2    1    2    0    0 -0.25544520171E+02 -0.67633333754E+01  0.66158667786E+03  0.66702078884E+03  0.80756022903E+02 0.  0.
        -11    1    3    3    0    0 -0.16065506078E+02  0.28843958434E+02 -0.97347998242E+02  0.10279449005E+03  0.00000000000E+00 0.  1.
         12    1    3    3    0    0 -0.27631357849E+02  0.89358524165E+01 -0.71434310681E+03  0.71493315467E+03  0.00000000000E+00 0. -1.
         13    1    5    5    0    0  0.11436711175E+02 -0.35940837871E+02  0.27480205525E+03  0.27737828278E+03  0.00000000000E+00 0. -1.
        -14    1    5    5    0    0 -0.36981231346E+02  0.29177504496E+02  0.38678462261E+03  0.38964250606E+03  0.00000000000E+00 0.  1.
          5    1    4    4  501    0  0.59963404767E+02 -0.62739878543E+02  0.28075248448E+03  0.29389000019E+03  0.41800000000E+01 0. -1.
         -5    1    4    4    0  501  0.92779793312E+01  0.31723401068E+02  0.15989850771E+02  0.36954063423E+02  0.41800000000E+01 0. -1.
</event>
<event>
11    1  0.1078607E-008  0.1294099E+03  0.7561462E-02  0.1119996E+00
         22   -1    0    0    0    0  0.00000000000E+00  0.00000000000E+00  0.93441810270E+02  0.93441810270E+02  0.00000000000E+00 0. -1.
         22   -1    0    0    0    0 -0.00000000000E+00 -0.00000000000E+00 -0.38696999922E+03  0.38696999922E+03  0.00000000000E+00 0.  1.
         24    2    1    2    0    0 -0.43086612743E+01  0.32093649478E+02 -0.28125369059E+03  0.29418593884E+03  0.79957246359E+02 0.  0.
         25    2    1    2    0    0  0.42376587374E+01 -0.39531312009E+02 -0.24317734430E+02  0.13348880759E+03  0.12508887706E+03 0.  0.
        -24    2    1    2    0    0  0.71002536861E-01  0.74376625315E+01  0.12043236065E+02  0.52737063061E+02  0.50801913548E+02 0.  0.
        -11    1    3    3    0    0 -0.40569699852E+01  0.19884801293E+02 -0.28124322188E+03  0.28197449208E+03  0.00000000000E+00 0.  1.
         12    1    3    3    0    0 -0.25169128907E+00  0.12208848185E+02 -0.10468705420E-01  0.12211446766E+02  0.00000000000E+00 0. -1.
         11    1    5    5    0    0  0.68392155636E+01  0.20340288797E+02  0.25204759017E+02  0.33102599520E+02  0.00000000000E+00 0. -1.
        -12    1    5    5    0    0 -0.67682130267E+01 -0.12902626266E+02 -0.13161522952E+02  0.19634463541E+02  0.00000000000E+00 0.  1.
          5    1    4    4  501    0 -0.53113443609E+02  0.49749263730E+01 -0.28552921131E+02  0.60650882018E+02  0.41800000000E+01 0.  1.
         -5    1    4    4    0  501  0.57351102346E+02 -0.44506238382E+02  0.42351867010E+01  0.72837925572E+02  0.41800000000E+01 0.  1.
</event>
<event>
11    1  0.1078607E-008  0.2216030E+03  0.7561462E-02  0.1040218E+00
         22   -1    0    0    0    0  0.00000000000E+00  0.00000000000E+00  0.57137626496E+03  0.57137626496E+03  0.00000000000E+00 0.  1.
         22   -1    0    0    0    0 -0.00000000000E+00 -0.00000000000E+00 -0.63297933161E+03  0.63297933161E+03  0.00000000000E+00 0. -1.
        -24    2    1    2    0    0 -0.18120699218E+03 -0.19353434984E+02 -0.56115228142E+03  0.59354418464E+03  0.64747870294E+02 0.  0.
         25    2    1    2    0    0  0.18977326009E+03  0.59237666155E+02  0.23888698478E+03  0.33501379598E+03  0.12507701892E+03 0.  0.
         24    2    1    2    0    0 -0.85662679106E+01 -0.39884231171E+02  0.26066222999E+03  0.27579761595E+03  0.80345466460E+02 0.  0.
        -11    1    5    5    0    0 -0.26289394103E+02 -0.34380651165E+02  0.25132258801E+03  0.25502196898E+03  0.00000000000E+00 0.  1.
         12    1    5    5    0    0  0.17723126192E+02 -0.55035800058E+01  0.93396419748E+01  0.20775646972E+02  0.00000000000E+00 0. -1.
         13    1    3    3    0    0 -0.30669594823E+02 -0.28076087480E+02 -0.14820296616E+03  0.15392533876E+03  0.00000000000E+00 0. -1.
        -14    1    3    3    0    0 -0.15053739736E+03  0.87226524963E+01 -0.41294931527E+03  0.43961884587E+03  0.00000000000E+00 0.  1.
          5    1    4    4  501    0  0.98960481787E+02  0.86327580493E+02  0.18177584816E+03  0.22428900883E+03  0.41800000000E+01 0.  1.
         -5    1    4    4    0  501  0.90812778305E+02 -0.27089914338E+02  0.57111136622E+02  0.11072478715E+03  0.41800000000E+01 0.  1.
</event>
<event>
11    1  0.1078607E-008  0.1701100E+03  0.7561462E-02  0.1077936E+00
         22   -1    0    0    0    0  0.00000000000E+00  0.00000000000E+00  0.71539206353E+03  0.71539206353E+03  0.00000000000E+00 0.  1.
         22   -1    0    0    0    0 -0.00000000000E+00 -0.00000000000E+00 -0.90516704622E+02  0.90516704622E+02  0.00000000000E+00 0. -1.
         24    2    1    2    0    0  0.34958851938E+02  0.43326724309E+02  0.63379990263E+02  0.11844922343E+03  0.83149678280E+02 0.  0.
         25    2    1    2    0    0 -0.13310550226E+03 -0.85442031852E+02  0.14235349410E+03  0.24684123942E+03  0.12509462281E+03 0.  0.
        -24    2    1    2    0    0  0.98146650324E+02  0.42115307542E+02  0.41914187454E+03  0.44061830529E+03  0.84012593507E+02 0.  0.
        -11    1    3    3    0    0  0.40060105138E+02 -0.32066715394E+01  0.67012538658E+00  0.40193828308E+02  0.00000000000E+00 0.  1.
         12    1    3    3    0    0 -0.51012532002E+01  0.46533395849E+02  0.62709864876E+02  0.78255395125E+02  0.00000000000E+00 0. -1.
         13    1    5    5    0    0  0.94381483455E+01  0.35711121427E+02  0.58611183168E+02  0.69279388206E+02  0.00000000000E+00 0. -1.
        -14    1    5    5    0    0  0.88708501979E+02  0.64041861152E+01  0.36053069137E+03  0.37133891709E+03  0.00000000000E+00 0.  1.
          5    1    4    4  501    0 -0.17211229027E+02 -0.81310673150E+02  0.78451357330E+02  0.11436669025E+03  0.41800000000E+01 0. -1.
         -5    1    4    4    0  501 -0.11589427323E+03 -0.41313587018E+01  0.63902136773E+02  0.13247454917E+03  0.41800000000E+01 0. -1.
</event>
<event>
11    1  0.1078607E-008  0.1472500E+03  0.7561462E-02  0.1099722E+00
         22   -1    0    0    0    0  0.00000000000E+00  0.00000000000E+00  0.26420343159E+03  0.26420343159E+03  0.00000000000E+00 0.  1.
         22   -1    0    0    0    0 -0.00000000000E+00 -0.00000000000E+00 -0.24480947960E+04  0.24480947960E+04  0.00000000000E+00 0. -1.
         24    2    1    2    0    0  0.65138215589E+02 -0.42608820528E+02 -0.23012116562E+04  0.23039234363E+04  0.80184881372E+02 0.  0.
         25    2    1    2    0    0 -0.23570514142E+02  0.95572937432E+02 -0.85188855447E+02  0.18053372087E+03  0.12508208413E+03 0.  0.
        -24    2    1    2    0    0 -0.41567701447E+02 -0.52964116904E+02  0.20250914723E+03  0.22784107038E+03  0.79803052307E+02 0.  0.
        -13    1    3    3    0    0 -0.90295750013E+01 -0.31144134527E+01 -0.39031025138E+02  0.40182754002E+02  0.00000000000E+00 0.  1.
         14    1    3    3    0    0  0.74167790591E+02 -0.39494407075E+02 -0.22621806311E+04  0.22637406823E+04  0.00000000000E+00 0. -1.
         11    1    5    5    0    0  0.22526629889E+02 -0.27711472367E+01  0.37284305004E+02  0.43649143299E+02  0.00000000000E+00 0. -1.
        -12    1    5    5    0    0 -0.64094331336E+02 -0.50192969668E+02  0.16522484223E+03  0.18419192708E+03  0.00000000000E+00 0.  1.
          5    1    4    4  501    0  0.14256336901E+02  0.97718197727E+02 -0.14061271763E+02  0.99836271327E+02  0.41800000000E+01 0. -1.
         -5    1    4    4    0  501 -0.37826851043E+02 -0.21452602946E+01 -0.71127583685E+02  0.80697449541E+02  0.41800000000E+01 0. -1.
</event>
<event>
11    1  0.1078607E-008  0.1386972E+03  0.7561462E-02  0.1109022E+00
         22   -1    0    0    0    0  0.00000000000E+00  0.00000000000E+00  0.12254268560E+04  0.12254268560E+04  0.00000000000E+00 0.  1.
         22   -1    0    0    0    0 -0.00000000000E+00 -0.00000000000E+00 -0.19885156596E+03  0.19885156596E+03  0.00000000000E+00 0. -1.
         24    2    1    2    0    0 -0.59931291254E+02 -0.14846142968E+02 -0.16241091224E+03  0.19130453166E+03  0.80049683238E+02 0.  0.
         25    2    1    2    0    0  0.25196969565E+02  0.31130536545E+02  0.19606732053E+03  0.23600003411E+03  0.12509845859E+03 0.  0.
        -24    2    1    2    0    0  0.34734321689E+02 -0.16284393577E+02  0.99291888172E+03  0.99697385615E+03  0.81223824064E+02 0.  0.
        -13    1    3    3    0    0 -0.75598710277E+01 -0.21661365711E+02 -0.27155795416E+01  0.23102830707E+02  0.00000000000E+00 0.  1.
         14    1    3    3    0    0 -0.52371420227E+02  0.68152227435E+01 -0.15969533270E+03  0.16820170095E+03  0.00000000000E+00 0. -1.
         13    1    5    5    0    0  0.37565293507E+02  0.24176366161E+02  0.67525566450E+03  0.67673174922E+03  0.00000000000E+00 0. -1.
        -14    1    5    5    0    0 -0.28309718180E+01 -0.40460759738E+02  0.31766321722E+03  0.32024210693E+03  0.00000000000E+00 0.  1.
          5    1    4    4  501    0 -0.27367547428E+00  0.77808559970E+02  0.11201400191E+03  0.13645092864E+03  0.41800000000E+01 0.  1.
         -5    1    4    4    0  501  0.25470645039E+02 -0.46678023425E+02  0.84053318624E+02  0.99549105477E+02  0.41800000000E+01 0.  1.
</event>
<event>
11    1  0.1078607E-008  0.2222475E+03  0.7561462E-02  0.1039819E+00
         22   -1    0    0    0    0  0.00000000000E+00  0.00000000000E+00  0.20657592486E+04  0.20657592486E+04  0.00000000000E+00 0.  1.
         22   -1    0    0    0    0 -0.00000000000E+00 -0.00000000000E+00 -0.92835921278E+02  0.92835921278E+02  0.00000000000E+00 0.  1.
         24    2    1    2    0    0 -0.57431385891E+01  0.12541533352E+02 -0.31042619059E+02  0.90248483327E+02  0.83611427719E+02 0.  0.
         25    2    1    2    0    0 -0.65698260193E+02  0.15969613232E+03  0.41600251730E+03  0.46746678637E+03  0.12509190975E+03 0.  0.
        -24    2    1    2    0    0  0.71441398782E+02 -0.17223766567E+03  0.15879634290E+04  0.16008799001E+04  0.80118136413E+02 0.  0.
        -13    1    3    3    0    0 -0.24304023047E+02  0.71981946891E+01 -0.54354770278E+02  0.59974499539E+02  0.00000000000E+00 0.  1.
         14    1    3    3    0    0  0.18560884458E+02  0.53433386628E+01  0.23312151219E+02  0.30273983788E+02  0.00000000000E+00 0. -1.
         13    1    5    5    0    0  0.47308918160E+02 -0.60101907466E+02  0.91683757553E+03  0.92002256110E+03  0.00000000000E+00 0. -1.
        -14    1    5    5    0    0  0.24132480622E+02 -0.11213575820E+03  0.67112585351E+03  0.68085733905E+03  0.00000000000E+00 0.  1.
          5    1    4    4  501    0 -0.35791163466E+02  0.16690919226E+03  0.27994734621E+03  0.32791412732E+03  0.41800000000E+01 0.  1.
         -5    1    4    4    0  501 -0.29907096727E+02 -0.72130599376E+01  0.13605517109E+03  0.13955265905E+03  0.41800000000E+01 0.  1.
</event>
<event>
11    1  0.1078607E-008  0.1797200E+03  0.7561462E-02  0.1069870E+00
         22   -1    0    0    0    0  0.00000000000E+00  0.00000000000E+00  0.32367160748E+03  0.32367160748E+03  0.00000000000E+00 0. -1.
         22   -1    0    0    0    0 -0.00000000000E+00 -0.00000000000E+00 -0.16778939498E+04  0.16778939498E+04  0.00000000000E+00 0. -1.
         24    2    1    2    0    0 -0.10659468208E+03  0.73451256290E+02 -0.15924254797E+04  0.15996418362E+04  0.79231197079E+02 0.  0.
         25    2    1    2    0    0  0.91968610238E+02 -0.73842215733E+02  0.24808012050E+02  0.17371003737E+03  0.12509532976E+03 0.  0.
        -24    2    1    2    0    0  0.14626071842E+02  0.39095944283E+00  0.21339512526E+03  0.22821368373E+03  0.79560864319E+02 0.  0.
        -11    1    3    3    0    0 -0.55139446039E+02  0.79618041605E+02 -0.87393365298E+03  0.87928347015E+03  0.00000000000E+00 0.  1.
         12    1    3    3    0    0 -0.51455236041E+02 -0.61667853157E+01 -0.71849182667E+03  0.72035836606E+03  0.00000000000E+00 0. -1.
         13    1    5    5    0    0 -0.74472199243E+01 -0.36617647685E+02  0.11099483452E+03  0.11711603860E+03  0.00000000000E+00 0. -1.
        -14    1    5    5    0    0  0.22073291766E+02  0.37008607128E+02  0.10240029074E+03  0.11109764513E+03  0.00000000000E+00 0.  1.
          5    1    4    4  501    0  0.29161865950E+02  0.47921363259E+01  0.60000332799E+02  0.67014112933E+02  0.41800000000E+01 0.  1.
         -5    1    4    4    0  501  0.62806744289E+02 -0.78634352058E+02 -0.35192320749E+02  0.10669592444E+03  0.41800000000E+01 0.  1.
</event>
<event>
11    1  0.1078607E-008  0.3040123E+03  0.7561462E-02  0.9985073E-01
         22   -1    0    0    0    0  0.00000000000E+00  0.00000000000E+00  0.21073636081E+04  0.21073636081E+04  0.00000000000E+00 0. -1.
         22   -1    0    0    0    0 -0.00000000000E+00 -0.00000000000E+00 -0.41690131174E+03  0.41690131174E+03  0.00000000000E+00 0.  1.
        -24    2    1    2    0    0  0.12620536188E+02 -0.20292664284E+02 -0.34082601204E+03  0.35125858313E+03  0.81542329994E+02 0.  0.
         25    2    1    2    0    0 -0.17913277869E+03 -0.20302331840E+03  0.32037947254E+03  0.43771728275E+03  0.12508554262E+03 0.  0.
         24    2    1    2    0    0  0.16651224250E+03  0.22331598268E+03  0.17109088359E+04  0.17352890540E+04  0.80141756671E+02 0.  0.
        -11    1    5    5    0    0  0.11972962398E+02 -0.53014188978E+01  0.10931135631E+03  0.11009282215E+03  0.00000000000E+00 0.  1.
         12    1    5    5    0    0  0.15453928010E+03  0.22861740158E+03  0.16015974796E+04  0.16251962318E+04  0.00000000000E+00 0. -1.
         13    1    3    3    0    0  0.66295532861E+01  0.31070068294E+01  0.19944012079E+01  0.75882873159E+01  0.00000000000E+00 0. -1.
        -14    1    3    3    0    0  0.59909829021E+01 -0.23399671113E+02 -0.34282041325E+03  0.34367029581E+03  0.00000000000E+00 0.  1.
          5    1    4    4  501    0 -0.12201880663E+03 -0.10526257395E+03  0.99397705965E+02  0.18938367141E+03  0.41800000000E+01 0.  1.
         -5    1    4    4    0  501 -0.57113972061E+02 -0.97760744446E+02  0.22098176658E+03  0.24833361134E+03  0.41800000000E+01 0.  1.
</event>
<event>
11    1  0.1078607E-008  0.1537032E+03  0.7561462E-02  0.1093154E+00
         22   -1    0    0    0    0  0.00000000000E+00  0.00000000000E+00  0.11917456651E+04  0.11917456651E+04  0.00000000000E+00 0. -1.
         22   -1    0    0    0    0 -0.00000000000E+00 -0.00000000000E+00 -0.36328500526E+03  0.36328500526E+03  0.00000000000E+00 0. -1.
         24    2    1    2    0    0  0.26464247338E+02 -0.86755111119E+01 -0.33910863398E+03  0.34915471440E+03  0.78350035533E+02 0.  0.
         25    2    1    2    0    0  0.69273255738E+02  0.71600859763E+01  0.33879243742E+03  0.36780117809E+03  0.12508932872E+03 0.  0.
        -24    2    1    2    0    0 -0.95737503076E+02  0.15154251356E+01  0.82877685639E+03  0.83807477785E+03  0.79563116914E+02 0.  0.
        -11    1    3    3    0    0  0.17639339125E+02 -0.41119200230E+02 -0.13306960519E+03  0.14039036555E+03  0.00000000000E+00 0.  1.
         12    1    3    3    0    0  0.88249082133E+01  0.32443689118E+02 -0.20603902879E+03  0.20876434886E+03  0.00000000000E+00 0. -1.
         13    1    5    5    0    0 -0.68476480557E+02 -0.23812875798E+02  0.70782607359E+03  0.71152922069E+03  0.00000000000E+00 0. -1.
        -14    1    5    5    0    0 -0.27261022519E+02  0.25328300933E+02  0.12095078280E+03  0.12654555716E+03  0.00000000000E+00 0.  1.
          5    1    4    4  501    0  0.39615989874E+02  0.54780183318E+02  0.27280977163E+03  0.28109240302E+03  0.41800000000E+01 0.  1.
         -5    1    4    4    0  501  0.29657265864E+02 -0.47620097342E+02  0.65982665789E+02  0.86708775069E+02  0.41800000000E+01 0.  1.
</event>
<event>
11    1  0.1078607E-008  0.2176606E+03  0.7561462E-02  0.1042693E+00
         22   -1    0    0    0    0  0.00000000000E+00  0.00000000000E+00  0.35029452250E+03  0.35029452250E+03  0.00000000000E+00 0.  1.
         22   -1    0    0    0    0 -0.00000000000E+00 -0.00000000000E+00 -0.76980798457E+03  0.76980798457E+03  0.00000000000E+00 0. -1.
         24    2    1    2    0    0 -0.11094399928E+03 -0.67400156552E+02 -0.58178066628E+03  0.60146382483E+03  0.80241116871E+02 0.  0.
         25    2    1    2    0    0  0.45475200996E+02  0.22534183518E+03 -0.11227057853E+02  0.26195451948E+03  0.12508871597E+03 0.  0.
        -24    2    1    2    0    0  0.65468798288E+02 -0.15794167863E+03  0.17349426207E+03  0.25668416276E+03  0.80961491141E+02 0.  0.
        -13    1    3    3    0    0 -0.22253576011E+00  0.10525211300E+02 -0.11394039505E+03  0.11442571048E+03  0.00000000000E+00 0.  1.
         14    1    3    3    0    0 -0.11072146352E+03 -0.77925367852E+02 -0.46784027124E+03  0.48703811435E+03  0.00000000000E+00 0. -1.
         13    1    5    5    0    0  0.17624982757E+02 -0.33631699263E+02  0.18552078582E-01  0.37970140330E+02  0.00000000000E+00 0. -1.
        -14    1    5    5    0    0  0.47843815531E+02 -0.12430997936E+03  0.17347570999E+03  0.21871402244E+03  0.00000000000E+00 0.  1.
          5    1    4    4  501    0 -0.24254586224E+02  0.11611674176E+03 -0.46674167164E+02  0.12754345515E+03  0.41800000000E+01 0. -1.
         -5    1    4    4    0  501  0.69729787220E+02  0.10922509341E+03  0.35447109311E+02  0.13441106434E+03  0.41800000000E+01 0. -1.
</event>
<event>
11    1  0.1078607E-008  0.2716533E+03  0.7561462E-02  0.1012957E+00
         22   -1    0    0    0    0  0.00000000000E+00  0.00000000000E+00  0.35683824361E+03  0.35683824361E+03  0.00000000000E+00 0.  1.
         22   -1    0    0    0    0 -0.00000000000E+00 -0.00000000000E+00 -0.10695467916E+04  0.10695467916E+04  0.00000000000E+00 0. -1.
        -24    2    1    2    0    0  0.17714662667E+03 -0.28515483244E+02 -0.75342247958E+03  0.77871858750E+03  0.81013243790E+02 0.  0.
         25    2    1    2    0    0 -0.32381056339E+03 -0.13131657651E+03 -0.90313496569E+02  0.38197012392E+03  0.12508926282E+03 0.  0.
         24    2    1    2    0    0  0.14666393672E+03  0.15983205976E+03  0.13102742817E+03  0.26569632378E+03  0.79810725314E+02 0.  0.
        -11    1    5    5    0    0  0.91650073102E+02  0.14579141060E+03  0.11361643024E+03  0.20630939030E+03  0.00000000000E+00 0.  1.
         12    1    5    5    0    0  0.55013863620E+02  0.14040649155E+02  0.17410997930E+02  0.59386933478E+02  0.00000000000E+00 0. -1.
         11    1    3    3    0    0  0.15899692522E+03 -0.27539104361E+02 -0.73620742546E+03  0.75368414989E+03  0.00000000000E+00 0. -1.
        -12    1    3    3    0    0  0.18149701445E+02 -0.97637888246E+00 -0.17215054119E+02  0.25034437613E+02  0.00000000000E+00 0.  1.
          5    1    4    4  501    0 -0.89445480096E+02  0.14640776421E+02  0.21863287484E+01  0.90758463391E+02  0.41800000000E+01 0. -1.
         -5    1    4    4    0  501 -0.23436508329E+03 -0.14595735294E+03 -0.92499825317E+02  0.29121166053E+03  0.41800000000E+01 0. -1.
</event>
<event>
11    1  0.1078607E-008  0.1354032E+03  0.7561462E-02  0.1112803E+00
         22   -1    0    0    0    0  0.00000000000E+00  0.00000000000E+00  0.49964266470E+03  0.49964266470E+03  0.00000000000E+00 0. -1.
         22   -1    0    0    0    0 -0.00000000000E+00 -0.00000000000E+00 -0.23292661849E+03  0.23292661849E+03  0.00000000000E+00 0.  1.
         24    2    1    2    0    0  0.14748849566E+02 -0.55890688113E+02 -0.16490230448E+03  0.19160702935E+03  0.78607799167E+02 0.  0.
         25    2    1    2    0    0 -0.45011547040E+02  0.87012320311E+01  0.43202396844E+02  0.14005871161E+03  0.12509294465E+03 0.  0.
        -24    2    1    2    0    0  0.30262697474E+02  0.47189456082E+02  0.38841595385E+03  0.40090354223E+03  0.81939131922E+02 0.  0.
        -13    1    3    3    0    0 -0.98775676333E+01 -0.55571698789E+01 -0.11797288218E+03  0.11851603018E+03  0.00000000000E+00 0.  1.
         14    1    3    3    0    0  0.24626417199E+02 -0.50333518234E+02 -0.46929422308E+02  0.73090999172E+02  0.00000000000E+00 0. -1.
         11    1    5    5    0    0  0.22490657693E+02  0.23763715313E+02  0.36631448590E+03  0.36777281904E+03  0.00000000000E+00 0. -1.
        -12    1    5    5    0    0  0.77720397811E+01  0.23425740769E+02  0.22101467954E+02  0.33130723184E+02  0.00000000000E+00 0.  1.
          5    1    4    4  501    0 -0.59559687588E+02  0.56943108540E+02  0.23426759947E+02  0.85768056276E+02  0.41800000000E+01 0.  1.
         -5    1    4    4    0  501  0.14548140548E+02 -0.48241876509E+02  0.19775636897E+02  0.54290655339E+02  0.41800000000E+01 0.  1.
</event>
<event>
11    1  0.1078607E-008  0.1414209E+03  0.7561462E-02  0.1105982E+00
         22   -1    0    0    0    0  0.00000000000E+00  0.00000000000E+00  0.78164301137E+03  0.78164301137E+03  0.00000000000E+00 0. -1.
         22   -1    0    0    0    0 -0.00000000000E+00 -0.00000000000E+00 -0.38961057520E+03  0.38961057520E+03  0.00000000000E+00 0.  1.
         24    2    1    2    0    0 -0.11840217049E+02  0.36674679944E+02 -0.36146021163E+03  0.37200858628E+03  0.79067571018E+02 0.  0.
         25    2    1    2    0    0 -0.56645997243E+02 -0.32741414218E+02  0.26287399917E+03  0.29838041134E+03  0.12508941292E+03 0.  0.
        -24    2    1    2    0    0  0.68486214293E+02 -0.39332657256E+01  0.49061864862E+03  0.50086458895E+03  0.73843388059E+02 0.  0.
        -11    1    3    3    0    0  0.12896898285E+02  0.41756994203E+02 -0.32335286328E+03  0.32629289104E+03  0.00000000000E+00 0.  1.
         12    1    3    3    0    0 -0.24737115335E+02 -0.50823142598E+01 -0.38107348346E+02  0.45715695240E+02  0.00000000000E+00 0. -1.
         11    1    5    5    0    0  0.60444109187E+02 -0.20817352237E+02  0.46370645441E+03  0.46809243569E+03  0.00000000000E+00 0. -1.
        -12    1    5    5    0    0  0.80421051055E+01  0.16884086511E+02  0.26912194209E+02  0.32772153255E+02  0.00000000000E+00 0.  1.
          5    1    4    4  501    0  0.25942726859E+02 -0.30467525706E+02  0.16686659847E+03  0.17164856330E+03  0.41800000000E+01 0. -1.
         -5    1    4    4    0  501 -0.82588724102E+02 -0.22738885119E+01  0.96007400708E+02  0.12673184804E+03  0.41800000000E+01 0. -1.
</event>
<event>
11    1  0.1078607E-008  0.1401920E+03  0.7561462E-02  0.1107344E+00
         22   -1    0    0    0    0  0.00000000000E+00  0.00000000000E+00  0.27422127936E+03  0.27422127936E+03  0.00000000000E+00 0.  1.
         22   -1    0    0    0    0 -0.00000000000E+00 -0.00000000000E+00 -0.39762032454E+04  0.39762032454E+04  0.00000000000E+00 0.  1.
        -24    2    1    2    0    0  0.53758769913E+02  0.33909209808E+02 -0.38671502526E+04  0.38684712726E+04  0.78607064583E+02 0.  0.
         25    2    1    2    0    0 -0.27322955999E+02 -0.40572210046E+02 -0.55663181429E+02  0.14539436703E+03  0.12509390090E+03 0.  0.
         24    2    1    2    0    0 -0.26435813914E+02  0.66630002387E+01  0.22083146806E+03  0.23655888511E+03  0.80313890535E+02 0.  0.
        -13    1    5    5    0    0 -0.61476332770E+01  0.27754010261E+02  0.19637032786E+03  0.19841719720E+03  0.00000000000E+00 0.  1.
         14    1    5    5    0    0 -0.20288180637E+02 -0.21091010022E+02  0.24461140198E+02  0.38141687916E+02  0.00000000000E+00 0. -1.
         13    1    3    3    0    0 -0.47431156941E+01  0.20568655447E+02 -0.27113111589E+03  0.27195155587E+03  0.00000000000E+00 0. -1.
        -14    1    3    3    0    0  0.58501885608E+02  0.13340554360E+02 -0.35960191367E+04  0.35965197167E+04  0.00000000000E+00 0.  1.
          5    1    4    4  501    0 -0.73329799074E+02 -0.41443012159E+02 -0.19092535482E+02  0.86468375723E+02  0.41800000000E+01 0. -1.
         -5    1    4    4    0  501  0.46006843075E+02  0.87080211281E+00 -0.36570645947E+02  0.58925991303E+02  0.41800000000E+01 0. -1.
</event>
<event>
11    1  0.1078607E-008  0.1349722E+03  0.7561462E-02  0.1113306E+00
         22   -1    0    0    0    0  0.00000000000E+00  0.00000000000E+00  0.12487266639E+04  0.12487266639E+04  0.00000000000E+00 0. -1.
         22   -1    0    0    0    0 -0.00000000000E+00 -0.00000000000E+00 -0.26210246887E+04  0.26210246887E+04  0.00000000000E+00 0.  1.
        -24    2    1    2    0    0 -0.31273976745E+02 -0.16309160773E+02 -0.24258718942E+04  0.24274688244E+04  0.80662234888E+02 0.  0.
         25    2    1    2    0    0  0.81538841686E+02  0.12581158690E+02 -0.16334380609E+03  0.22166694623E+03  0.12509263690E+03 0.  0.
         24    2    1    2    0    0 -0.50264864941E+02  0.37280020822E+01  0.12169176755E+04  0.12206155818E+04  0.80456914257E+02 0.  0.
        -11    1    5    5    0    0  0.92297437975E+01 -0.18916621508E+02  0.11849929796E+03  0.12035410403E+03  0.00000000000E+00 0.  1.
         12    1    5    5    0    0 -0.59494608738E+02  0.22644623590E+02  0.10984183775E+04  0.11002614778E+04  0.00000000000E+00 0. -1.
         11    1    3    3    0    0 -0.20274945028E+02  0.32332223797E+02 -0.10627608249E+04  0.10634458223E+04  0.00000000000E+00 0. -1.
        -12    1    3    3    0    0 -0.10999031718E+02 -0.48641384570E+02 -0.13631110693E+04  0.13640230021E+04  0.00000000000E+00 0.  1.
          5    1    4    4  501    0  0.39944026313E+02 -0.11777425565E+02  0.88722484181E+01  0.42783433511E+02  0.41800000000E+01 0.  1.
         -5    1    4    4    0  501  0.41594815374E+02  0.24358584255E+02 -0.17221605451E+03  0.17888351272E+03  0.41800000000E+01 0.  1.
</event>
<event>
11    1  0.1078607E-008  0.1377392E+03  0.7561462E-02  0.1110109E+00
         22   -1    0    0    0    0  0.00000000000E+00  0.00000000000E+00  0.80711175083E+03  0.80711175083E+03  0.00000000000E+00 0. -1.
         22   -1    0    0    0    0 -0.00000000000E+00 -0.00000000000E+00 -0.13065553850E+03  0.13065553850E+03  0.00000000000E+00 0.  1.
        -24    2    1    2    0    0 -0.30261969816E+02  0.63035744711E+00 -0.92422223056E+02  0.12633521474E+03  0.80638297354E+02 0.  0.
         25    2    1    2    0    0  0.30486036792E+02 -0.57681903723E+02  0.28860565092E+03  0.32124340123E+03  0.12508997017E+03 0.  0.
         24    2    1    2    0    0 -0.22406697525E+00  0.57051546276E+02  0.48027278447E+03  0.49018867336E+03  0.79800118094E+02 0.  0.
        -13    1    5    5    0    0 -0.30907872065E+02  0.46285220916E+02  0.18666409292E+03  0.19478475766E+03  0.00000000000E+00 0.  1.
         14    1    5    5    0    0  0.30683805090E+02  0.10766325360E+02  0.29360869155E+03  0.29540391570E+03  0.00000000000E+00 0. -1.
         13    1    3    3    0    0  0.24334249497E+02 -0.15922300982E+02 -0.31517908634E+02  0.42884192097E+02  0.00000000000E+00 0. -1.
        -14    1    3    3    0    0 -0.54596219313E+02  0.16552658429E+02 -0.60904314422E+02  0.83451022640E+02  0.00000000000E+00 0.  1.
          5    1    4    4  501    0 -0.30919537513E+02 -0.33456331765E+01  0.13521728919E+02  0.34169000780E+02  0.41800000000E+01 0. -1.
         -5    1    4    4    0  501  0.61405574304E+02 -0.54336270546E+02  0.27508392200E+03  0.28707440045E+03  0.41800000000E+01 0. -1.
</event>
<event>
11    1  0.1078607E-008  0.1931889E+03  0.7561462E-02  0.1059447E+00
         22   -1    0    0    0    0  0.00000000000E+00  0.00000000000E+00  0.59593970087E+03  0.59593970087E+03  0.00000000000E+00 0. -1.
         22   -1    0    0    0    0 -0.00000000000E+00 -0.00000000000E+00 -0.46850098494E+04  0.46850098494E+04  0.00000000000E+00 0. -1.
        -24    2    1    2    0    0 -0.94406481192E+01 -0.10235294414E+03 -0.34926964203E+04  0.34951688885E+04  0.81926939015E+02 0.  0.
         25    2    1    2    0    0 -0.13685774525E+03  0.84044347358E+02 -0.11702676400E+04  0.11878417356E+04  0.12509254454E+03 0.  0.
         24    2    1    2    0    0  0.14629839337E+03  0.18308596778E+02  0.57389391177E+03  0.59793892629E+03  0.80239098861E+02 0.  0.
        -13    1    5    5    0    0  0.25906799048E+02  0.59619259948E+01  0.27291550180E+02  0.38099022425E+02  0.00000000000E+00 0.  1.
         14    1    5    5    0    0  0.12039159432E+03  0.12346670784E+02  0.54660236159E+03  0.55983990387E+03  0.00000000000E+00 0. -1.
         13    1    3    3    0    0 -0.37203762968E+02 -0.77765013485E+02 -0.29204276789E+04  0.29216997356E+04  0.00000000000E+00 0. -1.
        -14    1    3    3    0    0  0.27763114849E+02 -0.24587930652E+02 -0.57226874141E+03  0.57346915286E+03  0.00000000000E+00 0.  1.
          5    1    4    4  501    0 -0.11396827890E+02  0.71678964912E+02 -0.31222730462E+03  0.32057935655E+03  0.41800000000E+01 0.  1.
         -5    1    4    4    0  501 -0.12546091736E+03  0.12365382446E+02 -0.85804033540E+03  0.86726237900E+03  0.41800000000E+01 0.  1.
</event>
<event>
11    1  0.1078607E-008  0.1870040E+03  0.7561462E-02  0.1064114E+00
         22   -1    0    0    0    0  0.00000000000E+00  0.00000000000E+00  0.79812778810E+02  0.79812778810E+02  0.00000000000E+00 0.  1.
         22   -1    0    0    0    0 -0.00000000000E+00 -0.00000000000E+00 -0.23796415305E+04  0.23796415305E+04  0.00000000000E+00 0. -1.
        -24    2    1    2    0    0 -0.76208981811E+02 -0.82315172984E+02 -0.87417512426E+03  0.88549724008E+03  0.85671568880E+02 0.  0.
         25    2    1    2    0    0  0.18811953360E+03  0.59468027501E+02 -0.14144907238E+04  0.14336520722E+04  0.12509536826E+03 0.  0.
         24    2    1    2    0    0 -0.11191055179E+03  0.22847145483E+02 -0.11162903705E+02  0.14030499711E+03  0.80715042816E+02 0.  0.
        -13    1    5    5    0    0 -0.48239879913E+02 -0.13218012451E+02  0.27986251581E+02  0.57315199945E+02  0.00000000000E+00 0.  1.
         14    1    5    5    0    0 -0.63670671875E+02  0.36065157935E+02 -0.39149155287E+02  0.82989797165E+02  0.00000000000E+00 0. -1.
         11    1    3    3    0    0 -0.75740648178E+02 -0.20357308800E+02 -0.44220391798E+03  0.44910507777E+03  0.00000000000E+00 0. -1.
        -12    1    3    3    0    0 -0.46833363249E+00 -0.61957864184E+02 -0.43197120628E+03  0.43639216231E+03  0.00000000000E+00 0.  1.
          5    1    4    4  501    0  0.45834055937E+02  0.36577454616E+02 -0.81302557153E+03  0.81514828297E+03  0.41800000000E+01 0. -1.
         -5    1    4    4    0  501  0.14228547766E+03  0.22890572885E+02 -0.60146515223E+03  0.61850378918E+03  0.41800000000E+01 0. -1.
</event>
<event>
11    1  0.1078607E-008  0.1499849E+03  0.7561462E-02  0.1096894E+00
         22   -1    0    0    0    0  0.00000000000E+00  0.00000000000E+00  0.23086994451E+03  0.23086994451E+03  0.00000000000E+00 0.  1.
         22   -1    0    0    0    0 -0.00000000000E+00 -0.00000000000E+00 -0.12221635091E+04  0.12221635091E+04  0.00000000000E+00 0.  1.
        -24    2    1    2    0    0  0.22610044604E+02 -0.16405334373E+02 -0.79907029057E+03  0.80353773229E+03  0.79869949550E+02 0.  0.
         25    2    1    2    0    0  0.31345272014E+02  0.79241287216E+02 -0.39114634456E+03  0.41941152377E+03  0.12509538650E+03 0.  0.
         24    2    1    2    0    0 -0.53955316618E+02 -0.62835952843E+02  0.19892307054E+03  0.23008419755E+03  0.80677238473E+02 0.  0.
        -11    1    5    5    0    0 -0.35906930094E+01 -0.31777601700E+01  0.11633394034E+03  0.11643271410E+03  0.00000000000E+00 0.  1.
         12    1    5    5    0    0 -0.50364623608E+02 -0.59658192673E+02  0.82589130192E+02  0.11365148345E+03  0.00000000000E+00 0. -1.
         13    1    3    3    0    0  0.45339571511E+02 -0.31544172671E+02 -0.44475627950E+03  0.44817280119E+03  0.00000000000E+00 0. -1.
        -14    1    3    3    0    0 -0.22729526907E+02  0.15138838298E+02 -0.35431401107E+03  0.35536493110E+03  0.00000000000E+00 0.  1.
          5    1    4    4  501    0 -0.67775348328E+01 -0.23878679803E+02 -0.19554585516E+02  0.31874449678E+02  0.41800000000E+01 0. -1.
         -5    1    4    4    0  501  0.38122806847E+02  0.10311996702E+03 -0.37159175905E+03  0.38753707409E+03  0.41800000000E+01 0. -1.
</event>
<event>
11    1  0.1078607E-008  0.1311918E+03  0.7561462E-02  0.1117813E+00
         22   -1    0    0    0    0  0.00000000000E+00  0.00000000000E+00  0.29608942187E+03  0.29608942187E+03  0.00000000000E+00 0.  1.
         22   -1    0    0    0    0 -0.00000000000E+00 -0.00000000000E+00 -0.50320078917E+03  0.50320078917E+03  0.00000000000E+00 0.  1.
         24    2    1    2    0    0  0.38396542785E+02 -0.14364106028E+02 -0.42292046650E+03  0.43182728374E+03  0.77022463959E+02 0.  0.
         25    2    1    2    0    0 -0.15975635772E+02  0.11681887997E+02 -0.93562702305E+01  0.12701950891E+03  0.12511885712E+03 0.  0.
        -24    2    1    2    0    0 -0.22420907013E+02  0.26822180305E+01  0.22516536944E+03  0.24044341838E+03  0.81263168073E+02 0.  0.
        -11    1    3    3    0    0  0.94632551457E+01 -0.23109806605E+02 -0.37031756906E+03  0.37115861612E+03  0.00000000000E+00 0.  1.
         12    1    3    3    0    0  0.28933287640E+02  0.87457005769E+01 -0.52602897438E+02  0.60668667623E+02  0.00000000000E+00 0. -1.
         11    1    5    5    0    0 -0.14147826411E+02  0.37100591582E+02  0.63072049367E+02  0.74529848378E+02  0.00000000000E+00 0. -1.
        -12    1    5    5    0    0 -0.82730806023E+01 -0.34418373551E+02  0.16209332007E+03  0.16591357001E+03  0.00000000000E+00 0.  1.
          5    1    4    4  501    0 -0.67260492710E+02 -0.12700801327E+02 -0.13636083580E+02  0.69919234902E+02  0.41800000000E+01 0. -1.
         -5    1    4    4    0  501  0.51284856938E+02  0.24382689324E+02  0.42798133493E+01  0.57100274011E+02  0.41800000000E+01 0. -1.
</event>
<event>
11    1  0.1078607E-008  0.1741939E+03  0.7561462E-02  0.1074439E+00
         22   -1    0    0    0    0  0.00000000000E+00  0.00000000000E+00  0.61298890563E+03  0.61298890563E+03  0.00000000000E+00 0.  1.
         22   -1    0    0    0    0 -0.00000000000E+00 -0.00000000000E+00 -0.31668271649E+03  0.31668271649E+03  0.00000000000E+00 0. -1.
        -24    2    1    2    0    0 -0.42306775609E+02 -0.52432553104E+02 -0.20748347610E+03  0.23400869891E+03  0.84685550257E+02 0.  0.
         25    2    1    2    0    0 -0.40399908797E+02  0.13934032443E+03  0.22829553822E+02  0.19292657209E+03  0.12510633496E+03 0.  0.
         24    2    1    2    0    0  0.82706684406E+02 -0.86907771328E+02  0.48096011142E+03  0.50273635111E+03  0.83832294413E+02 0.  0.
        -13    1    5    5    0    0  0.99056294966E+02 -0.83698014572E+02  0.42851018601E+03  0.44770357016E+03  0.00000000000E+00 0.  1.
         14    1    5    5    0    0 -0.16349610561E+02 -0.32097567555E+01  0.52449925410E+02  0.55032780953E+02  0.00000000000E+00 0. -1.
         13    1    3    3    0    0  0.17834604285E+02 -0.43973991316E+02 -0.93730562055E+02  0.10505809481E+03  0.00000000000E+00 0. -1.
        -14    1    3    3    0    0 -0.60141379894E+02 -0.84585617888E+01 -0.11375291405E+03  0.12895060410E+03  0.00000000000E+00 0.  1.
          5    1    4    4  501    0 -0.37835655375E+01  0.47627449251E+02  0.68841791069E+02  0.83900857492E+02  0.41800000000E+01 0.  1.
         -5    1    4    4    0  501 -0.36616343259E+02  0.91712875181E+02 -0.46012237247E+02  0.10902571460E+03  0.41800000000E+01 0.  1.
</event>
<event>
11    1  0.1078607E-008  0.1444923E+03  0.7561462E-02  0.1102643E+00
         22   -1    0    0    0    0  0.00000000000E+00  0.00000000000E+00  0.86859688070E+03  0.86859688070E+03  0.00000000000E+00 0.  1.
         22   -1    0    0    0    0 -0.00000000000E+00 -0.00000000000E+00 -0.10723830611E+03  0.10723830611E+03  0.00000000000E+00 0. -1.
         24    2    1    2    0    0 -0.68521823521E+02 -0.20935655726E+02 -0.60773908023E+02  0.12075866109E+03  0.75865963065E+02 0.  0.
         25    2    1    2    0    0  0.85337060407E+02  0.52807998958E+01  0.49044509227E+03  0.51331910352E+03  0.12509921177E+03 0.  0.
        -24    2    1    2    0    0 -0.16815236885E+02  0.15654855831E+02  0.33168739035E+03  0.34175742221E+03  0.79080870106E+02 0.  0.
        -13    1    3    3    0    0 -0.26128910348E+02  0.94948023209E+01  0.12760695772E+02  0.30589321399E+02  0.00000000000E+00 0.  1.
         14    1    3    3    0    0 -0.42392913173E+02 -0.30430458047E+02 -0.73534603796E+02  0.90169339688E+02  0.00000000000E+00 0. -1.
         11    1    5    5    0    0 -0.37157510261E+02 -0.38453458418E+01  0.77719720922E+02  0.86231214033E+02  0.00000000000E+00 0. -1.
        -12    1    5    5    0    0  0.20342273375E+02  0.19500201672E+02  0.25396766942E+03  0.25552620817E+03  0.00000000000E+00 0.  1.
          5    1    4    4  501    0 -0.16852159755E+02  0.30244793738E+02  0.22623107481E+03  0.22890328623E+03  0.41800000000E+01 0.  1.
         -5    1    4    4    0  501  0.10218922016E+03 -0.24963993842E+02  0.26421401746E+03  0.28441581730E+03  0.41800000000E+01 0.  1.
</event>
<event>
11    1  0.1078607E-008  0.1801905E+03  0.7561462E-02  0.1069489E+00
         22   -1    0    0    0    0  0.00000000000E+00  0.00000000000E+00  0.81334902343E+03  0.81334902343E+03  0.00000000000E+00 0.  1.
         22   -1    0    0    0    0 -0.00000000000E+00 -0.00000000000E+00 -0.22160863682E+03  0.22160863682E+03  0.00000000000E+00 0. -1.
        -24    2    1    2    0    0  0.38906319306E+01  0.12775412813E+03 -0.15201016521E+03  0.21461227090E+03  0.81333155738E+02 0.  0.
         25    2    1    2    0    0 -0.18134107786E+02 -0.14510193131E+03  0.23048514035E+03  0.30025692350E+03  0.12508958329E+03 0.  0.
         24    2    1    2    0    0  0.14243475855E+02  0.17347803182E+02  0.51326541147E+03  0.52008846585E+03  0.80912340352E+02 0.  0.
        -13    1    5    5    0    0 -0.97757206625E+01  0.40690407610E+02  0.39378298215E+03  0.39600039270E+03  0.00000000000E+00 0.  1.
         14    1    5    5    0    0  0.24019196518E+02 -0.23342604428E+02  0.11948242931E+03  0.12408807315E+03  0.00000000000E+00 0. -1.
         11    1    3    3    0    0 -0.11634670840E+02  0.13352541398E+03 -0.12720216020E+03  0.18478309258E+03  0.00000000000E+00 0. -1.
        -12    1    3    3    0    0  0.15525302771E+02 -0.57712858514E+01 -0.24808005015E+02  0.29829178321E+02  0.00000000000E+00 0.  1.
          5    1    4    4  501    0 -0.13850853167E+02  0.15557677668E+02  0.26512891260E+01  0.21410025733E+02  0.41800000000E+01 0. -1.
         -5    1    4    4    0  501 -0.42832546192E+01 -0.16065960898E+03  0.22783385123E+03  0.27884689777E+03  0.41800000000E+01 0. -1.
</event>
<event>
11    1  0.1078607E-008  0.1932718E+03  0.7561462E-02  0.1059386E+00
         22   -1    0    0    0    0  0.00000000000E+00  0.00000000000E+00  0.22017545789E+04  0.22017545789E+04  0.00000000000E+00 0.  1.
         22   -1    0    0    0    0 -0.00000000000E+00 -0.00000000000E+00 -0.44091357130E+03  0.44091357130E+03  0.00000000000E+00 0.  1.
        -24    2    1    2    0    0 -0.59902467334E+02  0.72627137213E+02 -0.39216675049E+03  0.41186053141E+03  0.83494493787E+02 0.  0.
         25    2    1    2    0    0  0.15556509338E+03 -0.17224569129E+03  0.46042516010E+03  0.53056633662E+03  0.12506091739E+03 0.  0.
         24    2    1    2    0    0 -0.95662626049E+02  0.99618554072E+02  0.16925825980E+04  0.17002412822E+04  0.83122633651E+02 0.  0.
        -11    1    5    5    0    0 -0.35994097115E+02  0.90742801680E+02  0.12034194507E+04  0.12073724386E+04  0.00000000000E+00 0.  1.
         12    1    5    5    0    0 -0.59668528934E+02  0.88757523925E+01  0.48916314727E+03  0.49286884358E+03  0.00000000000E+00 0. -1.
         13    1    3    3    0    0 -0.27585150291E+02  0.81436643785E+02 -0.21500541297E+03  0.23156034867E+03  0.00000000000E+00 0. -1.
        -14    1    3    3    0    0 -0.32317317043E+02 -0.88095065714E+01 -0.17716133752E+03  0.18030018274E+03  0.00000000000E+00 0.  1.
          5    1    4    4  501    0  0.10916893189E+03 -0.77955188891E+02  0.36372804276E+03  0.38769888916E+03  0.41800000000E+01 0.  1.
         -5    1    4    4    0  501  0.46396161494E+02 -0.94290502394E+02  0.96697117344E+02  0.14286744747E+03  0.41800000000E+01 0.  1.
</event>
<event>
11    1  0.1078607E-008  0.1368491E+03  0.7561462E-02  0.1111129E+00
         22   -1    0    0    0    0  0.00000000000E+00  0.00000000000E+00  0.67734191144E+03  0.67734191144E+03  0.00000000000E+00 0. -1.
         22   -1    0    0    0    0 -0.00000000000E+00 -0.00000000000E+00 -0.40162457808E+04  0.40162457808E+04  0.00000000000E+00 0.  1.
        -24    2    1    2    0    0  0.26888650447E+02 -0.48557820885E+02 -0.39920866321E+04  0.39932488065E+04  0.78736845237E+02 0.  0.
         25    2    1    2    0    0 -0.16249571292E+02  0.50902057521E+02  0.21495986661E+03  0.25438252050E+03  0.12509058500E+03 0.  0.
         24    2    1    2    0    0 -0.10639079154E+02 -0.23442366363E+01  0.43822289612E+03  0.44595636528E+03  0.81970040843E+02 0.  0.
        -11    1    5    5    0    0 -0.39859712011E+02 -0.18448142259E+02  0.16661742580E+03  0.17230930670E+03  0.00000000000E+00 0.  1.
         12    1    5    5    0    0  0.29220632856E+02  0.16103905623E+02  0.27160547033E+03  0.27364705858E+03  0.00000000000E+00 0. -1.
         11    1    3    3    0    0  0.32537683324E+02 -0.59823511917E+01 -0.61507566201E+03  0.61596473873E+03  0.00000000000E+00 0. -1.
        -12    1    3    3    0    0 -0.56490328770E+01 -0.42575469693E+02 -0.33770109701E+04  0.33772840678E+04  0.00000000000E+00 0.  1.
          5    1    4    4  501    0 -0.41705075735E+02  0.12818805234E+02  0.20184874108E+03  0.20655270946E+03  0.41800000000E+01 0.  1.
         -5    1    4    4    0  501  0.25455504443E+02  0.38083252288E+02  0.13111125528E+02  0.47829811037E+02  0.41800000000E+01 0.  1.
</event>
<event>
11    1  0.1078607E-008  0.1281697E+03  0.7561462E-02  0.1121538E+00
         22   -1    0    0    0    0  0.00000000000E+00  0.00000000000E+00  0.52105981045E+03  0.52105981045E+03  0.00000000000E+00 0.  1.
         22   -1    0    0    0    0 -0.00000000000E+00 -0.00000000000E+00 -0.23921194947E+04  0.23921194947E+04  0.00000000000E+00 0.  1.
        -24    2    1    2    0    0  0.59470582270E+01  0.14699107229E+02 -0.22829644791E+04  0.22844370938E+04  0.80464845481E+02 0.  0.
         25    2    1    2    0    0 -0.24262227099E+02  0.67409952535E+01 -0.65527721457E+02  0.14343978555E+03  0.12508794154E+03 0.  0.
         24    2    1    2    0    0  0.18315168872E+02 -0.21440102483E+02  0.47743251632E+03  0.48530242581E+03  0.82349945083E+02 0.  0.
        -11    1    5    5    0    0 -0.12941071575E+02 -0.33190737267E+02  0.39138407620E+03  0.39300202478E+03  0.00000000000E+00 0.  1.
         12    1    5    5    0    0  0.31256240448E+02  0.11750634785E+02  0.86048440114E+02  0.92300401033E+02  0.00000000000E+00 0. -1.
         13    1    3    3    0    0  0.32292583961E+02  0.18119557609E+02 -0.53906580718E+03  0.54033607488E+03  0.00000000000E+00 0. -1.
        -14    1    3    3    0    0 -0.26345525734E+02 -0.34204503797E+01 -0.17438986720E+04  0.17441010189E+04  0.00000000000E+00 0.  1.
          5    1    4    4  501    0 -0.55764457336E+02 -0.41232600269E+02 -0.42583667841E+02  0.81490141696E+02  0.41800000000E+01 0.  1.
         -5    1    4    4    0  501  0.31502230237E+02  0.47973595522E+02 -0.22944053616E+02  0.61949643853E+02  0.41800000000E+01 0.  1.
</event>
<event>
11    1  0.1078607E-008  0.2175424E+03  0.7561462E-02  0.1042768E+00
         22   -1    0    0    0    0  0.00000000000E+00  0.00000000000E+00  0.16816007890E+03  0.16816007890E+03  0.00000000000E+00 0.  1.
         22   -1    0    0    0    0 -0.00000000000E+00 -0.00000000000E+00 -0.20559027952E+04  0.20559027952E+04  0.00000000000E+00 0. -1.
         24    2    1    2    0    0  0.55653522462E+02 -0.16914475621E+03 -0.18700697396E+04  0.18802617791E+04  0.80723379396E+02 0.  0.
         25    2    1    2    0    0 -0.12572400655E+03  0.14350082321E+03 -0.40965543512E+02  0.23178592971E+03  0.12509008503E+03 0.  0.
        -24    2    1    2    0    0  0.70070484085E+02  0.25643932998E+02  0.23292566779E+02  0.11201516529E+03  0.80233219735E+02 0.  0.
        -13    1    3    3    0    0 -0.14155301335E+02 -0.46433439850E+01 -0.23085415987E+03  0.23133433884E+03  0.00000000000E+00 0.  1.
         14    1    3    3    0    0  0.69808823798E+02 -0.16450141222E+03 -0.16392155797E+04  0.16489274402E+04  0.00000000000E+00 0. -1.
         11    1    5    5    0    0  0.42023478246E+00  0.36479989526E+02 -0.34040025126E+01  0.36640871526E+02  0.00000000000E+00 0. -1.
        -12    1    5    5    0    0  0.69650249302E+02 -0.10836056528E+02  0.26696569291E+02  0.75374293767E+02  0.00000000000E+00 0.  1.
          5    1    4    4  501    0 -0.98631754373E+02  0.16058949610E+03 -0.55292494911E+02  0.19644831794E+03  0.41800000000E+01 0.  1.
         -5    1    4    4    0  501 -0.27092252174E+02 -0.17088672891E+02  0.14326951399E+02  0.35337611767E+02  0.41800000000E+01 0.  1.
</event>
<event>
11    1  0.1078607E-008  0.1310572E+03  0.7561462E-02  0.1117977E+00
         22   -1    0    0    0    0  0.00000000000E+00  0.00000000000E+00  0.42896207443E+03  0.42896207443E+03  0.00000000000E+00 0.  1.
         22   -1    0    0    0    0 -0.00000000000E+00 -0.00000000000E+00 -0.17286166500E+03  0.17286166500E+03  0.00000000000E+00 0.  1.
        -24    2    1    2    0    0  0.96700607904E+01  0.18372157876E+02 -0.12881253179E+03  0.15353433951E+03  0.80926378906E+02 0.  0.
         25    2    1    2    0    0 -0.45832776117E+02 -0.17931647974E+02  0.17359998334E+03  0.21956070524E+03  0.12509101368E+03 0.  0.
         24    2    1    2    0    0  0.36162715327E+02 -0.44050990277E+00  0.21131295788E+03  0.22872869469E+03  0.79722729357E+02 0.  0.
        -11    1    5    5    0    0  0.46522618855E+02  0.37067967775E+01  0.21244626706E+03  0.21751209344E+03  0.00000000000E+00 0.  1.
         12    1    5    5    0    0 -0.10359903527E+02 -0.41473066803E+01 -0.11333091755E+01  0.11216601245E+02  0.00000000000E+00 0. -1.
         11    1    3    3    0    0 -0.33125519300E+02  0.86058488590E+01 -0.30403611122E+02  0.45779255485E+02  0.00000000000E+00 0. -1.
        -12    1    3    3    0    0  0.42795580090E+02  0.97663090174E+01 -0.98408920664E+02  0.10775508403E+03  0.00000000000E+00 0.  1.
          5    1    4    4  501    0 -0.20787903353E+02 -0.66531615012E+02  0.54963707020E+02  0.88865483802E+02  0.41800000000E+01 0. -1.
         -5    1    4    4    0  501 -0.25044872765E+02  0.48599967038E+02  0.11863627632E+03  0.13069522144E+03  0.41800000000E+01 0. -1.
</event>
<event>
11    1  0.1078607E-008  0.1324273E+03  0.7561462E-02  0.1116322E+00
         22   -1    0    0    0    0  0.00000000000E+00  0.00000000000E+00  0.98285685534E+02  0.98285685534E+02  0.00000000000E+00 0. -1.
         22   -1    0    0    0    0 -0.00000000000E+00 -0.00000000000E+00 -0.12528798820E+04  0.12528798820E+04  0.00000000000E+00 0. -1.
         24    2    1    2    0    0  0.25034157162E+02  0.57318285886E+01 -0.96905521745E+03  0.97302726894E+03  0.83991003934E+02 0.  0.
         25    2    1    2    0    0  0.12886445537E+02  0.19887077511E+02 -0.23865204691E+03  0.27049023182E+03  0.12509440310E+03 0.  0.
        -24    2    1    2    0    0 -0.37920602699E+02 -0.25618906099E+02  0.53113067875E+02  0.10764806679E+03  0.81687256329E+02 0.  0.
        -13    1    3    3    0    0  0.44471753913E+02 -0.12064612366E+02 -0.30614117176E+03  0.30958958125E+03  0.00000000000E+00 0.  1.
         14    1    3    3    0    0 -0.19437596751E+02  0.17796440955E+02 -0.66291404569E+03  0.66343768769E+03  0.00000000000E+00 0. -1.
         13    1    5    5    0    0 -0.62857421415E+02 -0.27126764309E+02  0.35832629029E+02  0.77271560563E+02  0.00000000000E+00 0. -1.
        -14    1    5    5    0    0  0.24936818716E+02  0.15078582094E+01  0.17280438847E+02  0.30376506231E+02  0.00000000000E+00 0.  1.
          5    1    4    4  501    0 -0.44410767451E+02  0.27767598210E+01 -0.18407546376E+03  0.18942353449E+03  0.41800000000E+01 0. -1.
         -5    1    4    4    0  501  0.57297212988E+02  0.17110317690E+02 -0.54576583145E+02  0.81066697326E+02  0.41800000000E+01 0. -1.
</event>
<event>
11    1  0.1078607E-008  0.1383275E+03  0.7561462E-02  0.1109441E+00
         22   -1    0    0    0    0  0.00000000000E+00  0.00000000000E+00  0.16574421513E+04  0.16574421513E+04  0.00000000000E+00 0. -1.
         22   -1    0    0    0    0 -0.00000000000E+00 -0.00000000000E+00 -0.39249249278E+02  0.39249249278E+02  0.00000000000E+00 0. -1.
         24    2    1    2    0    0  0.10090283094E+02 -0.65084532159E+02  0.89555229000E+02  0.13725210695E+03  0.80499637782E+02 0.  0.
         25    2    1    2    0    0  0.14103429076E+02  0.41746895603E+02  0.30328120641E+03  0.33101091556E+03  0.12508807320E+03 0.  0.
        -24    2    1    2    0    0 -0.24193712170E+02  0.23337636556E+02  0.12253564666E+04  0.12284283780E+04  0.80048914795E+02 0.  0.
        -11    1    3    3    0    0 -0.23134087641E+02  0.72498030547E+01  0.24269622876E+02  0.34303939276E+02  0.00000000000E+00 0.  1.
         12    1    3    3    0    0  0.33224370735E+02 -0.72334335214E+02  0.65285606124E+02  0.10294816768E+03  0.00000000000E+00 0. -1.
         11    1    5    5    0    0 -0.89857233723E+01  0.26021219406E+02  0.11833991810E+04  0.11837193370E+04  0.00000000000E+00 0. -1.
        -12    1    5    5    0    0 -0.15207988798E+02 -0.26835828499E+01  0.41957285541E+02  0.44709041034E+02  0.00000000000E+00 0.  1.
          5    1    4    4  501    0 -0.32794020814E+02  0.32048737695E+02  0.33401344222E+02  0.56883139724E+02  0.41800000000E+01 0.  1.
         -5    1    4    4    0  501  0.46897449890E+02  0.96981579078E+01  0.26987986219E+03  0.27412777584E+03  0.41800000000E+01 0.  1.
</event>
<event>
11    1  0.1078607E-008  0.4034670E+03  0.7561462E-02  0.9639583E-01
         22   -1    0    0    0    0  0.00000000000E+00  0.00000000000E+00  0.54556501226E+03  0.54556501226E+03  0.00000000000E+00 0. -1.
         22   -1    0    0    0    0 -0.00000000000E+00 -0.00000000000E+00 -0.61558092466E+03  0.61558092466E+03  0.00000000000E+00 0. -1.
         24    2    1    2    0    0 -0.37439495001E+02 -0.11247969050E+03 -0.27253839385E+03  0.30783478875E+03  0.80197783520E+02 0.  0.
         25    2    1    2    0    0 -0.25239249069E+03  0.33718522397E+03  0.31244928713E+02  0.44047584232E+03  0.12508747929E+03 0.  0.
        -24    2    1    2    0    0  0.28983198569E+03 -0.22470553346E+03  0.17127755274E+03  0.41283530586E+03  0.81251664540E+02 0.  0.
        -11    1    3    3    0    0 -0.45565664054E+02 -0.11894449894E+03 -0.26753337183E+03  0.29630748997E+03  0.00000000000E+00 0.  1.
         12    1    3    3    0    0  0.81261690530E+01  0.64648084436E+01 -0.50050220151E+01  0.11527298776E+02  0.00000000000E+00 0. -1.
         13    1    5    5    0    0  0.25014223459E+03 -0.19163397772E+03  0.11252455773E+03  0.33459900633E+03  0.00000000000E+00 0. -1.
        -14    1    5    5    0    0  0.39689751102E+02 -0.33071555743E+02  0.58752995006E+02  0.78236299529E+02  0.00000000000E+00 0.  1.
          5    1    4    4  501    0 -0.14709299151E+03  0.94828566043E+02  0.99843454883E+01  0.17534527266E+03  0.41800000000E+01 0.  1.
         -5    1    4    4    0  501 -0.10529949918E+03  0.24235665792E+03  0.21260583224E+02  0.26513056966E+03  0.41800000000E+01 0.  1.
</event>
<event>
11    1  0.1078607E-008  0.2624445E+03  0.7561462E-02  0.1017471E+00
         22   -1    0    0    0    0  0.00000000000E+00  0.00000000000E+00  0.12304556776E+03  0.12304556776E+03  0.00000000000E+00 0.  1.
         22   -1    0    0    0    0 -0.00000000000E+00 -0.00000000000E+00 -0.24743629168E+04  0.24743629168E+04  0.00000000000E+00 0.  1.
         24    2    1    2    0    0  0.18688276736E+03 -0.12470709156E+03 -0.18351346584E+04  0.18505341034E+04  0.79247877629E+02 0.  0.
         25    2    1    2    0    0 -0.17838216687E+03  0.19672035725E+03 -0.55978706397E+03  0.63207780053E+03  0.12506675226E+03 0.  0.
        -24    2    1    2    0    0 -0.85006004873E+01 -0.72013265691E+02  0.43604373297E+02  0.11479658063E+03  0.77580557545E+02 0.  0.
        -13    1    3    3    0    0  0.17287180315E+03 -0.13168749241E+03 -0.17801184280E+04  0.17933342894E+04  0.00000000000E+00 0.  1.
         14    1    3    3    0    0  0.14010964203E+02  0.69804008513E+01 -0.55016230426E+02  0.57199814022E+02  0.00000000000E+00 0. -1.
         13    1    5    5    0    0 -0.10200520583E+02  0.15221965760E+01 -0.16735705243E+02  0.19658370547E+02  0.00000000000E+00 0. -1.
        -14    1    5    5    0    0  0.16999200957E+01 -0.73535462267E+02  0.60340078539E+02  0.95138210080E+02  0.00000000000E+00 0.  1.
          5    1    4    4  501    0 -0.15178669569E+03  0.17544214534E+03 -0.54914226744E+03  0.59614918405E+03  0.41800000000E+01 0. -1.
         -5    1    4    4    0  501 -0.26595471180E+02  0.21278211902E+02 -0.10644796530E+02  0.35928616481E+02  0.41800000000E+01 0. -1.
</event>
<event>
11    1  0.1078607E-008  0.1337409E+03  0.7561462E-02  0.1114756E+00
         22   -1    0    0    0    0  0.00000000000E+00  0.00000000000E+00  0.16972338147E+03  0.16972338147E+03  0.00000000000E+00 0.  1.
         22   -1    0    0    0    0 -0.00000000000E+00 -0.00000000000E+00 -0.98344563510E+03  0.98344563510E+03  0.00000000000E+00 0.  1.
        -24    2    1    2    0    0 -0.21243927138E+02  0.23217235269E+02 -0.67177697981E+03  0.67717078141E+03  0.79281852460E+02 0.  0.
         25    2    1    2    0    0 -0.24491512728E+01 -0.63649611692E+02 -0.27772741304E+03  0.31118674082E+03  0.12508956911E+03 0.  0.
         24    2    1    2    0    0  0.23693078411E+02  0.40432376423E+02  0.13578213922E+03  0.16481149434E+03  0.80807798548E+02 0.  0.
        -11    1    5    5    0    0 -0.28475332232E+02  0.25355765400E+02  0.67994911658E+02  0.77955547565E+02  0.00000000000E+00 0.  1.
         12    1    5    5    0    0  0.52168410643E+02  0.15076611023E+02  0.67787227562E+02  0.86855946771E+02  0.00000000000E+00 0. -1.
         13    1    3    3    0    0 -0.45784679491E+02  0.15000843084E+01 -0.25301316941E+03  0.25712672173E+03  0.00000000000E+00 0. -1.
        -14    1    3    3    0    0  0.24540752353E+02  0.21717150960E+02 -0.41876381040E+03  0.42004405968E+03  0.00000000000E+00 0.  1.
          5    1    4    4  501    0  0.39276914966E+02  0.13211075141E+02 -0.39590202501E+02  0.57463597953E+02  0.41800000000E+01 0. -1.
         -5    1    4    4    0  501 -0.41726066239E+02 -0.76860686833E+02 -0.23813721054E+03  0.25372314287E+03  0.41800000000E+01 0. -1.
</event>
<event>
11    1  0.1078607E-008  0.2957295E+03  0.7561462E-02  0.1002015E+00
         22   -1    0    0    0    0  0.00000000000E+00  0.00000000000E+00  0.12008986955E+04  0.12008986955E+04  0.00000000000E+00 0.  1.
         22   -1    0    0    0    0 -0.00000000000E+00 -0.00000000000E+00 -0.10982104273E+03  0.10982104273E+03  0.00000000000E+00 0.  1.
        -24    2    1    2    0    0 -0.38818654145E+02  0.40841165280E+02  0.14313117199E+03  0.17407839532E+03  0.81497648014E+02 0.  0.
         25    2    1    2    0    0  0.29208412013E+03  0.13868679129E+02  0.31045841868E+03  0.44445232605E+03  0.12509183393E+03 0.  0.
         24    2    1    2    0    0 -0.25326546598E+03 -0.54709844409E+02  0.63748806213E+03  0.69218901688E+03  0.74820066796E+02 0.  0.
        -11    1    5    5    0    0 -0.10212005688E+03  0.84563094045E+01  0.30058689863E+03  0.31757282443E+03  0.00000000000E+00 0.  1.
         12    1    5    5    0    0 -0.15114540910E+03 -0.63166153814E+02  0.33690116350E+03  0.37461619245E+03  0.00000000000E+00 0. -1.
         11    1    3    3    0    0  0.18074205578E+02  0.35919217490E+02  0.43468392688E+02  0.59214594952E+02  0.00000000000E+00 0. -1.
        -12    1    3    3    0    0 -0.56892859723E+02  0.49219477899E+01  0.99662779304E+02  0.11486380037E+03  0.00000000000E+00 0.  1.
          5    1    4    4  501    0  0.28127033546E+03  0.27671204965E+02  0.23716890805E+03  0.36897867220E+03  0.41800000000E+01 0. -1.
         -5    1    4    4    0  501  0.10813784673E+02 -0.13802525836E+02  0.73289510627E+02  0.75473653855E+02  0.41800000000E+01 0. -1.
</event>
<event>
11    1  0.1078607E-008  0.2798332E+03  0.7561462E-02  0.1009107E+00
         22   -1    0    0    0    0  0.00000000000E+00  0.00000000000E+00  0.21641850729E+04  0.21641850729E+04  0.00000000000E+00 0.  1.
         22   -1    0    0    0    0 -0.00000000000E+00 -0.00000000000E+00 -0.20501708614E+03  0.20501708614E+03  0.00000000000E+00 0. -1.
        -24    2    1    2    0    0 -0.42900100395E+02  0.13603531237E+03 -0.11015364188E+03  0.20592751639E+03  0.99630780203E+02 0.  0.
         25    2    1    2    0    0  0.28086766428E+03 -0.12838960717E+03  0.75700822493E+03  0.82709087377E+03  0.12508926733E+03 0.  0.
         24    2    1    2    0    0 -0.23796756389E+03 -0.76457051946E+01  0.13123134037E+04  0.13361837689E+04  0.80830540984E+02 0.  0.
        -13    1    5    5    0    0 -0.17527171846E+03  0.12868053290E+02  0.10971137008E+04  0.11111004610E+04  0.00000000000E+00 0.  1.
         14    1    5    5    0    0 -0.62695845427E+02 -0.20513758485E+02  0.21519970298E+03  0.22508330787E+03  0.00000000000E+00 0. -1.
         13    1    3    3    0    0  0.53776035054E+01  0.91206071980E+02 -0.10596265875E+03  0.13991265574E+03  0.00000000000E+00 0. -1.
        -14    1    3    3    0    0 -0.48277703900E+02  0.44829240387E+02 -0.41909831226E+01  0.66014860653E+02  0.00000000000E+00 0.  1.
          5    1    4    4  501    0  0.11991923648E+03 -0.12332449520E+03  0.38425243606E+03  0.42101895612E+03  0.41800000000E+01 0. -1.
         -5    1    4    4    0  501  0.16094842780E+03 -0.50651119673E+01  0.37275578887E+03  0.40607191765E+03  0.41800000000E+01 0. -1.
</event>
<event>
11    1  0.1078607E-008  0.3731470E+03  0.7561462E-02  0.9732490E-01
         22   -1    0    0    0    0  0.00000000000E+00  0.00000000000E+00  0.13475957741E+04  0.13475957741E+04  0.00000000000E+00 0. -1.
         22   -1    0    0    0    0 -0.00000000000E+00 -0.00000000000E+00 -0.75095565454E+03  0.75095565454E+03  0.00000000000E+00 0. -1.
        -24    2    1    2    0    0 -0.23335068794E+03  0.26397987355E+03 -0.57920764265E+03  0.68278682435E+03  0.81107564379E+02 0.  0.
         25    2    1    2    0    0  0.27020821510E+03 -0.22365196645E+03  0.17716380593E+03  0.41238941345E+03  0.12508130390E+03 0.  0.
         24    2    1    2    0    0 -0.36857527163E+02 -0.40327907105E+02  0.99868395625E+03  0.10033751908E+04  0.80045684981E+02 0.  0.
        -11    1    5    5    0    0 -0.48316691262E+02 -0.49307214211E+02  0.53150588107E+03  0.53597034026E+03  0.00000000000E+00 0.  1.
         12    1    5    5    0    0  0.11459164099E+02  0.89793071061E+01  0.46717807519E+03  0.46740485057E+03  0.00000000000E+00 0. -1.
         13    1    3    3    0    0 -0.15922455835E+03  0.13231824345E+03 -0.38029831963E+03  0.43299814023E+03  0.00000000000E+00 0. -1.
        -14    1    3    3    0    0 -0.74126129593E+02  0.13166163010E+03 -0.19890932302E+03  0.24978868412E+03  0.00000000000E+00 0.  1.
          5    1    4    4  501    0  0.52248821105E+02 -0.61559600975E+01  0.67102027840E+02  0.85369723508E+02  0.41800000000E+01 0.  1.
         -5    1    4    4    0  501  0.21795939400E+03 -0.21749600635E+03  0.11006177809E+03  0.32701968994E+03  0.41800000000E+01 0.  1.
</event>
<event>
11    1  0.1078607E-008  0.1402499E+03  0.7561462E-02  0.1107280E+00
         22   -1    0    0    0    0  0.00000000000E+00  0.00000000000E+00  0.89470740447E+03  0.89470740447E+03  0.00000000000E+00 0. -1.
         22   -1    0    0    0    0 -0.00000000000E+00 -0.00000000000E+00 -0.12710024390E+04  0.12710024390E+04  0.00000000000E+00 0. -1.
         24    2    1    2    0    0  0.60660014405E+01  0.28911431039E+02 -0.11502532203E+04  0.11534527003E+04  0.80610134832E+02 0.  0.
         25    2    1    2    0    0  0.33934066088E+02  0.21169787213E+02 -0.78976254998E+02  0.15324647166E+03  0.12509017343E+03 0.  0.
        -24    2    1    2    0    0 -0.40000067528E+02 -0.50081218252E+02  0.85293444077E+03  0.85901067150E+03  0.79334983866E+02 0.  0.
        -13    1    3    3    0    0  0.19111485856E+01 -0.25508877484E+02 -0.58813815963E+03  0.58869419067E+03  0.00000000000E+00 0.  1.
         14    1    3    3    0    0  0.41548528549E+01  0.54420308522E+02 -0.56211506065E+03  0.56475850962E+03  0.00000000000E+00 0. -1.
         13    1    5    5    0    0 -0.53140033769E+02 -0.62279697097E+02  0.75708552917E+03  0.76149925958E+03  0.00000000000E+00 0. -1.
        -14    1    5    5    0    0  0.13139966240E+02  0.12198478845E+02  0.95848911599E+02  0.97511411915E+02  0.00000000000E+00 0.  1.
          5    1    4    4  501    0 -0.36305219038E+02 -0.93747321431E+00  0.97825353519E+01  0.37843337370E+02  0.41800000000E+01 0.  1.
         -5    1    4    4    0  501  0.70239285125E+02  0.22107260428E+02 -0.88758790350E+02  0.11540313429E+03  0.41800000000E+01 0.  1.
</event>
<event>
11    1  0.1078607E-008  0.1601664E+03  0.7561462E-02  0.1086921E+00
         22   -1    0    0    0    0  0.00000000000E+00  0.00000000000E+00  0.28422407008E+04  0.28422407008E+04  0.00000000000E+00 0.  1.
         22   -1    0    0    0    0 -0.00000000000E+00 -0.00000000000E+00 -0.39624635559E+02  0.39624635559E+02  0.00000000000E+00 0.  1.
         24    2    1    2    0    0  0.20557528895E+01  0.12695356058E+02  0.59725332995E+02  0.99951524446E+02  0.79106217533E+02 0.  0.
         25    2    1    2    0    0  0.11646270341E+02 -0.11063936301E+03  0.37779341127E+03  0.41322114921E+03  0.12508857781E+03 0.  0.
        -24    2    1    2    0    0 -0.13702023230E+02  0.97944006949E+02  0.23650973210E+04  0.23686926627E+04  0.85081247658E+02 0.  0.
        -11    1    3    3    0    0  0.12356877482E+02  0.40656837099E+02  0.12826855312E+02  0.44386924215E+02  0.00000000000E+00 0.  1.
         12    1    3    3    0    0 -0.10301124593E+02 -0.27961481042E+02  0.46898477683E+02  0.55564600232E+02  0.00000000000E+00 0. -1.
         11    1    5    5    0    0  0.33613653544E+02  0.23522617376E+02  0.91121006416E+03  0.91213319875E+03  0.00000000000E+00 0. -1.
        -12    1    5    5    0    0 -0.47315676774E+02  0.74421389573E+02  0.14538872568E+04  0.14565594640E+04  0.00000000000E+00 0.  1.
          5    1    4    4  501    0 -0.46980181953E+02 -0.64666500714E+01  0.98937007124E+02  0.10979507657E+03  0.41800000000E+01 0. -1.
         -5    1    4    4    0  501  0.58626452294E+02 -0.10417271294E+03  0.27885640414E+03  0.30342607264E+03  0.41800000000E+01 0. -1.
</event>
<event>
11    1  0.1078607E-008  0.1251027E+03  0.7561462E-02  0.1125437E+00
         22   -1    0    0    0    0  0.00000000000E+00  0.00000000000E+00  0.73662510414E+03  0.73662510414E+03  0.00000000000E+00 0.  1.
         22   -1    0    0    0    0 -0.00000000000E+00 -0.00000000000E+00 -0.15368998550E+03  0.15368998550E+03  0.00000000000E+00 0.  1.
         24    2    1    2    0    0 -0.26521665711E+01  0.36342844100E+01 -0.10733745617E+03  0.14532291462E+03  0.97863057410E+02 0.  0.
         25    2    1    2    0    0 -0.36970831709E+02  0.20257292071E+02  0.16538005383E+03  0.21160196365E+03  0.12509048140E+03 0.  0.
        -24    2    1    2    0    0  0.39622998280E+02 -0.23891576481E+02  0.52489252098E+03  0.53339021137E+03  0.82777832714E+02 0.  0.
        -13    1    3    3    0    0 -0.23783486107E+02 -0.10778673510E+02 -0.11554575959E+03  0.11845951449E+03  0.00000000000E+00 0.  1.
         14    1    3    3    0    0  0.21131319536E+02  0.14412957920E+02  0.82083034206E+01  0.26863400127E+02  0.00000000000E+00 0. -1.
         11    1    5    5    0    0  0.33169014192E+02 -0.49027234442E+02  0.23507295301E+03  0.24241111042E+03  0.00000000000E+00 0. -1.
        -12    1    5    5    0    0  0.64539840877E+01  0.25135657961E+02  0.28981956797E+03  0.29097910095E+03  0.00000000000E+00 0.  1.
          5    1    4    4  501    0 -0.34613826081E+02  0.52220298255E+02  0.25057134519E+02  0.67604799358E+02  0.41800000000E+01 0.  1.
         -5    1    4    4    0  501 -0.23570056275E+01 -0.31963006184E+02  0.14032291931E+03  0.14399716429E+03  0.41800000000E+01 0.  1.
</event>
<event>
11    1  0.1078607E-008  0.1391845E+03  0.7561462E-02  0.1108472E+00
         22   -1    0    0    0    0  0.00000000000E+00  0.00000000000E+00  0.43812196059E+03  0.43812196059E+03  0.00000000000E+00 0.  1.
         22   -1    0    0    0    0 -0.00000000000E+00 -0.00000000000E+00 -0.52747685306E+03  0.52747685306E+03  0.00000000000E+00 0.  1.
        -24    2    1    2    0    0  0.27194173514E+02  0.52463605984E+02 -0.43864982819E+03  0.45035564912E+03  0.83153989034E+02 0.  0.
         25    2    1    2    0    0 -0.32686712440E+02 -0.79385138428E+02 -0.46128098064E+01  0.15178219952E+03  0.12508451824E+03 0.  0.
         24    2    1    2    0    0  0.54925389264E+01  0.26921532444E+02  0.35390774552E+03  0.36346096501E+03  0.78091253361E+02 0.  0.
        -11    1    5    5    0    0 -0.36236859844E+02  0.13783095200E+02  0.15182880023E+03  0.15670056893E+03  0.00000000000E+00 0.  1.
         12    1    5    5    0    0  0.41729398771E+02  0.13138437245E+02  0.20207894529E+03  0.20676039607E+03  0.00000000000E+00 0. -1.
         13    1    3    3    0    0  0.25041598560E+02  0.10207265906E+02 -0.33732388893E+02  0.43233598002E+02  0.00000000000E+00 0. -1.
        -14    1    3    3    0    0  0.21525749538E+01  0.42256340077E+02 -0.40491743930E+03  0.40712205111E+03  0.00000000000E+00 0.  1.
          5    1    4    4  501    0 -0.12596530753E+02  0.24871210605E+02  0.28893629459E+02  0.40367857601E+02  0.41800000000E+01 0.  1.
         -5    1    4    4    0  501 -0.20090181688E+02 -0.10425634903E+03 -0.33506439266E+02  0.11141434192E+03  0.41800000000E+01 0.  1.
</event>
<event>
11    1  0.1078607E-008  0.1473546E+03  0.7561462E-02  0.1099613E+00
         22   -1    0    0    0    0  0.00000000000E+00  0.00000000000E+00  0.40803656245E+03  0.40803656245E+03  0.00000000000E+00 0.  1.
         22   -1    0    0    0    0 -0.00000000000E+00 -0.00000000000E+00 -0.37740754285E+03  0.37740754285E+03  0.00000000000E+00 0.  1.
         24    2    1    2    0    0  0.38807593248E+00  0.31467146717E+02 -0.27578831687E+03  0.28900826026E+03  0.80475131899E+02 0.  0.
         25    2    1    2    0    0  0.74756584119E+02 -0.48971466533E+02 -0.16951951205E+02  0.15467426303E+03  0.12509999037E+03 0.  0.
        -24    2    1    2    0    0 -0.75144660052E+02  0.17504319816E+02  0.32336928767E+03  0.34176158201E+03  0.79247470528E+02 0.  0.
        -13    1    3    3    0    0  0.20204208739E+02  0.95420549524E+01 -0.24612033883E+03  0.24713251920E+03  0.00000000000E+00 0.  1.
         14    1    3    3    0    0 -0.19816132806E+02  0.21925091765E+02 -0.29667978042E+02  0.41875741061E+02  0.00000000000E+00 0. -1.
         13    1    5    5    0    0 -0.40713905284E+02  0.35816377878E+02  0.89365494149E+02  0.10453050537E+03  0.00000000000E+00 0. -1.
        -14    1    5    5    0    0 -0.34430754768E+02 -0.18312058062E+02  0.23400379352E+03  0.23723107664E+03  0.00000000000E+00 0.  1.
          5    1    4    4  501    0  0.73795650870E+02  0.24035249103E+02  0.61841521841E+01  0.77969272313E+02  0.41800000000E+01 0. -1.
         -5    1    4    4    0  501  0.96093324901E+00 -0.73006715636E+02 -0.23136103389E+02  0.76704990716E+02  0.41800000000E+01 0. -1.
</event>
<event>
11    1  0.1078607E-008  0.1395435E+03  0.7561462E-02  0.1108069E+00
         22   -1    0    0    0    0  0.00000000000E+00  0.00000000000E+00  0.24269168635E+04  0.24269168635E+04  0.00000000000E+00 0. -1.
         22   -1    0    0    0    0 -0.00000000000E+00 -0.00000000000E+00 -0.19128576994E+04  0.19128576994E+04  0.00000000000E+00 0. -1.
        -24    2    1    2    0    0  0.47584206490E+01 -0.60022134534E+02 -0.17304076498E+04  0.17332854683E+04  0.79640320721E+02 0.  0.
         25    2    1    2    0    0 -0.38231806687E+01  0.10349779098E+03 -0.14354649700E+03  0.21674711642E+03  0.12508919309E+03 0.  0.
         24    2    1    2    0    0 -0.93523998034E+00 -0.43475656448E+02  0.23880133109E+04  0.23897419782E+04  0.79800639672E+02 0.  0.
        -11    1    5    5    0    0 -0.11813192805E+02  0.14231932791E+02  0.17997548471E+03  0.18092339410E+03  0.00000000000E+00 0.  1.
         12    1    5    5    0    0  0.10877952825E+02 -0.57707589239E+02  0.22080378262E+04  0.22088185841E+04  0.00000000000E+00 0. -1.
         11    1    3    3    0    0  0.27304690074E+01 -0.23420393599E+02 -0.14819995820E+04  0.14821871445E+04  0.00000000000E+00 0. -1.
        -12    1    3    3    0    0  0.20279516416E+01 -0.36601740935E+02 -0.24840806787E+03  0.25109832379E+03  0.00000000000E+00 0.  1.
          5    1    4    4  501    0  0.35802623861E+02  0.11518366877E+03 -0.10222096489E+03  0.15816353401E+03  0.41800000000E+01 0.  1.
         -5    1    4    4    0  501 -0.39625804530E+02 -0.11685877787E+02 -0.41325532107E+02  0.58583582412E+02  0.41800000000E+01 0.  1.
</event>
<event>
11    1  0.1078607E-008  0.7868375E+03  0.7561462E-02  0.8913291E-01
         22   -1    0    0    0    0  0.00000000000E+00  0.00000000000E+00  0.96856765042E+03  0.96856765042E+03  0.00000000000E+00 0. -1.
         22   -1    0    0    0    0 -0.00000000000E+00 -0.00000000000E+00 -0.10226784951E+04  0.10226784951E+04  0.00000000000E+00 0. -1.
         24    2    1    2    0    0  0.63694294751E+02  0.31925422070E+02 -0.37266322144E+03  0.38783471357E+03  0.80384654488E+02 0.  0.
         25    2    1    2    0    0  0.45321473946E+03 -0.62221074028E+03  0.10939430566E+03  0.78750459921E+03  0.12508626734E+03 0.  0.
        -24    2    1    2    0    0 -0.51690903421E+03  0.59028531821E+03  0.20915807108E+03  0.81590683276E+03  0.79530839948E+02 0.  0.
        -11    1    3    3    0    0  0.51686865426E+02 -0.10184309385E+02 -0.11519446836E+03  0.12666892972E+03  0.00000000000E+00 0.  1.
         12    1    3    3    0    0  0.12007429326E+02  0.42109731456E+02 -0.25746875308E+03  0.26116578385E+03  0.00000000000E+00 0. -1.
         13    1    5    5    0    0 -0.49837905069E+03  0.54196868059E+03  0.20326171837E+03  0.76382396864E+03  0.00000000000E+00 0. -1.
        -14    1    5    5    0    0 -0.18529983524E+02  0.48316637621E+02  0.58963527106E+01  0.52082864127E+02  0.00000000000E+00 0.  1.
          5    1    4    4  501    0  0.42731028281E+03 -0.62067722541E+03  0.10454860821E+03  0.76077735233E+03  0.41800000000E+01 0. -1.
         -5    1    4    4    0  501  0.25904456645E+02 -0.15335148741E+01  0.48456974537E+01  0.26727246879E+02  0.41800000000E+01 0. -1.
</event>
<event>
11    1  0.1078607E-008  0.1302562E+03  0.7561462E-02  0.1118955E+00
         22   -1    0    0    0    0  0.00000000000E+00  0.00000000000E+00  0.52434930716E+02  0.52434930716E+02  0.00000000000E+00 0.  1.
         22   -1    0    0    0    0 -0.00000000000E+00 -0.00000000000E+00 -0.18941406497E+04  0.18941406497E+04  0.00000000000E+00 0.  1.
        -24    2    1    2    0    0  0.18580645030E+02  0.10682427771E+02 -0.15818569204E+04  0.15840531384E+04  0.80583337364E+02 0.  0.
         25    2    1    2    0    0  0.14039465727E+02  0.13603327236E+02 -0.23142666020E+03  0.26379487465E+03  0.12508908717E+03 0.  0.
         24    2    1    2    0    0 -0.32620110756E+02 -0.24285755007E+02 -0.28422138392E+02  0.98727567303E+02  0.85354818685E+02 0.  0.
        -11    1    5    5    0    0 -0.29279936996E+02 -0.27375197444E+01  0.26530621460E+02  0.39606597934E+02  0.00000000000E+00 0.  1.
         12    1    5    5    0    0 -0.33401737607E+01 -0.21548235262E+02 -0.54952759853E+02  0.59120969369E+02  0.00000000000E+00 0. -1.
         13    1    3    3    0    0  0.37017282523E+02 -0.23001130130E+02 -0.69478467585E+03  0.69615018279E+03  0.00000000000E+00 0. -1.
        -14    1    3    3    0    0 -0.18436637493E+02  0.33683557901E+02 -0.88707224451E+03  0.88790295565E+03  0.00000000000E+00 0.  1.
          5    1    4    4  501    0 -0.40095576653E+02 -0.53977454949E+01 -0.21252266788E+02  0.45890327599E+02  0.41800000000E+01 0.  1.
         -5    1    4    4    0  501  0.54135042379E+02  0.19001072731E+02 -0.21017439341E+03  0.21790454705E+03  0.41800000000E+01 0.  1.
</event>
<event>
11    1  0.1078607E-008  0.2059216E+03  0.7561462E-02  0.1050413E+00
         22   -1    0    0    0    0  0.00000000000E+00  0.00000000000E+00  0.40227367613E+03  0.40227367613E+03  0.00000000000E+00 0.  1.
         22   -1    0    0    0    0 -0.00000000000E+00 -0.00000000000E+00 -0.47547758855E+03  0.47547758855E+03  0.00000000000E+00 0.  1.
         24    2    1    2    0    0 -0.24905376461E+02  0.14155066773E+03 -0.22008649535E+03  0.27449456324E+03  0.79071679527E+02 0.  0.
         25    2    1    2    0    0  0.31645355809E+02 -0.21299003418E+03 -0.14787906466E+03  0.28962421135E+03  0.12509109814E+03 0.  0.
        -24    2    1    2    0    0 -0.67399793479E+01  0.71439366450E+02  0.29476164759E+03  0.31363249008E+03  0.79573233857E+02 0.  0.
        -13    1    3    3    0    0 -0.27042816143E+02  0.11866773326E+03 -0.22010213134E+03  0.25151201372E+03  0.00000000000E+00 0.  1.
         14    1    3    3    0    0  0.21374396821E+01  0.22882934466E+02  0.15635993790E-01  0.22982549524E+02  0.00000000000E+00 0. -1.
         11    1    5    5    0    0  0.19383594605E+02 -0.97606288567E+01  0.53398520012E+02  0.57640225146E+02  0.00000000000E+00 0. -1.
        -12    1    5    5    0    0 -0.26123573953E+02  0.81199995307E+02  0.24136312758E+03  0.25599226494E+03  0.00000000000E+00 0.  1.
          5    1    4    4  501    0  0.66986833282E+02 -0.61221553874E+02 -0.35867646923E+02  0.97669212077E+02  0.41800000000E+01 0. -1.
         -5    1    4    4    0  501 -0.35341477473E+02 -0.15176848030E+03 -0.11201141774E+03  0.19195499928E+03  0.41800000000E+01 0. -1.
</event>
<event>
11    1  0.1078607E-008  0.1492185E+03  0.7561462E-02  0.1097680E+00
         22   -1    0    0    0    0  0.00000000000E+00  0.00000000000E+00  0.42649480825E+03  0.42649480825E+03  0.00000000000E+00 0. -1.
         22   -1    0    0    0    0 -0.00000000000E+00 -0.00000000000E+00 -0.10891308114E+04  0.10891308114E+04  0.00000000000E+00 0.  1.
         24    2    1    2    0    0  0.33656264226E+02  0.73365846800E+02 -0.96545453466E+03  0.97267129784E+03  0.86439016365E+02 0.  0.
         25    2    1    2    0    0 -0.68474088309E+01 -0.96545654650E+02 -0.60292971423E+02  0.16926327004E+03  0.12508741640E+03 0.  0.
        -24    2    1    2    0    0 -0.26808855395E+02  0.23179807850E+02  0.36311150293E+03  0.37369105178E+03  0.80864209656E+02 0.  0.
        -11    1    3    3    0    0 -0.10079121927E+02  0.72248875972E+02 -0.52382884979E+03  0.52888387444E+03  0.00000000000E+00 0.  1.
         12    1    3    3    0    0  0.43735386153E+02  0.11169708287E+01 -0.44162568487E+03  0.44378742340E+03  0.00000000000E+00 0. -1.
         11    1    5    5    0    0  0.48191052717E+01  0.20264580689E+02  0.31708880343E+03  0.31777222387E+03  0.00000000000E+00 0. -1.
        -12    1    5    5    0    0 -0.31627960666E+02  0.29152271611E+01  0.46022699500E+02  0.55918827908E+02  0.00000000000E+00 0.  1.
          5    1    4    4  501    0 -0.39242230396E+02 -0.61834143892E+02 -0.87659265116E+02  0.11430237600E+03  0.41800000000E+01 0. -1.
         -5    1    4    4    0  501  0.32394821565E+02 -0.34711510758E+02  0.27366293694E+02  0.54960894042E+02  0.41800000000E+01 0. -1.
</event>
<event>
11    1  0.1078607E-008  0.2062090E+03  0.7561462E-02  0.1050218E+00
         22   -1    0    0    0    0  0.00000000000E+00  0.00000000000E+00  0.85160129651E+03  0.85160129651E+03  0.00000000000E+00 0.  1.
         22   -1    0    0    0    0 -0.00000000000E+00 -0.00000000000E+00 -0.66240776433E+03  0.66240776433E+03  0.00000000000E+00 0.  1.
        -24    2    1    2    0    0 -0.10067712848E+03 -0.28091418254E+01 -0.59286473276E+03  0.60660557987E+03  0.79611322762E+02 0.  0.
         25    2    1    2    0    0  0.48760724807E+02  0.16353613918E+03  0.18319866039E+03  0.27987640270E+03  0.12508946604E+03 0.  0.
         24    2    1    2    0    0  0.51916403677E+02 -0.16072699736E+03  0.59885960454E+03  0.62752707826E+03  0.81418224939E+02 0.  0.
        -11    1    5    5    0    0  0.55138747022E+02 -0.16945312544E+03  0.56986996496E+03  0.59708158580E+03  0.00000000000E+00 0.  1.
         12    1    5    5    0    0 -0.32223433454E+01  0.87261280825E+01  0.28989639584E+02  0.30445492460E+02  0.00000000000E+00 0. -1.
         13    1    3    3    0    0 -0.38012188057E+02 -0.29353128275E+02 -0.38257908873E+03  0.38558175750E+03  0.00000000000E+00 0. -1.
        -14    1    3    3    0    0 -0.62664940427E+02  0.26543986449E+02 -0.21028564402E+03  0.22102382238E+03  0.00000000000E+00 0.  1.
          5    1    4    4  501    0 -0.31514675440E+02  0.27501881644E+02  0.60020256577E+01  0.42462041568E+02  0.41800000000E+01 0.  1.
         -5    1    4    4    0  501  0.80275400247E+02  0.13603425754E+03  0.17719663474E+03  0.23741436113E+03  0.41800000000E+01 0.  1.
</event>
<event>
11    1  0.1078607E-008  0.1365672E+03  0.7561462E-02  0.1111453E+00
         22   -1    0    0    0    0  0.00000000000E+00  0.00000000000E+00  0.34685275892E+03  0.34685275892E+03  0.00000000000E+00 0.  1.
         22   -1    0    0    0    0 -0.00000000000E+00 -0.00000000000E+00 -0.11176808511E+04  0.11176808511E+04  0.00000000000E+00 0. -1.
        -24    2    1    2    0    0  0.49407372439E+02 -0.24033609353E+02 -0.10728889685E+04  0.10773513943E+04  0.81096147660E+02 0.  0.
         25    2    1    2    0    0 -0.52139651059E+02 -0.48981791019E+00  0.10759444973E+03  0.17303557509E+03  0.12508381790E+03 0.  0.
         24    2    1    2    0    0  0.27322786202E+01  0.24523427263E+02  0.19446642658E+03  0.21414664067E+03  0.86213275167E+02 0.  0.
        -11    1    5    5    0    0  0.18102611494E+02  0.50100397712E+02  0.15959424236E+03  0.16825004186E+03  0.00000000000E+00 0.  1.
         12    1    5    5    0    0 -0.15370332874E+02 -0.25576970449E+02  0.34872184220E+02  0.45896598809E+02  0.00000000000E+00 0. -1.
         13    1    3    3    0    0  0.47233644198E+02  0.15669570677E+02 -0.80396066387E+03  0.80549941132E+03  0.00000000000E+00 0. -1.
        -14    1    3    3    0    0  0.21737282414E+01 -0.39703180029E+02 -0.26892830464E+03  0.27185198295E+03  0.00000000000E+00 0.  1.
          5    1    4    4  501    0 -0.39744281398E+01 -0.16632848361E+01  0.12233210771E+03  0.12247930262E+03  0.41800000000E+01 0. -1.
         -5    1    4    4    0  501 -0.48165222920E+02  0.11734669259E+01 -0.14737657972E+02  0.50556272470E+02  0.41800000000E+01 0. -1.
</event>
<event>
11    1  0.1078607E-008  0.1392561E+03  0.7561462E-02  0.1108392E+00
         22   -1    0    0    0    0  0.00000000000E+00  0.00000000000E+00  0.21405853957E+03  0.21405853957E+03  0.00000000000E+00 0. -1.
         22   -1    0    0    0    0 -0.00000000000E+00 -0.00000000000E+00 -0.58112512070E+03  0.58112512070E+03  0.00000000000E+00 0. -1.
        -24    2    1    2    0    0  0.33689237540E+02 -0.35420268287E+02 -0.22055048270E+03  0.24005505758E+03  0.81205634783E+02 0.  0.
         25    2    1    2    0    0 -0.51268012414E+02  0.63992283206E+02 -0.32645025762E+03  0.35907939047E+03  0.12507924111E+03 0.  0.
         24    2    1    2    0    0  0.17578774874E+02 -0.28572014918E+02  0.17993415920E+03  0.19604921221E+03  0.70239722387E+02 0.  0.
        -11    1    5    5    0    0 -0.12143842062E+02  0.16818419273E+02  0.28970291594E+02  0.35631586015E+02  0.00000000000E+00 0.  1.
         12    1    5    5    0    0  0.29722616935E+02 -0.45390434192E+02  0.15096386760E+03  0.16041762620E+03  0.00000000000E+00 0. -1.
         11    1    3    3    0    0  0.26254781387E+02  0.19192316775E+02 -0.13037121283E+03  0.13436633397E+03  0.00000000000E+00 0. -1.
        -12    1    3    3    0    0  0.74344561526E+01 -0.54612585062E+02 -0.90179269869E+02  0.10568872362E+03  0.00000000000E+00 0.  1.
          5    1    4    4  501    0 -0.69031579143E+02  0.41316603319E+02 -0.89775104343E+02  0.12062115233E+03  0.41800000000E+01 0.  1.
         -5    1    4    4    0  501  0.17763566729E+02  0.22675679886E+02 -0.23667515328E+03  0.23845823815E+03  0.41800000000E+01 0.  1.
</event>
<event>
11    1  0.1078607E-008  0.4804032E+03  0.7561462E-02  0.9438410E-01
         22   -1    0    0    0    0  0.00000000000E+00  0.00000000000E+00  0.18168991608E+04  0.18168991608E+04  0.00000000000E+00 0. -1.
         22   -1    0    0    0    0 -0.00000000000E+00 -0.00000000000E+00 -0.33405566884E+04  0.33405566884E+04  0.00000000000E+00 0.  1.
         24    2    1    2    0    0  0.45768570641E+02 -0.72683678958E+02 -0.30213632764E+04  0.30236801397E+04  0.81411668659E+02 0.  0.
         25    2    1    2    0    0 -0.63578021095E+01  0.52734870975E+03 -0.24488288503E+02  0.54257189266E+03  0.12508996406E+03 0.  0.
        -24    2    1    2    0    0 -0.39410768531E+02 -0.45466503079E+03  0.15221940373E+04  0.15912038169E+04  0.81125834346E+02 0.  0.
        -13    1    3    3    0    0  0.47490425416E+02 -0.14380996242E+02 -0.20272521477E+04  0.20278593206E+04  0.00000000000E+00 0.  1.
         14    1    3    3    0    0 -0.17218547749E+01 -0.58302682716E+02 -0.99411112867E+03  0.99582081909E+03  0.00000000000E+00 0. -1.
         13    1    5    5    0    0  0.40558672591E+01 -0.34005266836E+03  0.10745377418E+04  0.11270685986E+04  0.00000000000E+00 0. -1.
        -14    1    5    5    0    0 -0.43466635790E+02 -0.11461236243E+03  0.44765629548E+03  0.46413521837E+03  0.00000000000E+00 0.  1.
          5    1    4    4  501    0 -0.14088576961E+02  0.50428255132E+03 -0.50128626294E+02  0.50698099682E+03  0.41800000000E+01 0. -1.
         -5    1    4    4    0  501  0.77307748516E+01  0.23066158432E+02  0.25640337790E+02  0.35590895839E+02  0.41800000000E+01 0. -1.
</event>
<event>
11    1  0.1078607E-008  0.2851370E+03  0.7561462E-02  0.1006685E+00
         22   -1    0    0    0    0  0.00000000000E+00  0.00000000000E+00  0.88068952062E+02  0.88068952062E+02  0.00000000000E+00 0.  1.
         22   -1    0    0    0    0 -0.00000000000E+00 -0.00000000000E+00 -0.22480926921E+04  0.22480926921E+04  0.00000000000E+00 0.  1.
         24    2    1    2    0    0 -0.26252580605E+03 -0.58717225143E+02 -0.17883714236E+04  0.18109644833E+04  0.94617648726E+02 0.  0.
         25    2    1    2    0    0  0.20301821935E+03  0.60508193260E+02 -0.34224217197E+03  0.42148949265E+03  0.12508416884E+03 0.  0.
        -24    2    1    2    0    0  0.59507586694E+02 -0.17909681179E+01 -0.29410144428E+02  0.10370766824E+03  0.79661555439E+02 0.  0.
        -13    1    3    3    0    0 -0.25310991410E+03 -0.70656778448E+02 -0.15508371246E+04  0.15729439901E+04  0.00000000000E+00 0.  1.
         14    1    3    3    0    0 -0.94158919447E+01  0.11939553305E+02 -0.23753429901E+03  0.23802049315E+03  0.00000000000E+00 0. -1.
         11    1    5    5    0    0  0.67233980572E+02  0.13642989982E+02 -0.43665751181E+02  0.81321812237E+02  0.00000000000E+00 0. -1.
        -12    1    5    5    0    0 -0.77263938780E+01 -0.15433958100E+02  0.14255606753E+02  0.22385856001E+02  0.00000000000E+00 0.  1.
          5    1    4    4  501    0  0.97119478065E+02  0.48284891855E+01 -0.25618638661E+03  0.27405190094E+03  0.41800000000E+01 0. -1.
         -5    1    4    4    0  501  0.10589874129E+03  0.55679704075E+02 -0.86055785365E+02  0.14743759170E+03  0.41800000000E+01 0. -1.
</event>
<event>
11    1  0.1078607E-008  0.1696487E+03  0.7561462E-02  0.1078338E+00
         22   -1    0    0    0    0  0.00000000000E+00  0.00000000000E+00  0.11172412227E+04  0.11172412227E+04  0.00000000000E+00 0.  1.
         22   -1    0    0    0    0 -0.00000000000E+00 -0.00000000000E+00 -0.39117144058E+03  0.39117144058E+03  0.00000000000E+00 0.  1.
         24    2    1    2    0    0 -0.76042603215E+02 -0.85244579763E+02 -0.36022846243E+03  0.38627501402E+03  0.79967027122E+02 0.  0.
         25    2    1    2    0    0  0.10797625152E+03  0.79682805912E+02  0.57502616152E+03  0.60358088477E+03  0.12508628053E+03 0.  0.
        -24    2    1    2    0    0 -0.31933648300E+02  0.55617738514E+01  0.51127208301E+03  0.51855676446E+03  0.80319884726E+02 0.  0.
        -11    1    3    3    0    0 -0.80494861463E+02 -0.57298484526E+02 -0.33165456981E+03  0.34605966643E+03  0.00000000000E+00 0.  1.
         12    1    3    3    0    0  0.44522582474E+01 -0.27946095237E+02 -0.28573892622E+02  0.40215347593E+02  0.00000000000E+00 0. -1.
         13    1    5    5    0    0  0.64591981588E+01  0.33179189273E+02  0.12840091023E+03  0.13277565134E+03  0.00000000000E+00 0. -1.
        -14    1    5    5    0    0 -0.38392846459E+02 -0.27617415422E+02  0.38287117278E+03  0.38578111312E+03  0.00000000000E+00 0.  1.
          5    1    4    4  501    0 -0.10532543061E+01  0.50738128608E+02  0.72905799054E+02  0.88928032560E+02  0.41800000000E+01 0. -1.
         -5    1    4    4    0  501  0.10902950582E+03  0.28944677304E+02  0.50212036247E+03  0.51465285221E+03  0.41800000000E+01 0. -1.
</event>
<event>
11    1  0.1078607E-008  0.1354027E+03  0.7561462E-02  0.1112803E+00
         22   -1    0    0    0    0  0.00000000000E+00  0.00000000000E+00  0.10274022585E+04  0.10274022585E+04  0.00000000000E+00 0. -1.
         22   -1    0    0    0    0 -0.00000000000E+00 -0.00000000000E+00 -0.22789028001E+03  0.22789028001E+03  0.00000000000E+00 0.  1.
        -24    2    1    2    0    0  0.40858800059E+02 -0.27243086507E+02 -0.15570209626E+03  0.18244047622E+03  0.81423321483E+02 0.  0.
         25    2    1    2    0    0 -0.52232212812E+02  0.48406450194E+02  0.34195180331E+02  0.14794232208E+03  0.12508489848E+03 0.  0.
         24    2    1    2    0    0  0.11373412753E+02 -0.21163363687E+02  0.92101889441E+03  0.92490974020E+03  0.81271035253E+02 0.  0.
        -11    1    5    5    0    0  0.16541298372E+02 -0.47001852936E+01  0.37859820347E+02  0.41582115030E+02  0.00000000000E+00 0.  1.
         12    1    5    5    0    0 -0.51678856188E+01 -0.16463178393E+02  0.88315907406E+03  0.88332762517E+03  0.00000000000E+00 0. -1.
         13    1    3    3    0    0  0.20581874401E+02 -0.52560647908E+02 -0.64869690237E+02  0.85990185334E+02  0.00000000000E+00 0. -1.
        -14    1    3    3    0    0  0.20276925658E+02  0.25317561401E+02 -0.90832406019E+02  0.96450290889E+02  0.00000000000E+00 0.  1.
          5    1    4    4  501    0  0.25252632751E+01  0.62932187898E+02 -0.23142525010E+02  0.67230098112E+02  0.41800000000E+01 0. -1.
         -5    1    4    4    0  501 -0.54757476087E+02 -0.14525737705E+02  0.57337705341E+02  0.80712223963E+02  0.41800000000E+01 0. -1.
</event>
<event>
11    1  0.1078607E-008  0.1509675E+03  0.7561462E-02  0.1095894E+00
         22   -1    0    0    0    0  0.00000000000E+00  0.00000000000E+00  0.69587693804E+03  0.69587693804E+03  0.00000000000E+00 0. -1.
         22   -1    0    0    0    0 -0.00000000000E+00 -0.00000000000E+00 -0.37097932859E+03  0.37097932859E+03  0.00000000000E+00 0.  1.
        -24    2    1    2    0    0 -0.50729105419E+02 -0.66824603128E+02 -0.28776472669E+03  0.30950326268E+03  0.77102282493E+02 0.  0.
         25    2    1    2    0    0  0.47022935165E+02  0.76548842082E+02  0.15896532016E+02  0.15482273371E+03  0.12508596040E+03 0.  0.
         24    2    1    2    0    0  0.37061702534E+01 -0.97242389537E+01  0.59676580413E+03  0.60253027023E+03  0.82492454466E+02 0.  0.
        -13    1    5    5    0    0  0.10604158463E+02  0.34392098793E+02  0.34121241301E+03  0.34310519587E+03  0.00000000000E+00 0.  1.
         14    1    5    5    0    0 -0.68979882095E+01 -0.44116337747E+02  0.25555339112E+03  0.25942507437E+03  0.00000000000E+00 0. -1.
         11    1    3    3    0    0  0.15613346690E+02 -0.19923316960E+02 -0.30077623307E+02  0.39311303430E+02  0.00000000000E+00 0. -1.
        -12    1    3    3    0    0 -0.66342452109E+02 -0.46901286168E+02 -0.25768710338E+03  0.27019195925E+03  0.00000000000E+00 0.  1.
          5    1    4    4  501    0  0.27181650649E+02  0.10872757580E+03 -0.33378881830E+01  0.11220134477E+03  0.41800000000E+01 0.  1.
         -5    1    4    4    0  501  0.19841284516E+02 -0.32178733717E+02  0.19234420199E+02  0.42621388941E+02  0.41800000000E+01 0.  1.
</event>
<event>
11    1  0.1078607E-008  0.3363528E+03  0.7561462E-02  0.9858809E-01
         22   -1    0    0    0    0  0.00000000000E+00  0.00000000000E+00  0.31602435683E+04  0.31602435683E+04  0.00000000000E+00 0.  1.
         22   -1    0    0    0    0 -0.00000000000E+00 -0.00000000000E+00 -0.34294996604E+03  0.34294996604E+03  0.00000000000E+00 0. -1.
         24    2    1    2    0    0 -0.30714338449E+02  0.42515850077E+02 -0.28763126502E+03  0.30323497357E+03  0.80428455720E+02 0.  0.
         25    2    1    2    0    0  0.27456638605E+03 -0.21836020129E+03  0.91414839939E+03  0.98710814906E+03  0.12508926400E+03 0.  0.
        -24    2    1    2    0    0 -0.24385204760E+03  0.17584435121E+03  0.21907764679E+04  0.22128504117E+04  0.82585442876E+02 0.  0.
        -11    1    3    3    0    0 -0.33809928204E+02  0.52408101016E+01 -0.39315464234E+02  0.52117972558E+02  0.00000000000E+00 0.  1.
         12    1    3    3    0    0  0.30955897546E+01  0.37275039975E+02 -0.24831580078E+03  0.25111700102E+03  0.00000000000E+00 0. -1.
         11    1    5    5    0    0 -0.71594391173E+02  0.10096022510E+03  0.83381970193E+03  0.84295552624E+03  0.00000000000E+00 0. -1.
        -12    1    5    5    0    0 -0.17225765643E+03  0.74884126116E+02  0.13569567660E+04  0.13698948855E+04  0.00000000000E+00 0.  1.
          5    1    4    4  501    0  0.23496358533E+03 -0.22530886142E+03  0.74204716000E+03  0.81032304023E+03  0.41800000000E+01 0. -1.
         -5    1    4    4    0  501  0.39602800722E+02  0.69486601301E+01  0.17210123939E+03  0.17678510883E+03  0.41800000000E+01 0. -1.
</event>
<event>
11    1  0.1078607E-008  0.2073542E+03  0.7561462E-02  0.1049442E+00
         22   -1    0    0    0    0  0.00000000000E+00  0.00000000000E+00  0.43407917144E+03  0.43407917144E+03  0.00000000000E+00 0. -1.
         22   -1    0    0    0    0 -0.00000000000E+00 -0.00000000000E+00 -0.12847723128E+04  0.12847723128E+04  0.00000000000E+00 0. -1.
         24    2    1    2    0    0 -0.10935084635E+03  0.12504133689E+03 -0.12026249180E+04  0.12167387147E+04  0.80953462141E+02 0.  0.
         25    2    1    2    0    0  0.29123477951E+02 -0.16734463821E+03  0.12574729368E+03  0.24558432392E+03  0.12508746293E+03 0.  0.
        -24    2    1    2    0    0  0.80227368397E+02  0.42303301326E+02  0.22618448294E+03  0.25652844558E+03  0.80133782675E+02 0.  0.
        -13    1    3    3    0    0 -0.77050460946E+01 -0.83356864120E+01 -0.28152478986E+02  0.30354793301E+02  0.00000000000E+00 0.  1.
         14    1    3    3    0    0 -0.10164580025E+03  0.13337702330E+03 -0.11744724390E+04  0.11863839214E+04  0.00000000000E+00 0. -1.
         11    1    5    5    0    0  0.34013145961E+02  0.59554355002E+02  0.15916405239E+03  0.17331131202E+03  0.00000000000E+00 0. -1.
        -12    1    5    5    0    0  0.46214222436E+02 -0.17251053676E+02  0.67020430550E+02  0.83217133569E+02  0.00000000000E+00 0.  1.
          5    1    4    4  501    0  0.14466673808E+02 -0.16563065518E+03  0.14522334860E+03  0.22079422992E+03  0.41800000000E+01 0. -1.
         -5    1    4    4    0  501  0.14656804143E+02 -0.17139830301E+01 -0.19476054919E+02  0.24790094004E+02  0.41800000000E+01 0. -1.
</event>
<event>
11    1  0.1078607E-008  0.1388764E+03  0.7561462E-02  0.1108820E+00
         22   -1    0    0    0    0  0.00000000000E+00  0.00000000000E+00  0.66609151355E+02  0.66609151355E+02  0.00000000000E+00 0. -1.
         22   -1    0    0    0    0 -0.00000000000E+00 -0.00000000000E+00 -0.38206376117E+04  0.38206376117E+04  0.00000000000E+00 0. -1.
         24    2    1    2    0    0 -0.43620963241E+02 -0.10225578713E+02 -0.30446888506E+04  0.30461128577E+04  0.81645537259E+02 0.  0.
         25    2    1    2    0    0  0.33388788156E+02 -0.50103342218E+02 -0.72818153421E+03  0.74129716423E+03  0.12509189767E+03 0.  0.
        -24    2    1    2    0    0  0.10232175085E+02  0.60328920931E+02  0.18841924447E+02  0.99836741175E+02  0.76603398515E+02 0.  0.
        -13    1    3    3    0    0 -0.78919517778E+01 -0.39851525997E+02 -0.89318191083E+03  0.89410533656E+03  0.00000000000E+00 0.  1.
         14    1    3    3    0    0 -0.35729011463E+02  0.29625947283E+02 -0.21515069398E+04  0.21520075211E+04  0.00000000000E+00 0. -1.
         13    1    5    5    0    0  0.95330717340E+01  0.73486592575E+02  0.32449039281E+02  0.80895604919E+02  0.00000000000E+00 0. -1.
        -14    1    5    5    0    0  0.69910335050E+00 -0.13157671644E+02 -0.13607114834E+02  0.18941136256E+02  0.00000000000E+00 0.  1.
          5    1    4    4  501    0 -0.67841790710E+01 -0.44281536365E+02 -0.66212874725E+03  0.66365565610E+03  0.41800000000E+01 0.  1.
         -5    1    4    4    0  501  0.40172967227E+02 -0.58218058530E+01 -0.66052786964E+02  0.77641508132E+02  0.41800000000E+01 0.  1.
</event>
<event>
11    1  0.1078607E-008  0.3045464E+03  0.7561462E-02  0.9982852E-01
         22   -1    0    0    0    0  0.00000000000E+00  0.00000000000E+00  0.96437044933E+03  0.96437044933E+03  0.00000000000E+00 0. -1.
         22   -1    0    0    0    0 -0.00000000000E+00 -0.00000000000E+00 -0.10347280025E+04  0.10347280025E+04  0.00000000000E+00 0.  1.
        -24    2    1    2    0    0  0.27825666989E+03  0.57132801083E+01 -0.97270498185E+03  0.10149636563E+04  0.80850639661E+02 0.  0.
         25    2    1    2    0    0 -0.25899359976E+03 -0.28185112121E+02  0.55868033510E+03  0.62900188301E+03  0.12509023438E+03 0.  0.
         24    2    1    2    0    0 -0.19263070130E+02  0.22471832013E+02  0.34366709354E+03  0.35513291258E+03  0.84476418643E+02 0.  0.
        -13    1    5    5    0    0  0.67956200865E+01  0.29005916006E+02  0.37992240832E+02  0.48279747091E+02  0.00000000000E+00 0.  1.
         14    1    5    5    0    0 -0.26058690217E+02 -0.65340839931E+01  0.30567485271E+03  0.30685316548E+03  0.00000000000E+00 0. -1.
         13    1    3    3    0    0  0.10913230442E+03 -0.37184990561E+02 -0.37805634149E+03  0.39524572196E+03  0.00000000000E+00 0. -1.
        -14    1    3    3    0    0  0.16912436547E+03  0.42898270669E+02 -0.59464864036E+03  0.61971793431E+03  0.00000000000E+00 0.  1.
          5    1    4    4  501    0 -0.18313502520E+03 -0.22631890905E+02  0.49958413189E+03  0.53259029016E+03  0.41800000000E+01 0.  1.
         -5    1    4    4    0  501 -0.75858574568E+02 -0.55532212159E+01  0.59096203209E+02  0.96411592845E+02  0.41800000000E+01 0.  1.
</event>
<event>
11    1  0.1078607E-008  0.1252816E+03  0.7561462E-02  0.1125206E+00
         22   -1    0    0    0    0  0.00000000000E+00  0.00000000000E+00  0.17978928692E+03  0.17978928692E+03  0.00000000000E+00 0. -1.
         22   -1    0    0    0    0 -0.00000000000E+00 -0.00000000000E+00 -0.63758170085E+03  0.63758170085E+03  0.00000000000E+00 0.  1.
         24    2    1    2    0    0  0.89549310178E+01 -0.11739093514E+02 -0.53833719928E+03  0.54475531557E+03  0.82057398244E+02 0.  0.
         25    2    1    2    0    0 -0.70823419788E+00  0.10672105658E+02 -0.34707561487E+02  0.13025124837E+03  0.12508548054E+03 0.  0.
        -24    2    1    2    0    0 -0.82466968199E+01  0.10669878564E+01  0.11525234684E+03  0.14236442383E+03  0.83158759297E+02 0.  0.
        -13    1    3    3    0    0 -0.18705617900E+02  0.35589834289E+01 -0.45840264534E+03  0.45879794219E+03  0.00000000000E+00 0.  1.
         14    1    3    3    0    0  0.27660548918E+02 -0.15298076943E+02 -0.79934553947E+02  0.85957373385E+02  0.00000000000E+00 0. -1.
         13    1    5    5    0    0 -0.24307357759E+02 -0.16938037266E+02  0.11445145041E+03  0.11822385228E+03  0.00000000000E+00 0. -1.
        -14    1    5    5    0    0  0.16060660939E+02  0.18005025122E+02  0.80089643297E+00  0.24140571546E+02  0.00000000000E+00 0.  1.
          5    1    4    4  501    0 -0.50067045742E+02  0.39873088344E+02 -0.34325596982E+02  0.72748135726E+02  0.41800000000E+01 0. -1.
         -5    1    4    4    0  501  0.49358811544E+02 -0.29200982687E+02 -0.38196450536E+00  0.57503112644E+02  0.41800000000E+01 0. -1.
</event>
<event>
11    1  0.1078607E-008  0.1437750E+03  0.7561462E-02  0.1103415E+00
         22   -1    0    0    0    0  0.00000000000E+00  0.00000000000E+00  0.18019826397E+03  0.18019826397E+03  0.00000000000E+00 0.  1.
         22   -1    0    0    0    0 -0.00000000000E+00 -0.00000000000E+00 -0.49544787941E+03  0.49544787941E+03  0.00000000000E+00 0.  1.
         24    2    1    2    0    0 -0.30801009360E+02  0.22169205608E+02 -0.39583435907E+03  0.40527434761E+03  0.78245007193E+02 0.  0.
         25    2    1    2    0    0 -0.49820137425E+02 -0.24924899786E+02  0.12477752557E+02  0.13750677431E+03  0.12509645059E+03 0.  0.
        -24    2    1    2    0    0  0.80621146785E+02  0.27556941783E+01  0.68106991081E+02  0.13286502146E+03  0.80667146562E+02 0.  0.
        -11    1    3    3    0    0 -0.47794461977E+02  0.35638498136E+02 -0.21392950669E+03  0.22208162233E+03  0.00000000000E+00 0.  1.
         12    1    3    3    0    0  0.16993452617E+02 -0.13469292529E+02 -0.18190485238E+03  0.18319272527E+03  0.00000000000E+00 0. -1.
         13    1    5    5    0    0  0.97181741190E+01 -0.12177385184E+02 -0.15672237304E+02  0.22098656978E+02  0.00000000000E+00 0. -1.
        -14    1    5    5    0    0  0.70902972666E+02  0.14933079362E+02  0.83779228385E+02  0.11076636448E+03  0.00000000000E+00 0.  1.
          5    1    4    4  501    0  0.28920802739E+02  0.14452120976E+02  0.33661243742E+02  0.46859666687E+02  0.41800000000E+01 0. -1.
         -5    1    4    4    0  501 -0.78740940165E+02 -0.39377020762E+02 -0.21183491185E+02  0.90647107625E+02  0.41800000000E+01 0. -1.
</event>
<event>
11    1  0.1078607E-008  0.1294459E+03  0.7561462E-02  0.1119952E+00
         22   -1    0    0    0    0  0.00000000000E+00  0.00000000000E+00  0.19061267615E+03  0.19061267615E+03  0.00000000000E+00 0. -1.
         22   -1    0    0    0    0 -0.00000000000E+00 -0.00000000000E+00 -0.42660488494E+03  0.42660488494E+03  0.00000000000E+00 0.  1.
        -24    2    1    2    0    0 -0.14206855489E+01 -0.74332938096E+00 -0.23568766525E+03  0.24951803730E+03  0.81902408393E+02 0.  0.
         25    2    1    2    0    0 -0.31917816268E+02 -0.36869192676E+00 -0.14824884171E+03  0.19658641976E+03  0.12509843499E+03 0.  0.
         24    2    1    2    0    0  0.33338501817E+02  0.11120213077E+01  0.14794429817E+03  0.17111310403E+03  0.79243212433E+02 0.  0.
        -13    1    5    5    0    0 -0.90891532695E+01 -0.29292795039E+02  0.34044657057E+02  0.45822693313E+02  0.00000000000E+00 0.  1.
         14    1    5    5    0    0  0.42427655087E+02  0.30404816346E+02  0.11389964111E+03  0.12529041072E+03  0.00000000000E+00 0. -1.
         11    1    3    3    0    0  0.39314972873E+01 -0.10314248725E+02  0.23022099841E+01  0.11275662663E+02  0.00000000000E+00 0. -1.
        -12    1    3    3    0    0 -0.53521828362E+01  0.95709193439E+01 -0.23798987523E+03  0.23824237464E+03  0.00000000000E+00 0.  1.
          5    1    4    4  501    0  0.39966607969E+02  0.28966400167E+02 -0.74192976044E+02  0.89210157411E+02  0.41800000000E+01 0. -1.
         -5    1    4    4    0  501 -0.71884424237E+02 -0.29335092094E+02 -0.74055865670E+02  0.10737626235E+03  0.41800000000E+01 0. -1.
</event>
<event>
11    1  0.1078607E-008  0.3933561E+03  0.7561462E-02  0.9669567E-01
         22   -1    0    0    0    0  0.00000000000E+00  0.00000000000E+00  0.41178646279E+03  0.41178646279E+03  0.00000000000E+00 0.  1.
         22   -1    0    0    0    0 -0.00000000000E+00 -0.00000000000E+00 -0.62818998452E+03  0.62818998452E+03  0.00000000000E+00 0.  1.
        -24    2    1    2    0    0 -0.61977379162E+01 -0.25502981471E+02 -0.92749445681E+02  0.13444200491E+03  0.93719683056E+02 0.  0.
         25    2    1    2    0    0  0.34955225672E+03  0.16127289951E+03 -0.28466805291E+03  0.49485546899E+03  0.12510118522E+03 0.  0.
         24    2    1    2    0    0 -0.34335451880E+03 -0.13576991804E+03  0.16101397686E+03  0.41067897340E+03  0.80037005323E+02 0.  0.
        -11    1    5    5    0    0 -0.18602880544E+03 -0.11482970856E+03  0.83143954023E+02  0.23389205953E+03  0.00000000000E+00 0.  1.
         12    1    5    5    0    0 -0.15732571336E+03 -0.20940209481E+02  0.77870022841E+02  0.17678691387E+03  0.00000000000E+00 0. -1.
         13    1    3    3    0    0 -0.45009694237E+02 -0.33069782858E+02 -0.67124766267E+02  0.87322490573E+02  0.00000000000E+00 0. -1.
        -14    1    3    3    0    0  0.38811956321E+02  0.75668013873E+01 -0.25624679415E+02  0.47119514342E+02  0.00000000000E+00 0.  1.
          5    1    4    4  501    0  0.38154248037E+02  0.41218603056E+02 -0.21803011881E+00  0.56322640370E+02  0.41800000000E+01 0.  1.
         -5    1    4    4    0  501  0.31139800868E+03  0.12005429646E+03 -0.28445002280E+03  0.43853282862E+03  0.41800000000E+01 0.  1.
</event>
<event>
11    1  0.1078607E-008  0.2287407E+03  0.7561462E-02  0.1035876E+00
         22   -1    0    0    0    0  0.00000000000E+00  0.00000000000E+00  0.75964210004E+03  0.75964210004E+03  0.00000000000E+00 0. -1.
         22   -1    0    0    0    0 -0.00000000000E+00 -0.00000000000E+00 -0.10063580726E+04  0.10063580726E+04  0.00000000000E+00 0. -1.
         24    2    1    2    0    0  0.11236119655E+03  0.15895765900E+03 -0.96190362109E+03  0.98470516101E+03  0.80579786600E+02 0.  0.
         25    2    1    2    0    0 -0.97483764822E+02 -0.63208928155E+02  0.27730757392E+03  0.32564737441E+03  0.12509304101E+03 0.  0.
        -24    2    1    2    0    0 -0.14877431727E+02 -0.95748730848E+02  0.43788007460E+03  0.45564763723E+03  0.80539755051E+02 0.  0.
        -13    1    3    3    0    0  0.13237684651E+02  0.65378049072E+02 -0.45194650680E+03  0.45684261032E+03  0.00000000000E+00 0.  1.
         14    1    3    3    0    0  0.99123511899E+02  0.93579609931E+02 -0.50995711428E+03  0.52786255068E+03  0.00000000000E+00 0. -1.
         13    1    5    5    0    0 -0.18637029070E+02  0.15795027541E+01  0.16204520526E+03  0.16312106617E+03  0.00000000000E+00 0. -1.
        -14    1    5    5    0    0  0.37595973427E+01 -0.97328233602E+02  0.27583486934E+03  0.29252657106E+03  0.00000000000E+00 0.  1.
          5    1    4    4  501    0 -0.11605949896E+03 -0.78069093440E+02  0.26206790328E+03  0.29708862143E+03  0.41800000000E+01 0.  1.
         -5    1    4    4    0  501  0.18575734141E+02  0.14860165285E+02  0.15239670634E+02  0.28558752988E+02  0.41800000000E+01 0.  1.
</event>
<event>
11    1  0.1078607E-008  0.1625586E+03  0.7561462E-02  0.1084695E+00
         22   -1    0    0    0    0  0.00000000000E+00  0.00000000000E+00  0.36076502674E+03  0.36076502674E+03  0.00000000000E+00 0.  1.
         22   -1    0    0    0    0 -0.00000000000E+00 -0.00000000000E+00 -0.10598294551E+04  0.10598294551E+04  0.00000000000E+00 0.  1.
        -24    2    1    2    0    0 -0.39949060069E+02 -0.71588028840E+01 -0.65540739753E+03  0.66177149479E+03  0.82069962323E+02 0.  0.
         25    2    1    2    0    0  0.44596585680E+02  0.11058429004E+03 -0.36959249978E+03  0.40800025540E+03  0.12509137404E+03 0.  0.
         24    2    1    2    0    0 -0.46475256105E+01 -0.10342548716E+03  0.32593546893E+03  0.35082273168E+03  0.78257448622E+02 0.  0.
        -13    1    5    5    0    0 -0.40102754767E+02 -0.71904110089E+02  0.20504761887E+03  0.22095917720E+03  0.00000000000E+00 0.  1.
         14    1    5    5    0    0  0.35455229157E+02 -0.31521377068E+02  0.12088785007E+03  0.12986355447E+03  0.00000000000E+00 0. -1.
         11    1    3    3    0    0 -0.40157311488E+02 -0.35246876493E+02 -0.26373036617E+03  0.26908856908E+03  0.00000000000E+00 0. -1.
        -12    1    3    3    0    0  0.20825141849E+00  0.28088073609E+02 -0.39167703136E+03  0.39268292571E+03  0.00000000000E+00 0.  1.
          5    1    4    4  501    0  0.49788576230E+02  0.11288797143E+03 -0.37763641017E+03  0.39730256368E+03  0.41800000000E+01 0. -1.
         -5    1    4    4    0  501 -0.51919905503E+01 -0.23036813931E+01  0.80439103935E+01  0.10697691725E+02  0.41800000000E+01 0. -1.
</event>
<event>
11    1  0.1078607E-008  0.1412210E+03  0.7561462E-02  0.1106203E+00
         22   -1    0    0    0    0  0.00000000000E+00  0.00000000000E+00  0.10092352602E+04  0.10092352602E+04  0.00000000000E+00 0. -1.
         22   -1    0    0    0    0 -0.00000000000E+00 -0.00000000000E+00 -0.18039154945E+03  0.18039154945E+03  0.00000000000E+00 0.  1.
        -24    2    1    2    0    0  0.18866125876E+02 -0.67851057822E+02 -0.13832907378E+03  0.17407130102E+03  0.78779365525E+02 0.  0.
         25    2    1    2    0    0 -0.21319107642E+02  0.77248364748E+01  0.17072075840E+03  0.21284908133E+03  0.12507988098E+03 0.  0.
         24    2    1    2    0    0  0.24529817660E+01  0.60126221348E+02  0.79645202612E+03  0.80270642729E+03  0.79878651026E+02 0.  0.
        -13    1    5    5    0    0  0.41118850009E+02  0.29117423369E+02  0.38753497348E+03  0.39079654532E+03  0.00000000000E+00 0.  1.
         14    1    5    5    0    0 -0.38665868243E+02  0.31008797978E+02  0.40891705264E+03  0.41190988197E+03  0.00000000000E+00 0. -1.
         13    1    3    3    0    0  0.28882582401E+02 -0.47467285404E+02 -0.29523236546E+02  0.62920332532E+02  0.00000000000E+00 0. -1.
        -14    1    3    3    0    0 -0.10016456525E+02 -0.20383772418E+02 -0.10880583724E+03  0.11115096849E+03  0.00000000000E+00 0.  1.
          5    1    4    4  501    0 -0.45403625054E+02  0.51539507101E+02  0.13412766815E+03  0.15074983822E+03  0.41800000000E+01 0. -1.
         -5    1    4    4    0  501  0.24084517411E+02 -0.43814670626E+02  0.36593090252E+02  0.62099243113E+02  0.41800000000E+01 0. -1.
</event>
<event>
11    1  0.1078607E-008  0.1420034E+03  0.7561462E-02  0.1105342E+00
         22   -1    0    0    0    0  0.00000000000E+00  0.00000000000E+00  0.76210323422E+03  0.76210323422E+03  0.00000000000E+00 0.  1.
         22   -1    0    0    0    0 -0.00000000000E+00 -0.00000000000E+00 -0.18832433142E+03  0.18832433142E+03  0.00000000000E+00 0.  1.
         24    2    1    2    0    0 -0.43382927903E+02  0.16832292100E+01 -0.11092752180E+03  0.14205140019E+03  0.77387166314E+02 0.  0.
         25    2    1    2    0    0  0.93088663980E+02 -0.43494164063E+02  0.55540998278E+02  0.17114202487E+03  0.12509016155E+03 0.  0.
        -24    2    1    2    0    0 -0.49705736077E+02  0.41810934853E+02  0.62916542632E+03  0.63723414058E+03  0.77455805226E+02 0.  0.
        -11    1    3    3    0    0 -0.56089642640E+02  0.24681886278E+02 -0.66452367737E+02  0.90394472727E+02  0.00000000000E+00 0.  1.
         12    1    3    3    0    0  0.12706714736E+02 -0.22998657068E+02 -0.44475154063E+02  0.51656927466E+02  0.00000000000E+00 0. -1.
         11    1    5    5    0    0  0.15453196776E+01  0.47722066067E+02  0.36176954274E+03  0.36490681777E+03  0.00000000000E+00 0. -1.
        -12    1    5    5    0    0 -0.51251055754E+02 -0.59111312135E+01  0.26739588359E+03  0.27232732281E+03  0.00000000000E+00 0.  1.
          5    1    4    4  501    0  0.35437027282E+02  0.43869126122E+02  0.12647310203E+02  0.57945750359E+02  0.41800000000E+01 0. -1.
         -5    1    4    4    0  501  0.57651636698E+02 -0.87363290185E+02  0.42893688076E+02  0.11319627451E+03  0.41800000000E+01 0. -1.
</event>
<event>
11    1  0.1078607E-008  0.1887965E+03  0.7561462E-02  0.1062742E+00
         22   -1    0    0    0    0  0.00000000000E+00  0.00000000000E+00  0.16800750232E+04  0.16800750232E+04  0.00000000000E+00 0.  1.
         22   -1    0    0    0    0 -0.00000000000E+00 -0.00000000000E+00 -0.18513955099E+03  0.18513955099E+03  0.00000000000E+00 0.  1.
         24    2    1    2    0    0 -0.96619238866E+01 -0.62705545330E+02 -0.14278978842E+03  0.17550850276E+03  0.79931049493E+02 0.  0.
         25    2    1    2    0    0 -0.12225426252E+03 -0.67659447628E+01  0.35481524250E+03  0.39564226482E+03  0.12508821964E+03 0.  0.
        -24    2    1    2    0    0  0.13191618641E+03  0.69471490093E+02  0.12829100182E+04  0.12940638066E+04  0.80714637877E+02 0.  0.
        -11    1    3    3    0    0 -0.42950220454E+01  0.14659581110E+02 -0.28825919669E+01  0.15545413123E+02  0.00000000000E+00 0.  1.
         12    1    3    3    0    0 -0.53669018412E+01 -0.77365126440E+02 -0.13990719646E+03  0.15996308963E+03  0.00000000000E+00 0. -1.
         11    1    5    5    0    0  0.56901449570E+00  0.27441611981E+02  0.12547932035E+03  0.12844619761E+03  0.00000000000E+00 0. -1.
        -12    1    5    5    0    0  0.13134717191E+03  0.42029878112E+02  0.11574306978E+04  0.11656176090E+04  0.00000000000E+00 0.  1.
          5    1    4    4  501    0 -0.14295277106E+03  0.12590155991E+02  0.31871341385E+03  0.34955646089E+03  0.41800000000E+01 0. -1.
         -5    1    4    4    0  501  0.20698508543E+02 -0.19356100754E+02  0.36101828648E+02  0.46085803931E+02  0.41800000000E+01 0. -1.
</event>
<event>
11    1  0.1078607E-008  0.1620901E+03  0.7561462E-02  0.1085128E+00
         22   -1    0    0    0    0  0.00000000000E+00  0.00000000000E+00  0.14726921877E+04  0.14726921877E+04  0.00000000000E+00 0.  1.
         22   -1    0    0    0    0 -0.00000000000E+00 -0.00000000000E+00 -0.75700236098E+02  0.75700236098E+02  0.00000000000E+00 0.  1.
         24    2    1    2    0    0 -0.29423816056E+02 -0.10223700660E+03  0.83083685101E+01  0.13437417308E+03  0.81665310468E+02 0.  0.
         25    2    1    2    0    0  0.51715831813E+02  0.65157426886E+02  0.54222480783E+03  0.56265032866E+03  0.12509049754E+03 0.  0.
        -24    2    1    2    0    0 -0.22292015758E+02  0.37079579718E+02  0.84645877528E+03  0.85136792208E+03  0.80393104743E+02 0.  0.
        -13    1    3    3    0    0 -0.16136444857E+02 -0.90405860071E+02 -0.26243441352E+02  0.95510850702E+02  0.00000000000E+00 0.  1.
         14    1    3    3    0    0 -0.13287371199E+02 -0.11831146532E+02  0.34551809863E+02  0.38863322380E+02  0.00000000000E+00 0. -1.
         11    1    5    5    0    0  0.26934132007E+02  0.17233955783E+02  0.18157300729E+03  0.18436706234E+03  0.00000000000E+00 0. -1.
        -12    1    5    5    0    0 -0.49226147765E+02  0.19845623935E+02  0.66488576799E+03  0.66700085974E+03  0.00000000000E+00 0.  1.
          5    1    4    4  501    0 -0.20752788190E+02 -0.22133918945E+02  0.19354832280E+03  0.19595666420E+03  0.41800000000E+01 0.  1.
         -5    1    4    4    0  501  0.72468620003E+02  0.87291345831E+02  0.34867648503E+03  0.36669366446E+03  0.41800000000E+01 0.  1.
</event>
<event>
11    1  0.1078607E-008  0.2301681E+03  0.7561462E-02  0.1035028E+00
         22   -1    0    0    0    0  0.00000000000E+00  0.00000000000E+00  0.15845503012E+04  0.15845503012E+04  0.00000000000E+00 0. -1.
         22   -1    0    0    0    0 -0.00000000000E+00 -0.00000000000E+00 -0.35461676326E+03  0.35461676326E+03  0.00000000000E+00 0. -1.
         24    2    1    2    0    0 -0.92193819363E+02  0.35921841488E+02 -0.24075769061E+03  0.27255785814E+03  0.80829706290E+02 0.  0.
         25    2    1    2    0    0  0.25965214457E+03 -0.11398349486E+03  0.17851710208E+03  0.35766930186E+03  0.12508996952E+03 0.  0.
        -24    2    1    2    0    0 -0.16745832521E+03  0.78061653368E+02  0.12921741265E+04  0.13089399045E+04  0.97333385643E+02 0.  0.
        -11    1    3    3    0    0  0.97159179933E+01 -0.51070847150E+01 -0.42317275988E+01  0.11763880959E+02  0.00000000000E+00 0.  1.
         12    1    3    3    0    0 -0.10190973736E+03  0.41028926203E+02 -0.23652596301E+03  0.26079397718E+03  0.00000000000E+00 0. -1.
         11    1    5    5    0    0 -0.17653782570E+03  0.81993779671E+02  0.11444820575E+04  0.11609167773E+04  0.00000000000E+00 0. -1.
        -12    1    5    5    0    0  0.90795004892E+01 -0.39321263029E+01  0.14769206901E+03  0.14802312723E+03  0.00000000000E+00 0.  1.
          5    1    4    4  501    0  0.22458170769E+03 -0.11902085264E+03  0.10324734387E+03  0.27437272679E+03  0.41800000000E+01 0. -1.
         -5    1    4    4    0  501  0.35070436886E+02  0.50373577794E+01  0.75269758215E+02  0.83296575071E+02  0.41800000000E+01 0. -1.
</event>
<event>
11    1  0.1078607E-008  0.1761152E+03  0.7561462E-02  0.1072829E+00
         22   -1    0    0    0    0  0.00000000000E+00  0.00000000000E+00  0.16788109375E+04  0.16788109375E+04  0.00000000000E+00 0. -1.
         22   -1    0    0    0    0 -0.00000000000E+00 -0.00000000000E+00 -0.16066403116E+04  0.16066403116E+04  0.00000000000E+00 0.  1.
        -24    2    1    2    0    0 -0.12558405808E+03 -0.45078167030E+02 -0.13360391475E+04  0.13451561752E+04  0.81493161370E+02 0.  0.
         25    2    1    2    0    0  0.72006799859E+02  0.37144331628E+02 -0.24361014197E+03  0.28558578883E+03  0.12509460784E+03 0.  0.
         24    2    1    2    0    0  0.53577258223E+02  0.79338354021E+01  0.16518199154E+04  0.16547092851E+04  0.81365329480E+02 0.  0.
        -11    1    5    5    0    0  0.37886645589E+02 -0.34006361035E+02  0.10450247096E+04  0.10462640556E+04  0.00000000000E+00 0.  1.
         12    1    5    5    0    0  0.15690612634E+02  0.41940196437E+02  0.60679520580E+03  0.60844522940E+03  0.00000000000E+00 0. -1.
         13    1    3    3    0    0 -0.57839249606E+02  0.21102667698E+02 -0.54653032075E+03  0.54998735701E+03  0.00000000000E+00 0. -1.
        -14    1    3    3    0    0 -0.67744808475E+02 -0.66180834728E+02 -0.78950882673E+03  0.79516881820E+03  0.00000000000E+00 0.  1.
          5    1    4    4  501    0 -0.18821144884E+02  0.50591280190E+02 -0.11907415785E+03  0.13080458934E+03  0.41800000000E+01 0. -1.
         -5    1    4    4    0  501  0.90827944742E+02 -0.13446948562E+02 -0.12453598412E+03  0.15478119948E+03  0.41800000000E+01 0. -1.
</event>
<event>
11    1  0.1078607E-008  0.2013567E+03  0.7561462E-02  0.1053568E+00
         22   -1    0    0    0    0  0.00000000000E+00  0.00000000000E+00  0.11899874339E+03  0.11899874339E+03  0.00000000000E+00 0. -1.
         22   -1    0    0    0    0 -0.00000000000E+00 -0.00000000000E+00 -0.50751144331E+03  0.50751144331E+03  0.00000000000E+00 0. -1.
         24    2    1    2    0    0  0.12687903684E+03  0.95191624124E+02 -0.26481641173E+03  0.31872974148E+03  0.79379977880E+02 0.  0.
         25    2    1    2    0    0 -0.12956566327E+03 -0.86961768177E+02 -0.10276487531E+03  0.22485348540E+03  0.12509540389E+03 0.  0.
        -24    2    1    2    0    0  0.26866264355E+01 -0.82298559476E+01 -0.20931412883E+02  0.82926959832E+02  0.79773480125E+02 0.  0.
        -11    1    3    3    0    0  0.99956240622E+01  0.49790192588E+02 -0.93859135699E+02  0.10671697678E+03  0.00000000000E+00 0.  1.
         12    1    3    3    0    0  0.11688341278E+03  0.45401431536E+02 -0.17095727603E+03  0.21201276470E+03  0.00000000000E+00 0. -1.
         11    1    5    5    0    0 -0.24132906026E+02 -0.41481896875E+01 -0.41973831528E+02  0.48594312055E+02  0.00000000000E+00 0. -1.
        -12    1    5    5    0    0  0.26819532461E+02 -0.40816662600E+01  0.21042418646E+02  0.34332647777E+02  0.00000000000E+00 0.  1.
          5    1    4    4  501    0 -0.28769217169E+02  0.27442205399E+02  0.16426284224E+01  0.40011412395E+02  0.41800000000E+01 0. -1.
         -5    1    4    4    0  501 -0.10079644611E+03 -0.11440397358E+03 -0.10440750373E+03  0.18484207301E+03  0.41800000000E+01 0. -1.
</event>
<event>
11    1  0.1078607E-008  0.1899975E+03  0.7561462E-02  0.1061831E+00
         22   -1    0    0    0    0  0.00000000000E+00  0.00000000000E+00  0.10337909814E+03  0.10337909814E+03  0.00000000000E+00 0.  1.
         22   -1    0    0    0    0 -0.00000000000E+00 -0.00000000000E+00 -0.19936812974E+04  0.19936812974E+04  0.00000000000E+00 0. -1.
         24    2    1    2    0    0 -0.95386737873E+02  0.11515535268E+03 -0.17861568243E+04  0.17943097677E+04  0.82655649990E+02 0.  0.
         25    2    1    2    0    0  0.25540376300E+02 -0.84196371064E+02 -0.11367460421E+03  0.19055318410E+03  0.12508901074E+03 0.  0.
        -24    2    1    2    0    0  0.69846361574E+02 -0.30958981618E+02  0.95292292056E+01  0.11219744378E+03  0.81611809277E+02 0.  0.
        -13    1    3    3    0    0 -0.18021017707E+02 -0.15455481601E+00 -0.56433007068E+03  0.56461775534E+03  0.00000000000E+00 0.  1.
         14    1    3    3    0    0 -0.77365720166E+02  0.11530990750E+03 -0.12218267536E+04  0.12296920123E+04  0.00000000000E+00 0. -1.
         13    1    5    5    0    0 -0.59041693760E+01 -0.38539518719E+01 -0.24016540217E+02  0.25030109170E+02  0.00000000000E+00 0. -1.
        -14    1    5    5    0    0  0.75750530950E+02 -0.27105029746E+02  0.33545769423E+02  0.87167334609E+02  0.00000000000E+00 0.  1.
          5    1    4    4  501    0 -0.55853218884E+01 -0.36862525074E+02  0.21982752398E+02  0.43482817048E+02  0.41800000000E+01 0. -1.
         -5    1    4    4    0  501  0.31125698188E+02 -0.47333845991E+02 -0.13565735661E+03  0.14707036705E+03  0.41800000000E+01 0. -1.
</event>
<event>
11    1  0.1078607E-008  0.1369504E+03  0.7561462E-02  0.1111012E+00
         22   -1    0    0    0    0  0.00000000000E+00  0.00000000000E+00  0.25895625556E+04  0.25895625556E+04  0.00000000000E+00 0. -1.
         22   -1    0    0    0    0 -0.00000000000E+00 -0.00000000000E+00 -0.35056325638E+03  0.35056325638E+03  0.00000000000E+00 0. -1.
         24    2    1    2    0    0  0.27012042733E+02  0.48724904171E+02 -0.33553148761E+03  0.34932895975E+03  0.79659125006E+02 0.  0.
         25    2    1    2    0    0 -0.33440799399E+02 -0.50296471011E+02  0.65549929772E+03  0.67005509740E+03  0.12508589919E+03 0.  0.
        -24    2    1    2    0    0  0.64287566659E+01  0.15715668401E+01  0.19190314892E+04  0.19207417549E+04  0.80766538938E+02 0.  0.
        -13    1    3    3    0    0 -0.21715604006E+02 -0.60467423229E+01 -0.10616503093E+03  0.10853176651E+03  0.00000000000E+00 0.  1.
         14    1    3    3    0    0  0.48727646739E+02  0.54771646494E+02 -0.22936645669E+03  0.24079719323E+03  0.00000000000E+00 0. -1.
         11    1    5    5    0    0  0.39887780960E+02 -0.14996191162E+02  0.11776257148E+04  0.11783964719E+04  0.00000000000E+00 0. -1.
        -12    1    5    5    0    0 -0.33459024294E+02  0.16567758002E+02  0.74140577439E+03  0.74234528301E+03  0.00000000000E+00 0.  1.
          5    1    4    4  501    0 -0.72999718713E+02 -0.11165096061E+01  0.28722079019E+03  0.29638397434E+03  0.41800000000E+01 0. -1.
         -5    1    4    4    0  501  0.39558919315E+02 -0.49179961405E+02  0.36827850753E+03  0.37367112306E+03  0.41800000000E+01 0. -1.
</event>
<event>
11    1  0.1078607E-008  0.5323704E+03  0.7561462E-02  0.9323962E-01
         22   -1    0    0    0    0  0.00000000000E+00  0.00000000000E+00  0.66036715837E+03  0.66036715837E+03  0.00000000000E+00 0. -1.
         22   -1    0    0    0    0 -0.00000000000E+00 -0.00000000000E+00 -0.11352684038E+04  0.11352684038E+04  0.00000000000E+00 0. -1.
        -24    2    1    2    0    0 -0.79042268375E+02  0.43903439829E+03 -0.41048095590E+03  0.61160811744E+03  0.81061649965E+02 0.  0.
         25    2    1    2    0    0 -0.46724418023E+03 -0.27298706214E+03 -0.20179385604E+03  0.59093717636E+03  0.12508767331E+03 0.  0.
         24    2    1    2    0    0  0.54628644861E+03 -0.16604733616E+03  0.13737356655E+03  0.59309026832E+03  0.82969680061E+02 0.  0.
        -11    1    5    5    0    0  0.14134232470E+02  0.37022916872E+01 -0.69442316321E+01  0.16177325002E+02  0.00000000000E+00 0.  1.
         12    1    5    5    0    0  0.53215221614E+03 -0.16974962784E+03  0.14431779818E+03  0.57691294332E+03  0.00000000000E+00 0. -1.
         11    1    3    3    0    0 -0.81140002768E+02  0.24644527973E+03 -0.21219147993E+03  0.33517786339E+03  0.00000000000E+00 0. -1.
        -12    1    3    3    0    0  0.20977343925E+01  0.19258911856E+03 -0.19828947596E+03  0.27643025405E+03  0.00000000000E+00 0.  1.
          5    1    4    4  501    0 -0.41793235375E+03 -0.22218196546E+03 -0.13192780021E+03  0.49138039740E+03  0.41800000000E+01 0.  1.
         -5    1    4    4    0  501 -0.49311826488E+02 -0.50805096681E+02 -0.69866055822E+02  0.99556778958E+02  0.41800000000E+01 0.  1.
</event>
<event>
11    1  0.1078607E-008  0.1876992E+03  0.7561462E-02  0.1063580E+00
         22   -1    0    0    0    0  0.00000000000E+00  0.00000000000E+00  0.16386585333E+03  0.16386585333E+03  0.00000000000E+00 0.  1.
         22   -1    0    0    0    0 -0.00000000000E+00 -0.00000000000E+00 -0.33281385364E+04  0.33281385364E+04  0.00000000000E+00 0. -1.
        -24    2    1    2    0    0  0.13351990714E+03  0.75321443926E+02 -0.24434421504E+04  0.24497691086E+04  0.86361205975E+02 0.  0.
         25    2    1    2    0    0 -0.47407364391E+02 -0.11300273925E+03 -0.84768192693E+03  0.86558200030E+03  0.12510184945E+03 0.  0.
         24    2    1    2    0    0 -0.86112542747E+02  0.37681295327E+02  0.12685139425E+03  0.17665328077E+03  0.79245538337E+02 0.  0.
        -13    1    5    5    0    0 -0.53836009716E+02  0.53052737800E+02  0.46588029525E+02  0.88788250491E+02  0.00000000000E+00 0.  1.
         14    1    5    5    0    0 -0.32276533031E+02 -0.15371442473E+02  0.80263364726E+02  0.87865030276E+02  0.00000000000E+00 0. -1.
         13    1    3    3    0    0  0.32903247130E+02  0.55301329111E+02 -0.13475697122E+04  0.13491052553E+04  0.00000000000E+00 0. -1.
        -14    1    3    3    0    0  0.10061666001E+03  0.20020114815E+02 -0.10958724381E+04  0.11006638533E+04  0.00000000000E+00 0.  1.
          5    1    4    4  501    0  0.13909741294E+02  0.21817116269E+02 -0.15852983124E+03  0.16068181993E+03  0.41800000000E+01 0.  1.
         -5    1    4    4    0  501 -0.61317105685E+02 -0.13481985552E+03 -0.68915209569E+03  0.70490018037E+03  0.41800000000E+01 0.  1.
</event>
<event>
11    1  0.1078607E-008  0.1720753E+03  0.7561462E-02  0.1076240E+00
         22   -1    0    0    0    0  0.00000000000E+00  0.00000000000E+00  0.82282768405E+03  0.82282768405E+03  0.00000000000E+00 0.  1.
         22   -1    0    0    0    0 -0.00000000000E+00 -0.00000000000E+00 -0.55220583589E+03  0.55220583589E+03  0.00000000000E+00 0. -1.
         24    2    1    2    0    0 -0.57722308742E+02 -0.95693131728E+02 -0.42381746008E+03  0.44556912661E+03  0.80134678721E+02 0.  0.
         25    2    1    2    0    0  0.51960697072E+02  0.18788142965E+03  0.76957968600E+01  0.23174625255E+03  0.12509098543E+03 0.  0.
        -24    2    1    2    0    0  0.57616116700E+01 -0.92188297920E+02  0.68674351138E+03  0.69771814078E+03  0.81621535790E+02 0.  0.
        -11    1    3    3    0    0 -0.12316266574E+02  0.84953282748E+01 -0.14762384773E+02  0.21018778009E+02  0.00000000000E+00 0.  1.
         12    1    3    3    0    0 -0.45406042168E+02 -0.10418846000E+03 -0.40905507531E+03  0.42455034860E+03  0.00000000000E+00 0. -1.
         11    1    5    5    0    0  0.36092626401E+02 -0.17451510217E+02  0.16644912615E+03  0.17120906660E+03  0.00000000000E+00 0. -1.
        -12    1    5    5    0    0 -0.30331014731E+02 -0.74736787703E+02  0.52029438523E+03  0.52650907418E+03  0.00000000000E+00 0.  1.
          5    1    4    4  501    0 -0.15558227015E+02  0.13595174641E+02 -0.34181603388E+02  0.40158954313E+02  0.41800000000E+01 0. -1.
         -5    1    4    4    0  501  0.67518924087E+02  0.17428625501E+03  0.41877400248E+02  0.19158729824E+03  0.41800000000E+01 0. -1.
</event>
<event>
11    1  0.1078607E-008  0.1604430E+03  0.7561462E-02  0.1086661E+00
         22   -1    0    0    0    0  0.00000000000E+00  0.00000000000E+00  0.21959108045E+03  0.21959108045E+03  0.00000000000E+00 0.  1.
         22   -1    0    0    0    0 -0.00000000000E+00 -0.00000000000E+00 -0.55471189641E+03  0.55471189641E+03  0.00000000000E+00 0.  1.
         24    2    1    2    0    0  0.98752680641E+02  0.14570133906E+02 -0.43510036234E+03  0.45388689189E+03  0.82076821270E+02 0.  0.
         25    2    1    2    0    0 -0.11409848260E+03  0.57988036866E+02  0.67027044467E+01  0.17908947790E+03  0.12508812373E+03 0.  0.
        -24    2    1    2    0    0  0.15345801957E+02 -0.72558170772E+02  0.93276841932E+02  0.14132660707E+03  0.75976699330E+02 0.  0.
        -13    1    3    3    0    0  0.29709623360E+02 -0.12796112584E+02 -0.28064752550E+03  0.28250563850E+03  0.00000000000E+00 0.  1.
         14    1    3    3    0    0  0.69043057281E+02  0.27366246490E+02 -0.15445283684E+03  0.17138125339E+03  0.00000000000E+00 0. -1.
         11    1    5    5    0    0 -0.25269347580E+02 -0.78088007629E+01  0.40763287282E+02  0.48591798552E+02  0.00000000000E+00 0. -1.
        -12    1    5    5    0    0  0.40615149537E+02 -0.64749370009E+02  0.52513554650E+02  0.92734808516E+02  0.00000000000E+00 0.  1.
          5    1    4    4  501    0 -0.46361197063E+02  0.25069151786E+02  0.64979139973E+02  0.83771021218E+02  0.41800000000E+01 0.  1.
         -5    1    4    4    0  501 -0.67737285536E+02  0.32918885080E+02 -0.58276435526E+02  0.95318456682E+02  0.41800000000E+01 0.  1.
</event>
<event>
11    1  0.1078607E-008  0.1420923E+03  0.7561462E-02  0.1105244E+00
         22   -1    0    0    0    0  0.00000000000E+00  0.00000000000E+00  0.45070257787E+03  0.45070257787E+03  0.00000000000E+00 0.  1.
         22   -1    0    0    0    0 -0.00000000000E+00 -0.00000000000E+00 -0.37820786121E+03  0.37820786121E+03  0.00000000000E+00 0.  1.
         24    2    1    2    0    0 -0.29899821591E+02  0.16508451401E+02 -0.33705657073E+03  0.34849599418E+03  0.81705555463E+02 0.  0.
         25    2    1    2    0    0 -0.14942305825E+02  0.47329399584E+02  0.17440780208E+03  0.22029251853E+03  0.12508943890E+03 0.  0.
        -24    2    1    2    0    0  0.44842127416E+02 -0.63837850986E+02  0.23514348531E+03  0.26012192636E+03  0.79277173780E+02 0.  0.
        -13    1    3    3    0    0 -0.39862901333E+02 -0.34838294153E+01 -0.31345968762E+03  0.31600342361E+03  0.00000000000E+00 0.  1.
         14    1    3    3    0    0  0.99630797418E+01  0.19992280817E+02 -0.23596883106E+02  0.32492570574E+02  0.00000000000E+00 0. -1.
         13    1    5    5    0    0 -0.22867640881E+02 -0.17317034518E+02  0.70783215198E+02  0.76374552291E+02  0.00000000000E+00 0. -1.
        -14    1    5    5    0    0  0.67709768297E+02 -0.46520816467E+02  0.16436027011E+03  0.18374737407E+03  0.00000000000E+00 0.  1.
          5    1    4    4  501    0 -0.70025570360E+01 -0.24547121686E+02 -0.54168538523E+01  0.26427479898E+02  0.41800000000E+01 0. -1.
         -5    1    4    4    0  501 -0.79397487890E+01  0.71876521270E+02  0.17982465594E+03  0.19386503863E+03  0.41800000000E+01 0. -1.
</event>
<event>
11    1  0.1078607E-008  0.2153814E+03  0.7561462E-02  0.1044150E+00
         22   -1    0    0    0    0  0.00000000000E+00  0.00000000000E+00  0.76432957473E+03  0.76432957473E+03  0.00000000000E+00 0. -1.
         22   -1    0    0    0    0 -0.00000000000E+00 -0.00000000000E+00 -0.35761539594E+03  0.35761539594E+03  0.00000000000E+00 0. -1.
        -24    2    1    2    0    0 -0.10114917853E+03 -0.38135073977E+02 -0.25038000319E+03  0.28424207118E+03  0.80112226580E+02 0.  0.
         25    2    1    2    0    0  0.79175612837E+02 -0.14418055363E+03  0.71006248259E+02  0.21849128166E+03  0.12505895873E+03 0.  0.
         24    2    1    2    0    0  0.21973565692E+02  0.18231562760E+03  0.58608793371E+03  0.61921161782E+03  0.78753640831E+02 0.  0.
        -11    1    5    5    0    0 -0.10928704237E+02  0.12730814386E+03  0.30083914508E+03  0.32685010522E+03  0.00000000000E+00 0.  1.
         12    1    5    5    0    0  0.32902269929E+02  0.55007483741E+02  0.28524878864E+03  0.29236151261E+03  0.00000000000E+00 0. -1.
         13    1    3    3    0    0 -0.90652139173E+02  0.32768237287E+01 -0.15240603393E+03  0.17735880888E+03  0.00000000000E+00 0. -1.
        -14    1    3    3    0    0 -0.10497039356E+02 -0.41411897705E+02 -0.97973969259E+02  0.10688326230E+03  0.00000000000E+00 0.  1.
          5    1    4    4  501    0  0.56285141536E+02 -0.80402035482E+02 -0.24566463614E+02  0.10125950820E+03  0.41800000000E+01 0.  1.
         -5    1    4    4    0  501  0.22890471302E+02 -0.63778518146E+02  0.95572711874E+02  0.11723177346E+03  0.41800000000E+01 0.  1.
</event>
<event>
11    1  0.1078607E-008  0.1392983E+03  0.7561462E-02  0.1108345E+00
         22   -1    0    0    0    0  0.00000000000E+00  0.00000000000E+00  0.10065071357E+03  0.10065071357E+03  0.00000000000E+00 0.  1.
         22   -1    0    0    0    0 -0.00000000000E+00 -0.00000000000E+00 -0.91280228739E+03  0.91280228739E+03  0.00000000000E+00 0.  1.
         24    2    1    2    0    0  0.19720806944E+02  0.35606533515E+02 -0.46004514875E+03  0.47022406139E+03  0.88387745543E+02 0.  0.
         25    2    1    2    0    0  0.35220306745E+02 -0.62909994417E+02 -0.39904123662E+03  0.42435744126E+03  0.12508873662E+03 0.  0.
        -24    2    1    2    0    0 -0.54941113688E+02  0.27303460901E+02  0.46934811548E+02  0.11887149831E+03  0.90352374764E+02 0.  0.
        -13    1    3    3    0    0  0.19526052467E-01  0.18896564208E+02 -0.43075496727E+03  0.43116925023E+03  0.00000000000E+00 0.  1.
         14    1    3    3    0    0  0.19701280891E+02  0.16709969307E+02 -0.29290181484E+02  0.39054811155E+02  0.00000000000E+00 0. -1.
         13    1    5    5    0    0 -0.69094672442E+02  0.42065046187E+02  0.17066603996E+02  0.82672914806E+02  0.00000000000E+00 0. -1.
        -14    1    5    5    0    0  0.14153558754E+02 -0.14761585286E+02  0.29868207552E+02  0.36198583507E+02  0.00000000000E+00 0.  1.
          5    1    4    4  501    0  0.54820064074E+02  0.18638064788E+02 -0.20180615194E+03  0.20999002892E+03  0.41800000000E+01 0. -1.
         -5    1    4    4    0  501 -0.19599757329E+02 -0.81548059204E+02 -0.19723508468E+03  0.21436741235E+03  0.41800000000E+01 0. -1.
</event>
<event>
11    1  0.1078607E-008  0.1412611E+03  0.7561462E-02  0.1106158E+00
         22   -1    0    0    0    0  0.00000000000E+00  0.00000000000E+00  0.17149689147E+03  0.17149689147E+03  0.00000000000E+00 0.  1.
         22   -1    0    0    0    0 -0.00000000000E+00 -0.00000000000E+00 -0.46354831124E+03  0.46354831124E+03  0.00000000000E+00 0. -1.
         24    2    1    2    0    0 -0.57567701647E+02 -0.24042441657E+02 -0.29315164933E+03  0.31054002146E+03  0.81271988710E+02 0.  0.
         25    2    1    2    0    0  0.71170196661E+02  0.35895078522E+02 -0.11039291634E+03  0.18489732209E+03  0.12508705042E+03 0.  0.
        -24    2    1    2    0    0 -0.13602495013E+02 -0.11852636864E+02  0.11149314590E+03  0.13960785916E+03  0.82061683419E+02 0.  0.
        -11    1    3    3    0    0 -0.54499809050E+01 -0.45481444184E+01  0.40511061830E+01  0.81730882059E+01  0.00000000000E+00 0.  1.
         12    1    3    3    0    0 -0.52117720742E+02 -0.19494297239E+02 -0.29720275551E+03  0.30236693325E+03  0.00000000000E+00 0. -1.
         11    1    5    5    0    0  0.28234378146E+02 -0.25724765454E+02  0.66058808515E+02  0.76306682862E+02  0.00000000000E+00 0. -1.
        -12    1    5    5    0    0 -0.41836873159E+02  0.13872128589E+02  0.45434337389E+02  0.63301176302E+02  0.00000000000E+00 0.  1.
          5    1    4    4  501    0  0.44278864547E+02  0.49821144221E+02  0.35945533179E+01  0.66881667672E+02  0.41800000000E+01 0. -1.
         -5    1    4    4    0  501  0.26891332114E+02 -0.13926065700E+02 -0.11398746966E+03  0.11801565442E+03  0.41800000000E+01 0. -1.
</event>
<event>
11    1  0.1078607E-008  0.1518138E+03  0.7561462E-02  0.1095040E+00
         22   -1    0    0    0    0  0.00000000000E+00  0.00000000000E+00  0.52391324568E+03  0.52391324568E+03  0.00000000000E+00 0. -1.
         22   -1    0    0    0    0 -0.00000000000E+00 -0.00000000000E+00 -0.11167669076E+04  0.11167669076E+04  0.00000000000E+00 0. -1.
        -24    2    1    2    0    0  0.58011673382E+02  0.63325709535E+02 -0.10807151484E+04  0.10871135975E+04  0.80593065206E+02 0.  0.
         25    2    1    2    0    0 -0.99255860730E+02 -0.45490054085E+02  0.30131374102E+03  0.34403195680E+03  0.12508775264E+03 0.  0.
         24    2    1    2    0    0  0.41244187348E+02 -0.17835655450E+02  0.18654774547E+03  0.20953459897E+03  0.84175371884E+02 0.  0.
        -11    1    5    5    0    0  0.31057274643E+02 -0.17762314413E+02  0.16877613408E+02  0.39558917527E+02  0.00000000000E+00 0.  1.
         12    1    5    5    0    0  0.10186912705E+02 -0.73341037044E-01  0.16967013206E+03  0.16997568144E+03  0.00000000000E+00 0. -1.
         11    1    3    3    0    0  0.23585738474E+01 -0.75724972290E+01 -0.44191076891E+03  0.44198193771E+03  0.00000000000E+00 0. -1.
        -12    1    3    3    0    0  0.55653099535E+02  0.70898206764E+02 -0.63880437951E+03  0.64513165981E+03  0.00000000000E+00 0.  1.
          5    1    4    4  501    0 -0.10007084752E+02  0.37949389488E+02  0.11128218376E+03  0.11807410695E+03  0.41800000000E+01 0.  1.
         -5    1    4    4    0  501 -0.89248775979E+02 -0.83439443572E+02  0.19003155726E+03  0.22595784985E+03  0.41800000000E+01 0.  1.
</event>
<event>
11    1  0.1078607E-008  0.1678491E+03  0.7561462E-02  0.1079919E+00
         22   -1    0    0    0    0  0.00000000000E+00  0.00000000000E+00  0.38433092642E+03  0.38433092642E+03  0.00000000000E+00 0.  1.
         22   -1    0    0    0    0 -0.00000000000E+00 -0.00000000000E+00 -0.65455780641E+03  0.65455780641E+03  0.00000000000E+00 0.  1.
        -24    2    1    2    0    0  0.11308000157E+03 -0.12109483106E+02 -0.60193622231E+03  0.61784062172E+03  0.80412012703E+02 0.  0.
         25    2    1    2    0    0 -0.78430261725E+02 -0.10173782983E+02  0.11893117183E+03  0.18985584337E+03  0.12508319557E+03 0.  0.
         24    2    1    2    0    0 -0.34649739845E+02  0.22283266089E+02  0.21277817049E+03  0.23119226774E+03  0.80487057384E+02 0.  0.
        -13    1    5    5    0    0 -0.26385433291E+01 -0.14175894594E+02  0.15532776824E+03  0.15599562009E+03  0.00000000000E+00 0.  1.
         14    1    5    5    0    0 -0.32011196516E+02  0.36459160683E+02  0.57450402249E+02  0.75196647656E+02  0.00000000000E+00 0. -1.
         13    1    3    3    0    0  0.39770553355E+02 -0.38352324080E+02 -0.16456035961E+03  0.17358775773E+03  0.00000000000E+00 0. -1.
        -14    1    3    3    0    0  0.73309448215E+02  0.26242840974E+02 -0.43737586269E+03  0.44425286400E+03  0.00000000000E+00 0.  1.
          5    1    4    4  501    0 -0.60728922051E+02 -0.64381249585E+02  0.87870787317E+02  0.12478659758E+03  0.41800000000E+01 0. -1.
         -5    1    4    4    0  501 -0.17701339673E+02  0.54207466602E+02  0.31060384510E+02  0.65069245789E+02  0.41800000000E+01 0. -1.
</event>
<event>
11    1  0.1078607E-008  0.1896658E+03  0.7561462E-02  0.1062082E+00
         22   -1    0    0    0    0  0.00000000000E+00  0.00000000000E+00  0.64499605490E+03  0.64499605490E+03  0.00000000000E+00 0.  1.
         22   -1    0    0    0    0 -0.00000000000E+00 -0.00000000000E+00 -0.93577828815E+03  0.93577828815E+03  0.00000000000E+00 0. -1.
         24    2    1    2    0    0 -0.51143906313E+02  0.13845698958E+02 -0.83079470952E+03  0.83768977101E+03  0.93257174278E+02 0.  0.
         25    2    1    2    0    0  0.16588520726E+03 -0.87328111876E+02  0.53998175378E+02  0.23174741204E+03  0.12508780489E+03 0.  0.
        -24    2    1    2    0    0 -0.11474130095E+03  0.73482412919E+02  0.48601430089E+03  0.51133716000E+03  0.81795839568E+02 0.  0.
        -11    1    3    3    0    0 -0.42282944058E+02 -0.11671520230E+02 -0.14806129435E+03  0.15442220898E+03  0.00000000000E+00 0.  1.
         12    1    3    3    0    0 -0.88609622551E+01  0.25517219187E+02 -0.68273341517E+03  0.68326756203E+03  0.00000000000E+00 0. -1.
         11    1    5    5    0    0 -0.10009957850E+03  0.42314665888E+02  0.24694396925E+03  0.26979951911E+03  0.00000000000E+00 0. -1.
        -12    1    5    5    0    0 -0.14641722442E+02  0.31167747031E+02  0.23907033165E+03  0.24153764088E+03  0.00000000000E+00 0.  1.
          5    1    4    4  501    0  0.22778124114E+02 -0.72964395002E+02  0.42112812000E+02  0.87370516827E+02  0.41800000000E+01 0. -1.
         -5    1    4    4    0  501  0.14310708314E+03 -0.14363716875E+02  0.11885363378E+02  0.14437689521E+03  0.41800000000E+01 0. -1.
</event>
<event>
11    1  0.1078607E-008  0.1329266E+03  0.7561462E-02  0.1115725E+00
         22   -1    0    0    0    0  0.00000000000E+00  0.00000000000E+00  0.73637928067E+03  0.73637928067E+03  0.00000000000E+00 0. -1.
         22   -1    0    0    0    0 -0.00000000000E+00 -0.00000000000E+00 -0.69983797826E+03  0.69983797826E+03  0.00000000000E+00 0. -1.
         24    2    1    2    0    0  0.52490239903E+02  0.15670767787E+02 -0.62752497444E+03  0.63494153178E+03  0.79764384175E+02 0.  0.
         25    2    1    2    0    0 -0.44232992302E+02  0.29953554752E+02  0.73028707409E+01  0.13621575883E+03  0.12509047918E+03 0.  0.
        -24    2    1    2    0    0 -0.82572476007E+01 -0.45624322540E+02  0.65676340611E+03  0.66505996833E+03  0.93897970772E+02 0.  0.
        -13    1    3    3    0    0  0.15492717762E+02  0.16412660682E+02 -0.37577091651E+02  0.43834205265E+02  0.00000000000E+00 0.  1.
         14    1    3    3    0    0  0.36997522140E+02 -0.74189289426E+00 -0.58994788279E+03  0.59110732651E+03  0.00000000000E+00 0. -1.
         13    1    5    5    0    0  0.30192752071E+02  0.96036591459E-01  0.41226893410E+03  0.41337305854E+03  0.00000000000E+00 0. -1.
        -14    1    5    5    0    0 -0.38449999672E+02 -0.45720359131E+02  0.24449447201E+03  0.25168690979E+03  0.00000000000E+00 0.  1.
          5    1    4    4  501    0  0.15578764810E+02 -0.40093353688E+02  0.83037464091E+01  0.44006812284E+02  0.41800000000E+01 0. -1.
         -5    1    4    4    0  501 -0.59811757112E+02  0.70046908440E+02 -0.10008756683E+01  0.92208946545E+02  0.41800000000E+01 0. -1.
</event>
<event>
11    1  0.1078607E-008  0.1361585E+03  0.7561462E-02  0.1111926E+00
         22   -1    0    0    0    0  0.00000000000E+00  0.00000000000E+00  0.37100545470E+03  0.37100545470E+03  0.00000000000E+00 0. -1.
         22   -1    0    0    0    0 -0.00000000000E+00 -0.00000000000E+00 -0.32353181736E+03  0.32353181736E+03  0.00000000000E+00 0.  1.
         24    2    1    2    0    0  0.53442231588E+02 -0.73008974598E+01 -0.21838069639E+03  0.24137885439E+03  0.87545688496E+02 0.  0.
         25    2    1    2    0    0 -0.53736611473E+02 -0.40489052863E+01 -0.35850752156E+02  0.14085103813E+03  0.12509884678E+03 0.  0.
        -24    2    1    2    0    0  0.29437988514E+00  0.11349802746E+02  0.30170508589E+03  0.31230737954E+03  0.79881385707E+02 0.  0.
        -11    1    3    3    0    0  0.32830046120E+02 -0.41556187957E+02 -0.17287986681E+03  0.18080978135E+03  0.00000000000E+00 0.  1.
         12    1    3    3    0    0  0.20612185468E+02  0.34255290497E+02 -0.45500829580E+02  0.60569073043E+02  0.00000000000E+00 0. -1.
         13    1    5    5    0    0  0.22313110810E+02  0.17676895197E+02  0.27758660293E+03  0.27904241553E+03  0.00000000000E+00 0. -1.
        -14    1    5    5    0    0 -0.22018730924E+02 -0.63270924506E+01  0.24118482954E+02  0.33264964007E+02  0.00000000000E+00 0.  1.
          5    1    4    4  501    0 -0.86120155626E+02  0.45336783473E+01 -0.54675215975E+02  0.10219631640E+03  0.41800000000E+01 0. -1.
         -5    1    4    4    0  501  0.32383544153E+02 -0.85825836335E+01  0.18824463819E+02  0.38654721727E+02  0.41800000000E+01 0. -1.
</event>
<event>
11    1  0.1078607E-008  0.1319759E+03  0.7561462E-02  0.1116865E+00
         22   -1    0    0    0    0  0.00000000000E+00  0.00000000000E+00  0.16500909939E+03  0.16500909939E+03  0.00000000000E+00 0. -1.
         22   -1    0    0    0    0 -0.00000000000E+00 -0.00000000000E+00 -0.72599308859E+03  0.72599308859E+03  0.00000000000E+00 0. -1.
         24    2    1    2    0    0  0.20566953086E+02  0.53881063595E+02 -0.27453710544E+03  0.29205105713E+03  0.81222097591E+02 0.  0.
         25    2    1    2    0    0 -0.53300710220E+02 -0.76832329227E+02 -0.40903802721E+03  0.43783920063E+03  0.12508751088E+03 0.  0.
        -24    2    1    2    0    0  0.32733757134E+02  0.22951265632E+02  0.12259114345E+03  0.16111193022E+03  0.96592992271E+02 0.  0.
        -13    1    3    3    0    0  0.72543421746E+00 -0.19759849405E+02 -0.94146045353E+02  0.96200081907E+02  0.00000000000E+00 0.  1.
         14    1    3    3    0    0  0.19841518869E+02  0.73640913000E+02 -0.18039106008E+03  0.19585097523E+03  0.00000000000E+00 0. -1.
         11    1    5    5    0    0  0.61324126474E+02  0.38086452009E+02  0.84315164360E+02  0.11099672633E+03  0.00000000000E+00 0. -1.
        -12    1    5    5    0    0 -0.28590369339E+02 -0.15135186377E+02  0.38275979088E+02  0.50115203888E+02  0.00000000000E+00 0.  1.
          5    1    4    4  501    0 -0.57105328873E+02 -0.11355249246E+01 -0.29724040726E+03  0.30270718543E+03  0.41800000000E+01 0. -1.
         -5    1    4    4    0  501  0.38046186530E+01 -0.75696804303E+02 -0.11179761995E+03  0.13513201520E+03  0.41800000000E+01 0. -1.
</event>
<event>
11    1  0.1078607E-008  0.1275009E+03  0.7561462E-02  0.1122378E+00
         22   -1    0    0    0    0  0.00000000000E+00  0.00000000000E+00  0.94536662825E+03  0.94536662825E+03  0.00000000000E+00 0.  1.
         22   -1    0    0    0    0 -0.00000000000E+00 -0.00000000000E+00 -0.13322990208E+03  0.13322990208E+03  0.00000000000E+00 0. -1.
        -24    2    1    2    0    0 -0.26770813916E+02  0.89737262890E+01 -0.73016409668E+02  0.11309688167E+03  0.81622939924E+02 0.  0.
         25    2    1    2    0    0  0.10955815451E+02  0.19712649886E+02  0.68659767648E+02  0.14446694574E+03  0.12509163146E+03 0.  0.
         24    2    1    2    0    0  0.15814998465E+02 -0.28686376175E+02  0.81649336819E+03  0.82103270291E+03  0.79751216955E+02 0.  0.
        -11    1    5    5    0    0 -0.16333432770E+02 -0.32502639548E+02  0.67080985855E+03  0.67179540705E+03  0.00000000000E+00 0.  1.
         12    1    5    5    0    0  0.32148431234E+02  0.38162633739E+01  0.14568350964E+03  0.14923729586E+03  0.00000000000E+00 0. -1.
         11    1    3    3    0    0 -0.44350377331E+02 -0.52774265670E+01 -0.78038781103E+02  0.89915841522E+02  0.00000000000E+00 0. -1.
        -12    1    3    3    0    0  0.17579563415E+02  0.14251152856E+02  0.50223714347E+01  0.23181040150E+02  0.00000000000E+00 0.  1.
          5    1    4    4  501    0 -0.69143434072E+01  0.21356686256E+02 -0.33564596256E+02  0.40595205559E+02  0.41800000000E+01 0. -1.
         -5    1    4    4    0  501  0.17870158859E+02 -0.16440363699E+01  0.10222436390E+03  0.10387174018E+03  0.41800000000E+01 0. -1.
</event>
<event>
11    1  0.1078607E-008  0.4564020E+03  0.7561462E-02  0.9496593E-01
         22   -1    0    0    0    0  0.00000000000E+00  0.00000000000E+00  0.25551527714E+04  0.25551527714E+04  0.00000000000E+00 0. -1.
         22   -1    0    0    0    0 -0.00000000000E+00 -0.00000000000E+00 -0.22393135129E+03  0.22393135129E+03  0.00000000000E+00 0. -1.
        -24    2    1    2    0    0 -0.19366049424E+03 -0.38977911285E+03  0.93540204970E+02  0.45238027089E+03  0.80411415257E+02 0.  0.
         25    2    1    2    0    0  0.17874456140E+03  0.42110974693E+03  0.12809945824E+04  0.13659712074E+04  0.12508869786E+03 0.  0.
         24    2    1    2    0    0  0.14915932839E+02 -0.31330634084E+02  0.95668663279E+03  0.96073264438E+03  0.80955586166E+02 0.  0.
        -11    1    5    5    0    0  0.66089037614E+01 -0.50140301227E+02  0.34367175084E+03  0.34737299800E+03  0.00000000000E+00 0.  1.
         12    1    5    5    0    0  0.83070290778E+01  0.18809667143E+02  0.61301488196E+03  0.61335964638E+03  0.00000000000E+00 0. -1.
         11    1    3    3    0    0 -0.18167931115E+03 -0.33895025487E+03  0.10555560314E+03  0.39879397279E+03  0.00000000000E+00 0. -1.
        -12    1    3    3    0    0 -0.11981183090E+02 -0.50828857976E+02 -0.12015398167E+02  0.53586298104E+02  0.00000000000E+00 0.  1.
          5    1    4    4  501    0  0.66385352918E+02  0.25453740203E+03  0.86234750226E+03  0.90158582019E+03  0.41800000000E+01 0. -1.
         -5    1    4    4    0  501  0.11235920848E+03  0.16657234490E+03  0.41864708011E+03  0.46438538726E+03  0.41800000000E+01 0. -1.
</event>
<event>
11    1  0.1078607E-008  0.1557868E+03  0.7561462E-02  0.1091108E+00
         22   -1    0    0    0    0  0.00000000000E+00  0.00000000000E+00  0.63688060424E+03  0.63688060424E+03  0.00000000000E+00 0.  1.
         22   -1    0    0    0    0 -0.00000000000E+00 -0.00000000000E+00 -0.21649616801E+03  0.21649616801E+03  0.00000000000E+00 0.  1.
        -24    2    1    2    0    0 -0.82910553665E+02 -0.43103102396E+02 -0.16638571459E+03  0.20487538157E+03  0.74549839769E+02 0.  0.
         25    2    1    2    0    0  0.87900005967E+02  0.16602371321E+02  0.19969872763E+03  0.25204968406E+03  0.12508961442E+03 0.  0.
         24    2    1    2    0    0 -0.49894523024E+01  0.26500731074E+02  0.38707142319E+03  0.39645170662E+03  0.81378655948E+02 0.  0.
        -11    1    5    5    0    0  0.12610837872E+02  0.39320694408E+02  0.35669507852E+03  0.35907733050E+03  0.00000000000E+00 0.  1.
         12    1    5    5    0    0 -0.17600290174E+02 -0.12819963334E+02  0.30376344672E+02  0.37374376111E+02  0.00000000000E+00 0. -1.
         13    1    3    3    0    0 -0.24993862390E+02  0.21243536485E+02 -0.50624768543E+02  0.60322866225E+02  0.00000000000E+00 0. -1.
        -14    1    3    3    0    0 -0.57916691275E+02 -0.64346638881E+02 -0.11576094605E+03  0.14455251535E+03  0.00000000000E+00 0.  1.
          5    1    4    4  501    0  0.70035470708E+02  0.53844027760E+02  0.61426133365E+02  0.10767910077E+03  0.41800000000E+01 0. -1.
         -5    1    4    4    0  501  0.17864535259E+02 -0.37241656439E+02  0.13827259426E+03  0.14437058329E+03  0.41800000000E+01 0. -1.
</event>
<event>
11    1  0.1078607E-008  0.1716175E+03  0.7561462E-02  0.1076633E+00
         22   -1    0    0    0    0  0.00000000000E+00  0.00000000000E+00  0.13627782346E+04  0.13627782346E+04  0.00000000000E+00 0.  1.
         22   -1    0    0    0    0 -0.00000000000E+00 -0.00000000000E+00 -0.93566153434E+03  0.93566153434E+03  0.00000000000E+00 0. -1.
        -24    2    1    2    0    0 -0.75472814450E+02 -0.90937266964E+02 -0.89791971257E+03  0.90928142203E+03  0.81038027989E+02 0.  0.
         25    2    1    2    0    0  0.41565099197E+02  0.86241335078E+02  0.17351677818E+03  0.23435257733E+03  0.12509129803E+03 0.  0.
         24    2    1    2    0    0  0.33907715253E+02  0.46959318857E+01  0.11515196347E+04  0.11548057696E+04  0.80044434676E+02 0.  0.
        -11    1    5    5    0    0 -0.62788983712E+01 -0.19984749144E+02  0.78307914807E+03  0.78335928341E+03  0.00000000000E+00 0.  1.
         12    1    5    5    0    0  0.40186613624E+02  0.24680681030E+02  0.36844048659E+03  0.37144648617E+03  0.00000000000E+00 0. -1.
         13    1    3    3    0    0 -0.48502513696E+02 -0.18770678492E+02 -0.57289247609E+03  0.57524831279E+03  0.00000000000E+00 0. -1.
        -14    1    3    3    0    0 -0.26970300754E+02 -0.72166588472E+02 -0.32502723648E+03  0.33403310924E+03  0.00000000000E+00 0.  1.
          5    1    4    4  501    0  0.29395166896E+02  0.76595079136E+02  0.26293740534E+02  0.86253783546E+02  0.41800000000E+01 0.  1.
         -5    1    4    4    0  501  0.12169932301E+02  0.96462559422E+01  0.14722303765E+03  0.14809879378E+03  0.41800000000E+01 0.  1.
</event>
<event>
11    1  0.1078607E-008  0.1300758E+03  0.7561462E-02  0.1119176E+00
         22   -1    0    0    0    0  0.00000000000E+00  0.00000000000E+00  0.10082880796E+03  0.10082880796E+03  0.00000000000E+00 0.  1.
         22   -1    0    0    0    0 -0.00000000000E+00 -0.00000000000E+00 -0.13797760133E+04  0.13797760133E+04  0.00000000000E+00 0. -1.
         24    2    1    2    0    0  0.40584294592E+02  0.11258081563E+02 -0.11864745454E+04  0.11888774498E+04  0.62720925300E+02 0.  0.
         25    2    1    2    0    0 -0.36208834080E+02  0.25940781804E+02 -0.13846262640E+03  0.19184657260E+03  0.12509678127E+03 0.  0.
        -24    2    1    2    0    0 -0.43754605126E+01 -0.37198863368E+02  0.45989966413E+02  0.99880798871E+02  0.80362907376E+02 0.  0.
        -11    1    3    3    0    0  0.18538262442E+02  0.32763166063E+02 -0.39126317163E+03  0.39306991960E+03  0.00000000000E+00 0.  1.
         12    1    3    3    0    0  0.22046032150E+02 -0.21505084499E+02 -0.79521137377E+03  0.79580753022E+03  0.00000000000E+00 0. -1.
         11    1    5    5    0    0 -0.26226792630E+02 -0.48708559985E+02  0.50348388559E+02  0.74801929775E+02  0.00000000000E+00 0. -1.
        -12    1    5    5    0    0  0.21851332118E+02  0.11509696617E+02 -0.43584221468E+01  0.25078869096E+02  0.00000000000E+00 0.  1.
          5    1    4    4  501    0 -0.68400767352E+02 -0.22958415917E+02 -0.60448952249E+02  0.94219435701E+02  0.41800000000E+01 0.  1.
         -5    1    4    4    0  501  0.32191933272E+02  0.48899197721E+02 -0.78013674149E+02  0.97627136903E+02  0.41800000000E+01 0.  1.
</event>
<event>
11    1  0.1078607E-008  0.1464588E+03  0.7561462E-02  0.1100553E+00
         22   -1    0    0    0    0  0.00000000000E+00  0.00000000000E+00  0.81194054559E+03  0.81194054559E+03  0.00000000000E+00 0. -1.
         22   -1    0    0    0    0 -0.00000000000E+00 -0.00000000000E+00 -0.12615526858E+03  0.12615526858E+03  0.00000000000E+00 0. -1.
         24    2    1    2    0    0  0.45002173558E+01  0.67908145057E+02 -0.77451812643E+02  0.12231917697E+03  0.65813597780E+02 0.  0.
         25    2    1    2    0    0  0.43658313191E+02  0.94374390532E+01  0.20620580468E+03  0.24528213021E+03  0.12508947178E+03 0.  0.
        -24    2    1    2    0    0 -0.48158530547E+02 -0.77345584110E+02  0.55703128498E+03  0.57049450698E+03  0.82937003851E+02 0.  0.
        -13    1    3    3    0    0  0.89355830073E+01  0.37850367819E+02 -0.82790911395E+02  0.91470377704E+02  0.00000000000E+00 0.  1.
         14    1    3    3    0    0 -0.44353656515E+01  0.30057777238E+02  0.53390987519E+01  0.30848799270E+02  0.00000000000E+00 0. -1.
         11    1    5    5    0    0 -0.34129751249E+02 -0.93640456247E+02  0.41233132303E+03  0.42420572240E+03  0.00000000000E+00 0. -1.
        -12    1    5    5    0    0 -0.14028779298E+02  0.16294872137E+02  0.14469996195E+03  0.14628878458E+03  0.00000000000E+00 0.  1.
          5    1    4    4  501    0 -0.27589685244E+02  0.42131623264E+02  0.53584414450E+02  0.73654777731E+02  0.41800000000E+01 0. -1.
         -5    1    4    4    0  501  0.71247998436E+02 -0.32694184211E+02  0.15262139023E+03  0.17162735248E+03  0.41800000000E+01 0. -1.
</event>
<event>
11    1  0.1078607E-008  0.1684793E+03  0.7561462E-02  0.1079363E+00
         22   -1    0    0    0    0  0.00000000000E+00  0.00000000000E+00  0.10659299968E+03  0.10659299968E+03  0.00000000000E+00 0. -1.
         22   -1    0    0    0    0 -0.00000000000E+00 -0.00000000000E+00 -0.98928985519E+03  0.98928985519E+03  0.00000000000E+00 0. -1.
        -24    2    1    2    0    0  0.51772894008E+02  0.77279713503E+01 -0.68688805654E+03  0.69361377038E+03  0.80899358155E+02 0.  0.
         25    2    1    2    0    0 -0.28835793551E+02 -0.11827743685E+03 -0.19774608480E+03  0.26376472774E+03  0.12508901826E+03 0.  0.
         24    2    1    2    0    0 -0.22937100457E+02  0.11054946550E+03  0.19372858206E+01  0.13850435675E+03  0.80202299602E+02 0.  0.
        -11    1    5    5    0    0 -0.43830915162E+02  0.55308197028E+02  0.25332048460E+02  0.74979053486E+02  0.00000000000E+00 0.  1.
         12    1    5    5    0    0  0.20893814705E+02  0.55241268474E+02 -0.23394762639E+02  0.63525303262E+02  0.00000000000E+00 0. -1.
         13    1    3    3    0    0  0.53205449042E+02 -0.15192904872E+02 -0.62757997247E+03  0.63001449667E+03  0.00000000000E+00 0. -1.
        -14    1    3    3    0    0 -0.14325550341E+01  0.22920876222E+02 -0.59308084061E+02  0.63599273705E+02  0.00000000000E+00 0.  1.
          5    1    4    4  501    0  0.22031602965E+02 -0.52629405125E+02 -0.95272953368E+01  0.57995582327E+02  0.41800000000E+01 0.  1.
         -5    1    4    4    0  501 -0.50867396516E+02 -0.65648031727E+02 -0.18821878946E+03  0.20576914541E+03  0.41800000000E+01 0.  1.
</event>
<event>
11    1  0.1078607E-008  0.1351649E+03  0.7561462E-02  0.1113081E+00
         22   -1    0    0    0    0  0.00000000000E+00  0.00000000000E+00  0.16843798494E+03  0.16843798494E+03  0.00000000000E+00 0. -1.
         22   -1    0    0    0    0 -0.00000000000E+00 -0.00000000000E+00 -0.26482325553E+03  0.26482325553E+03  0.00000000000E+00 0. -1.
         24    2    1    2    0    0 -0.55805055083E+02 -0.18739209920E+02 -0.15425434649E+03  0.18291770130E+03  0.78734489761E+02 0.  0.
         25    2    1    2    0    0  0.27444227832E+02 -0.12046884821E+02 -0.25766101592E+02  0.13118558368E+03  0.12508977696E+03 0.  0.
        -24    2    1    2    0    0  0.28360827251E+02  0.30786094741E+02  0.83635177499E+02  0.11915795549E+03  0.73835325479E+02 0.  0.
        -13    1    3    3    0    0 -0.10105615612E+02 -0.15290956557E+02  0.34838362772E+01  0.18656739655E+02  0.00000000000E+00 0.  1.
         14    1    3    3    0    0 -0.45699439472E+02 -0.34482533623E+01 -0.15773818277E+03  0.16426096165E+03  0.00000000000E+00 0. -1.
         11    1    5    5    0    0  0.63868615862E+01 -0.51931783082E+01  0.75838929930E+02  0.76284365336E+02  0.00000000000E+00 0. -1.
        -12    1    5    5    0    0  0.21973965665E+02  0.35979273049E+02  0.77962475692E+01  0.42873590150E+02  0.00000000000E+00 0.  1.
          5    1    4    4  501    0 -0.32305024518E+02  0.33820861467E+02  0.95013790692E+01  0.47908390535E+02  0.41800000000E+01 0.  1.
         -5    1    4    4    0  501  0.59749252351E+02 -0.45867746288E+02 -0.35267480662E+02  0.83277193146E+02  0.41800000000E+01 0.  1.
</event>
<event>
11    1  0.1078607E-008  0.2734605E+03  0.7561462E-02  0.1012094E+00
         22   -1    0    0    0    0  0.00000000000E+00  0.00000000000E+00  0.28500158505E+04  0.28500158505E+04  0.00000000000E+00 0.  1.
         22   -1    0    0    0    0 -0.00000000000E+00 -0.00000000000E+00 -0.14125244951E+03  0.14125244951E+03  0.00000000000E+00 0. -1.
         24    2    1    2    0    0 -0.51006737457E+02 -0.24508354446E+03  0.11465824946E+02  0.26390048070E+03  0.82730692850E+02 0.  0.
         25    2    1    2    0    0 -0.38171010763E+02  0.19567427906E+03  0.11033247127E+04  0.11281480926E+04  0.12508895879E+03 0.  0.
        -24    2    1    2    0    0  0.89177748221E+02  0.49409265405E+02  0.15939728633E+04  0.15992197267E+04  0.79751482717E+02 0.  0.
        -11    1    3    3    0    0 -0.53648907934E+02 -0.69230522292E+02 -0.95129092882E+00  0.87589813870E+02  0.00000000000E+00 0.  1.
         12    1    3    3    0    0  0.26421704765E+01 -0.17585302217E+03  0.12417115875E+02  0.17631066683E+03  0.00000000000E+00 0. -1.
         13    1    5    5    0    0 -0.11919620258E+02 -0.49583613857E+01  0.97529893062E+02  0.98380601419E+02  0.00000000000E+00 0. -1.
        -14    1    5    5    0    0  0.10109736848E+03  0.54367626791E+02  0.14964429703E+04  0.15008391253E+04  0.00000000000E+00 0.  1.
          5    1    4    4  501    0  0.35994125529E+02  0.26559042758E+02  0.13254453640E+03  0.13995172866E+03  0.41800000000E+01 0. -1.
         -5    1    4    4    0  501 -0.74165136292E+02  0.16911523630E+03  0.97078017632E+03  0.98819636396E+03  0.41800000000E+01 0. -1.
</event>
<event>
11    1  0.1078607E-008  0.1483414E+03  0.7561462E-02  0.1098586E+00
         22   -1    0    0    0    0  0.00000000000E+00  0.00000000000E+00  0.28680016359E+04  0.28680016359E+04  0.00000000000E+00 0. -1.
         22   -1    0    0    0    0 -0.00000000000E+00 -0.00000000000E+00 -0.30766243915E+03  0.30766243915E+03  0.00000000000E+00 0.  1.
        -24    2    1    2    0    0 -0.77889498231E+02 -0.17647915269E+02 -0.28924708882E+03  0.31029250082E+03  0.78989460216E+02 0.  0.
         25    2    1    2    0    0  0.64508921217E+02  0.33308139175E+02  0.73068225400E+03  0.74485958341E+03  0.12509360346E+03 0.  0.
         24    2    1    2    0    0  0.13380577015E+02 -0.15660223906E+02  0.21189040316E+04  0.21205119908E+04  0.79953272451E+02 0.  0.
        -13    1    5    5    0    0  0.40552608772E+02  0.37784429485E+00  0.64695568027E+03  0.64822550789E+03  0.00000000000E+00 0.  1.
         14    1    5    5    0    0 -0.27172031757E+02 -0.16038068201E+02  0.14719483513E+04  0.14722864829E+04  0.00000000000E+00 0. -1.
         13    1    3    3    0    0  0.10412513699E+02 -0.93754189972E+01 -0.10366184722E+03  0.10460448122E+03  0.00000000000E+00 0. -1.
        -14    1    3    3    0    0 -0.88302011930E+02 -0.82724962715E+01 -0.18558524161E+03  0.20568801960E+03  0.00000000000E+00 0.  1.
          5    1    4    4  501    0 -0.16762251307E+02  0.29525316912E+02  0.58569279743E+02  0.67827356849E+02  0.41800000000E+01 0. -1.
         -5    1    4    4    0  501  0.81271172524E+02  0.37828222636E+01  0.67211297426E+03  0.67703222656E+03  0.41800000000E+01 0. -1.
</event>
<event>
11    1  0.1078607E-008  0.1274186E+03  0.7561462E-02  0.1122482E+00
         22   -1    0    0    0    0  0.00000000000E+00  0.00000000000E+00  0.20390296909E+03  0.20390296909E+03  0.00000000000E+00 0.  1.
         22   -1    0    0    0    0 -0.00000000000E+00 -0.00000000000E+00 -0.10477565818E+04  0.10477565818E+04  0.00000000000E+00 0.  1.
         24    2    1    2    0    0 -0.10553329109E+01  0.61286319609E+00 -0.78102299401E+03  0.78518138512E+03  0.80693252713E+02 0.  0.
         25    2    1    2    0    0 -0.18405831618E+02 -0.15165326184E+02 -0.23940298612E+03  0.27116112824E+03  0.12508319611E+03 0.  0.
        -24    2    1    2    0    0  0.19461164529E+02  0.14552462988E+02  0.17657236747E+03  0.19531703749E+03  0.79877613116E+02 0.  0.
        -13    1    3    3    0    0  0.25274092816E+02  0.47712861413E+01 -0.68623104078E+03  0.68671288489E+03  0.00000000000E+00 0.  1.
         14    1    3    3    0    0 -0.26329425727E+02 -0.41584229453E+01 -0.94791953226E+02  0.98468500227E+02  0.00000000000E+00 0. -1.
         11    1    5    5    0    0 -0.64630295416E+01  0.43876210783E+02  0.93050318767E+02  0.10307887488E+03  0.00000000000E+00 0. -1.
        -12    1    5    5    0    0  0.25924194070E+02 -0.29323747795E+02  0.83522048700E+02  0.92238162612E+02  0.00000000000E+00 0.  1.
          5    1    4    4  501    0 -0.69507703744E+02  0.97800017128E+01 -0.13169093409E+03  0.14928812356E+03  0.41800000000E+01 0. -1.
         -5    1    4    4    0  501  0.51101872126E+02 -0.24945327896E+02 -0.10771205203E+03  0.12187300468E+03  0.41800000000E+01 0. -1.
</event>
<event>
11    1  0.1078607E-008  0.2140054E+03  0.7561462E-02  0.1045039E+00
         22   -1    0    0    0    0  0.00000000000E+00  0.00000000000E+00  0.49503018104E+03  0.49503018104E+03  0.00000000000E+00 0.  1.
         22   -1    0    0    0    0 -0.00000000000E+00 -0.00000000000E+00 -0.12628664653E+04  0.12628664653E+04  0.00000000000E+00 0. -1.
        -24    2    1    2    0    0 -0.23493726391E+02  0.17344272309E+03 -0.99772296834E+03  0.10162898782E+04  0.82217161150E+02 0.  0.
         25    2    1    2    0    0 -0.50781266733E+02 -0.17232084668E+03 -0.20102647418E+03  0.29720707005E+03  0.12508872019E+03 0.  0.
         24    2    1    2    0    0  0.74274993124E+02 -0.11218764169E+01  0.43091315824E+03  0.44439969812E+03  0.79290027951E+02 0.  0.
        -13    1    5    5    0    0  0.16106549474E+02 -0.11561703885E+02  0.30127305383E+03  0.30192473714E+03  0.00000000000E+00 0.  1.
         14    1    5    5    0    0  0.58168443650E+02  0.10439827468E+02  0.12964010441E+03  0.14247496097E+03  0.00000000000E+00 0. -1.
         11    1    3    3    0    0 -0.45837755032E+02  0.12989865031E+03 -0.83769539789E+03  0.84894542744E+03  0.00000000000E+00 0. -1.
        -12    1    3    3    0    0  0.22344028641E+02  0.43544072786E+02 -0.16002757045E+03  0.16734445075E+03  0.00000000000E+00 0.  1.
          5    1    4    4  501    0 -0.66667288341E+01 -0.16809762461E+03 -0.12699277157E+03  0.21082194645E+03  0.41800000000E+01 0. -1.
         -5    1    4    4    0  501 -0.44114537899E+02 -0.42232220673E+01 -0.74033702609E+02  0.86385123608E+02  0.41800000000E+01 0. -1.
</event>
<event>
11    1  0.1078607E-008  0.1890870E+03  0.7561462E-02  0.1062521E+00
         22   -1    0    0    0    0  0.00000000000E+00  0.00000000000E+00  0.69913237396E+03  0.69913237396E+03  0.00000000000E+00 0. -1.
         22   -1    0    0    0    0 -0.00000000000E+00 -0.00000000000E+00 -0.49163131429E+03  0.49163131429E+03  0.00000000000E+00 0. -1.
         24    2    1    2    0    0  0.20329849082E+02 -0.17169717268E+02 -0.44054244510E+03  0.44844506229E+03  0.79480978885E+02 0.  0.
         25    2    1    2    0    0  0.43731589819E+02  0.14095550268E+03  0.27864646567E+03  0.33922417701E+03  0.12509310034E+03 0.  0.
        -24    2    1    2    0    0 -0.64061438902E+02 -0.12378578541E+03  0.36939703910E+03  0.40309444895E+03  0.81266067028E+02 0.  0.
        -11    1    3    3    0    0  0.34078562038E+02  0.13062603368E+02 -0.10304063590E+03  0.10931309456E+03  0.00000000000E+00 0.  1.
         12    1    3    3    0    0 -0.13748712956E+02 -0.30232320636E+02 -0.33750180921E+03  0.33913196773E+03  0.00000000000E+00 0. -1.
         11    1    5    5    0    0 -0.30369190842E+02 -0.11272606041E+03  0.33023243860E+03  0.35026121103E+03  0.00000000000E+00 0. -1.
        -12    1    5    5    0    0 -0.33692248060E+02 -0.11059725004E+02  0.39164600503E+02  0.52833237919E+02  0.00000000000E+00 0.  1.
          5    1    4    4  501    0 -0.41704500717E+02  0.23156118819E+02  0.68354324633E+02  0.83458117130E+02  0.41800000000E+01 0.  1.
         -5    1    4    4    0  501  0.85436090537E+02  0.11779938386E+03  0.21029214104E+03  0.25576605988E+03  0.41800000000E+01 0.  1.
</event>
<event>
11    1  0.1078607E-008  0.1346535E+03  0.7561462E-02  0.1113680E+00
         22   -1    0    0    0    0  0.00000000000E+00  0.00000000000E+00  0.12368449352E+04  0.12368449352E+04  0.00000000000E+00 0.  1.
         22   -1    0    0    0    0 -0.00000000000E+00 -0.00000000000E+00 -0.13417928234E+03  0.13417928234E+03  0.00000000000E+00 0. -1.
         24    2    1    2    0    0  0.37418469595E+02 -0.22041470472E+02 -0.10090110052E+03  0.13552014980E+03  0.79364416646E+02 0.  0.
         25    2    1    2    0    0 -0.33280191048E+02 -0.31363583167E+02  0.31872750368E+03  0.34543649574E+03  0.12509158855E+03 0.  0.
        -24    2    1    2    0    0 -0.41382785473E+01  0.53405053639E+02  0.88483924973E+03  0.89006757202E+03  0.80065971452E+02 0.  0.
        -13    1    3    3    0    0  0.84708220067E+01 -0.32495152246E+02 -0.39637399015E+01  0.33814212677E+02  0.00000000000E+00 0.  1.
         14    1    3    3    0    0  0.28947647588E+02  0.10453681774E+02 -0.96937360617E+02  0.10170593713E+03  0.00000000000E+00 0. -1.
         11    1    5    5    0    0 -0.37686698469E+02  0.23229687699E+02  0.27295823211E+03  0.27652504789E+03  0.00000000000E+00 0. -1.
        -12    1    5    5    0    0  0.33548419922E+02  0.30175365940E+02  0.61188101762E+03  0.61354252413E+03  0.00000000000E+00 0.  1.
          5    1    4    4  501    0  0.50507741342E+01  0.43616078237E+02  0.15664694030E+03  0.16273785333E+03  0.41800000000E+01 0. -1.
         -5    1    4    4    0  501 -0.38330965182E+02 -0.74979661404E+02  0.16208056338E+03  0.18269864242E+03  0.41800000000E+01 0. -1.
</event>
<event>
11    1  0.1078607E-008  0.1555186E+03  0.7561462E-02  0.1091370E+00
         22   -1    0    0    0    0  0.00000000000E+00  0.00000000000E+00  0.16440266967E+03  0.16440266967E+03  0.00000000000E+00 0.  1.
         22   -1    0    0    0    0 -0.00000000000E+00 -0.00000000000E+00 -0.53834615274E+03  0.53834615274E+03  0.00000000000E+00 0. -1.
         24    2    1    2    0    0  0.35873461214E+02  0.80872287157E+02 -0.37319704258E+03  0.39089870032E+03  0.75488603584E+02 0.  0.
         25    2    1    2    0    0 -0.98610897728E+01 -0.12383673919E+03 -0.74364679966E+02  0.19133741597E+03  0.12508845694E+03 0.  0.
        -24    2    1    2    0    0 -0.26012371442E+02  0.42964452029E+02  0.73618239465E+02  0.12051270612E+03  0.81123853145E+02 0.  0.
        -13    1    3    3    0    0 -0.23712069180E+02  0.19258749649E+02 -0.10262776212E+03  0.10707763175E+03  0.00000000000E+00 0.  1.
         14    1    3    3    0    0  0.59585530394E+02  0.61613537508E+02 -0.27056928046E+03  0.28382106857E+03  0.00000000000E+00 0. -1.
         11    1    5    5    0    0 -0.46822398115E+02  0.26689761661E+02  0.14578746177E+02  0.55832071275E+02  0.00000000000E+00 0. -1.
        -12    1    5    5    0    0  0.20810026673E+02  0.16274690368E+02  0.59039493288E+02  0.64680634849E+02  0.00000000000E+00 0.  1.
          5    1    4    4  501    0 -0.29748682872E+02 -0.87775108318E+02  0.13937469482E+02  0.93814600294E+02  0.41800000000E+01 0. -1.
         -5    1    4    4    0  501  0.19887593100E+02 -0.36061630868E+02 -0.88302149448E+02  0.97522815676E+02  0.41800000000E+01 0. -1.
</event>
<event>
11    1  0.1078607E-008  0.3506457E+03  0.7561462E-02  0.9807771E-01
         22   -1    0    0    0    0  0.00000000000E+00  0.00000000000E+00  0.32883652377E+03  0.32883652377E+03  0.00000000000E+00 0. -1.
         22   -1    0    0    0    0 -0.00000000000E+00 -0.00000000000E+00 -0.10553098495E+04  0.10553098495E+04  0.00000000000E+00 0.  1.
        -24    2    1    2    0    0 -0.38045646726E+01  0.95551579421E+02 -0.48890609824E+03  0.50464960321E+03  0.80606886022E+02 0.  0.
         25    2    1    2    0    0  0.14393393786E+03 -0.37160078881E+03 -0.34525251587E+03  0.54189644091E+03  0.12509327817E+03 0.  0.
         24    2    1    2    0    0 -0.14012937319E+03  0.27604920939E+03  0.10768528836E+03  0.33760032918E+03  0.80860705536E+02 0.  0.
        -11    1    5    5    0    0 -0.18684074532E+02  0.38683308171E+02 -0.13065397803E+02  0.44902088948E+02  0.00000000000E+00 0.  1.
         12    1    5    5    0    0 -0.12144529866E+03  0.23736590122E+03  0.12075068616E+03  0.29269824023E+03  0.00000000000E+00 0. -1.
         11    1    3    3    0    0  0.96428876310E+01  0.17351537805E+02 -0.17048759422E+02  0.26167180664E+02  0.00000000000E+00 0. -1.
        -12    1    3    3    0    0 -0.13447452304E+02  0.78200041617E+02 -0.47185733882E+03  0.47848242254E+03  0.00000000000E+00 0.  1.
          5    1    4    4  501    0  0.10082409547E+03 -0.35416545905E+03 -0.32438254646E+03  0.49075470396E+03  0.41800000000E+01 0. -1.
         -5    1    4    4    0  501  0.43109842396E+02 -0.17435329762E+02 -0.20869969409E+02  0.51141736952E+02  0.41800000000E+01 0. -1.
</event>
<event>
11    1  0.1078607E-008  0.2047359E+03  0.7561462E-02  0.1051224E+00
         22   -1    0    0    0    0  0.00000000000E+00  0.00000000000E+00  0.29770929515E+04  0.29770929515E+04  0.00000000000E+00 0.  1.
         22   -1    0    0    0    0 -0.00000000000E+00 -0.00000000000E+00 -0.78477931541E+03  0.78477931541E+03  0.00000000000E+00 0. -1.
         24    2    1    2    0    0  0.16133358699E+03  0.66054204025E+01 -0.72107896814E+03  0.74323645087E+03  0.79833487563E+02 0.  0.
         25    2    1    2    0    0 -0.18071878400E+03  0.10044503715E+03  0.23545788444E+03  0.33739720653E+03  0.12509186724E+03 0.  0.
        -24    2    1    2    0    0  0.19385197001E+02 -0.10705045756E+03  0.26779347198E+04  0.26812386096E+04  0.76619393154E+02 0.  0.
        -13    1    3    3    0    0  0.32389838257E+02 -0.23765700983E+02 -0.92455319103E+02  0.10080623094E+03  0.00000000000E+00 0.  1.
         14    1    3    3    0    0  0.12894374874E+03  0.30371121386E+02 -0.62862364904E+03  0.64243021993E+03  0.00000000000E+00 0. -1.
         13    1    5    5    0    0  0.74733464122E+01 -0.58471654617E+01  0.10881572180E+04  0.10881985900E+04  0.00000000000E+00 0. -1.
        -14    1    5    5    0    0  0.11911850588E+02 -0.10120329209E+03  0.15897775018E+04  0.15930400195E+04  0.00000000000E+00 0.  1.
          5    1    4    4  501    0 -0.87531265099E+02 -0.17094724073E+02  0.11094692982E+03  0.14241013165E+03  0.41800000000E+01 0. -1.
         -5    1    4    4    0  501 -0.93187518896E+02  0.11753976123E+03  0.12451095462E+03  0.19498707488E+03  0.41800000000E+01 0. -1.
</event>
<event>
11    1  0.1078607E-008  0.1950653E+03  0.7561462E-02  0.1058069E+00
         22   -1    0    0    0    0  0.00000000000E+00  0.00000000000E+00  0.14436365769E+04  0.14436365769E+04  0.00000000000E+00 0. -1.
         22   -1    0    0    0    0 -0.00000000000E+00 -0.00000000000E+00 -0.10660049431E+03  0.10660049431E+03  0.00000000000E+00 0. -1.
         24    2    1    2    0    0 -0.21675038801E+02 -0.27535561882E+02 -0.30691806367E+02  0.94245809249E+02  0.81928451150E+02 0.  0.
         25    2    1    2    0    0  0.22220056528E+02  0.17327286724E+03  0.26670824875E+03  0.34248840199E+03  0.12509115922E+03 0.  0.
        -24    2    1    2    0    0 -0.54501772739E+00 -0.14573730535E+03  0.11010196403E+04  0.11135028600E+04  0.80029443457E+02 0.  0.
        -11    1    3    3    0    0  0.30849626697E+02 -0.17975550146E+02 -0.13178389472E+02  0.38059030721E+02  0.00000000000E+00 0.  1.
         12    1    3    3    0    0 -0.52524665497E+02 -0.95600117362E+01 -0.17513416895E+02  0.56186778528E+02  0.00000000000E+00 0. -1.
         13    1    5    5    0    0  0.26064866494E+02 -0.34344188192E+02  0.16650513774E+03  0.17199669015E+03  0.00000000000E+00 0. -1.
        -14    1    5    5    0    0 -0.26609884221E+02 -0.11139311716E+03  0.93451450251E+03  0.94150616987E+03  0.00000000000E+00 0.  1.
          5    1    4    4  501    0  0.23666544614E+02  0.19080284016E+03  0.21890585062E+03  0.29138131887E+03  0.41800000000E+01 0.  1.
         -5    1    4    4    0  501 -0.14464880854E+01 -0.17529972927E+02  0.47802398131E+02  0.51107083127E+02  0.41800000000E+01 0.  1.
</event>
<event>
11    1  0.1078607E-008  0.2231663E+03  0.7561462E-02  0.1039252E+00
         22   -1    0    0    0    0  0.00000000000E+00  0.00000000000E+00  0.28610639857E+03  0.28610639857E+03  0.00000000000E+00 0.  1.
         22   -1    0    0    0    0 -0.00000000000E+00 -0.00000000000E+00 -0.26507744364E+04  0.26507744364E+04  0.00000000000E+00 0.  1.
        -24    2    1    2    0    0 -0.13186326453E+03  0.31261864611E+02 -0.24406969548E+04  0.24459263175E+04  0.84786206319E+02 0.  0.
         25    2    1    2    0    0  0.22836043464E+03  0.10596499978E+03 -0.19268580679E+02  0.28177125270E+03  0.12508673534E+03 0.  0.
         24    2    1    2    0    0 -0.96497170111E+02 -0.13722686439E+03  0.95297497603E+02  0.20918326482E+03  0.80827650490E+02 0.  0.
        -11    1    5    5    0    0 -0.92756214753E+02 -0.77736043135E+02  0.38894560865E+02  0.12711960762E+03  0.00000000000E+00 0.  1.
         12    1    5    5    0    0 -0.37409553583E+01 -0.59490821252E+02  0.56402936738E+02  0.82063657199E+02  0.00000000000E+00 0. -1.
         13    1    3    3    0    0 -0.69889907645E+02 -0.22100305526E+02 -0.86132683487E+03  0.86444024615E+03  0.00000000000E+00 0. -1.
        -14    1    3    3    0    0 -0.61973356884E+02  0.53362170137E+02 -0.15793701199E+04  0.15814860713E+04  0.00000000000E+00 0.  1.
          5    1    4    4  501    0  0.18539554968E+03  0.38146134989E+02 -0.49818708351E+02  0.19577030816E+03  0.41800000000E+01 0. -1.
         -5    1    4    4    0  501  0.42964884963E+02  0.67818864787E+02  0.30550127672E+02  0.86000944539E+02  0.41800000000E+01 0. -1.
</event>
<event>
11    1  0.1078607E-008  0.1570248E+03  0.7561462E-02  0.1089909E+00
         22   -1    0    0    0    0  0.00000000000E+00  0.00000000000E+00  0.37345829105E+04  0.37345829105E+04  0.00000000000E+00 0.  1.
         22   -1    0    0    0    0 -0.00000000000E+00 -0.00000000000E+00 -0.25076898870E+03  0.25076898870E+03  0.00000000000E+00 0.  1.
         24    2    1    2    0    0  0.71250393054E+02  0.34179342297E+02 -0.14599263949E+03  0.18467094260E+03  0.80899074807E+02 0.  0.
         25    2    1    2    0    0 -0.11750422274E+02 -0.10840914390E+03 -0.27701986326E+01  0.16597079190E+03  0.12509202556E+03 0.  0.
        -24    2    1    2    0    0 -0.59499970780E+02  0.74229801605E+02  0.36325767599E+04  0.36347101647E+04  0.80335263807E+02 0.  0.
        -13    1    3    3    0    0  0.83086735843E+02  0.35640942043E+02 -0.90538451236E+02  0.12794879278E+03  0.00000000000E+00 0.  1.
         14    1    3    3    0    0 -0.11836342789E+02 -0.14615997463E+01 -0.55454188258E+02  0.56722149817E+02  0.00000000000E+00 0. -1.
         11    1    5    5    0    0 -0.58720646992E+02  0.95212554160E+01  0.16112762521E+04  0.16123740042E+04  0.00000000000E+00 0. -1.
        -12    1    5    5    0    0 -0.77932378797E+00  0.64708546189E+02  0.20213005078E+04  0.20223361605E+04  0.00000000000E+00 0.  1.
          5    1    4    4  501    0 -0.30515125158E+02  0.85493402091E+01 -0.30566447774E+02  0.44227188595E+02  0.41800000000E+01 0.  1.
         -5    1    4    4    0  501  0.18764702885E+02 -0.11695848411E+03  0.27796249142E+02  0.12174360331E+03  0.41800000000E+01 0.  1.
</event>
<event>
11    1  0.1078607E-008  0.3375145E+03  0.7561462E-02  0.9854560E-01
         22   -1    0    0    0    0  0.00000000000E+00  0.00000000000E+00  0.12870542940E+04  0.12870542940E+04  0.00000000000E+00 0. -1.
         22   -1    0    0    0    0 -0.00000000000E+00 -0.00000000000E+00 -0.77269281137E+03  0.77269281137E+03  0.00000000000E+00 0. -1.
         24    2    1    2    0    0 -0.59047725874E+01  0.25227833806E+01 -0.65886526363E+03  0.66429765651E+03  0.84538216469E+02 0.  0.
         25    2    1    2    0    0 -0.24933703536E+03 -0.18593043409E+03  0.25317524601E+03  0.42009919796E+03  0.12508615993E+03 0.  0.
        -24    2    1    2    0    0  0.25524180795E+03  0.18340765071E+03  0.92005150024E+03  0.97535025090E+03  0.77631192022E+02 0.  0.
        -11    1    3    3    0    0 -0.11639733031E+02 -0.39063148994E+02 -0.39725759226E+03  0.39934322030E+03  0.00000000000E+00 0.  1.
         12    1    3    3    0    0  0.57349604441E+01  0.41585932375E+02 -0.26160767137E+03  0.26495443620E+03  0.00000000000E+00 0. -1.
         11    1    5    5    0    0  0.25805570810E+03  0.18692576698E+03  0.89839301435E+03  0.95322819884E+03  0.00000000000E+00 0. -1.
        -12    1    5    5    0    0 -0.28139001493E+01 -0.35181162646E+01  0.21658485890E+02  0.22122052056E+02  0.00000000000E+00 0.  1.
          5    1    4    4  501    0 -0.19926705185E+03 -0.19984768515E+03  0.20235026333E+03  0.34728886634E+03  0.41800000000E+01 0.  1.
         -5    1    4    4    0  501 -0.50069983510E+02  0.13917251055E+02  0.50824982684E+02  0.72810331618E+02  0.41800000000E+01 0.  1.
</event>
<event>
11    1  0.1078607E-008  0.2015998E+03  0.7561462E-02  0.1053398E+00
         22   -1    0    0    0    0  0.00000000000E+00  0.00000000000E+00  0.55254129918E+03  0.55254129918E+03  0.00000000000E+00 0. -1.
         22   -1    0    0    0    0 -0.00000000000E+00 -0.00000000000E+00 -0.40407937025E+03  0.40407937025E+03  0.00000000000E+00 0.  1.
        -24    2    1    2    0    0  0.55029106415E+02 -0.42677375947E+02 -0.25319564448E+03  0.27442537680E+03  0.79697503579E+02 0.  0.
         25    2    1    2    0    0 -0.12664260412E+03  0.17469884819E+03  0.35171620567E+01  0.24943454186E+03  0.12508870255E+03 0.  0.
         24    2    1    2    0    0  0.71613497708E+02 -0.13202147224E+03  0.39814041135E+03  0.43276075078E+03  0.78790342529E+02 0.  0.
        -13    1    5    5    0    0 -0.17389378514E+02 -0.23622410631E+02  0.71172087777E+02  0.76979704128E+02  0.00000000000E+00 0.  1.
         14    1    5    5    0    0  0.89002876223E+02 -0.10839906161E+03  0.32696832357E+03  0.35578104665E+03  0.00000000000E+00 0. -1.
         13    1    3    3    0    0 -0.19632413208E+02 -0.19432805829E+02 -0.64012108370E+02  0.69718115356E+02  0.00000000000E+00 0. -1.
        -14    1    3    3    0    0  0.74661519623E+02 -0.23244570117E+02 -0.18918353611E+03  0.20470726144E+03  0.00000000000E+00 0.  1.
          5    1    4    4  501    0 -0.16234016295E+02  0.13964454630E+02  0.45013945447E+02  0.50022764447E+02  0.41800000000E+01 0.  1.
         -5    1    4    4    0  501 -0.11040858783E+03  0.16073439356E+03 -0.41496783391E+02  0.19941177741E+03  0.41800000000E+01 0.  1.
</event>
<event>
11    1  0.1078607E-008  0.3001537E+03  0.7561462E-02  0.1000126E+00
         22   -1    0    0    0    0  0.00000000000E+00  0.00000000000E+00  0.20864799025E+04  0.20864799025E+04  0.00000000000E+00 0. -1.
         22   -1    0    0    0    0 -0.00000000000E+00 -0.00000000000E+00 -0.22055935641E+03  0.22055935641E+03  0.00000000000E+00 0. -1.
        -24    2    1    2    0    0  0.24812838140E+03 -0.66971758164E+02 -0.54479101964E+02  0.27492488041E+03  0.81011155241E+02 0.  0.
         25    2    1    2    0    0 -0.38267647469E+03  0.12998510400E+03  0.86071487404E+03  0.95907388164E+03  0.12512075974E+03 0.  0.
         24    2    1    2    0    0  0.13454809329E+03 -0.63013345833E+02  0.10596847740E+04  0.10730404969E+04  0.80063827215E+02 0.  0.
        -13    1    5    5    0    0  0.11031334752E+03 -0.14455904291E+02  0.60672856925E+03  0.61684484642E+03  0.00000000000E+00 0.  1.
         14    1    5    5    0    0  0.24234745769E+02 -0.48557441542E+02  0.45295620477E+03  0.45619565043E+03  0.00000000000E+00 0. -1.
         11    1    3    3    0    0  0.17345355366E+03 -0.76047632220E+02 -0.15038971193E+02  0.18998828464E+03  0.00000000000E+00 0. -1.
        -12    1    3    3    0    0  0.74674827736E+02  0.90758740561E+01 -0.39440130771E+02  0.84936595779E+02  0.00000000000E+00 0.  1.
          5    1    4    4  501    0 -0.12717485201E+03  0.91879530376E+02  0.41788201661E+03  0.44638340391E+03  0.41800000000E+01 0. -1.
         -5    1    4    4    0  501 -0.25550162268E+03  0.38105573621E+02  0.44283285743E+03  0.51269047773E+03  0.41800000000E+01 0. -1.
</event>
<event>
11    1  0.1078607E-008  0.1695524E+03  0.7561462E-02  0.1078422E+00
         22   -1    0    0    0    0  0.00000000000E+00  0.00000000000E+00  0.24733420309E+04  0.24733420309E+04  0.00000000000E+00 0.  1.
         22   -1    0    0    0    0 -0.00000000000E+00 -0.00000000000E+00 -0.32488328736E+03  0.32488328736E+03  0.00000000000E+00 0. -1.
        -24    2    1    2    0    0 -0.43252637285E+02  0.97949951086E+02 -0.23551614284E+03  0.27064912764E+03  0.79486559905E+02 0.  0.
         25    2    1    2    0    0  0.60948951484E+02 -0.18709486265E+03  0.12346606564E+03  0.26383576311E+03  0.12508468416E+03 0.  0.
         24    2    1    2    0    0 -0.17696314199E+02  0.89144911566E+02  0.22605088208E+04  0.22637404275E+04  0.79753493561E+02 0.  0.
        -13    1    5    5    0    0 -0.12404539142E+02  0.96455934464E+02  0.22242586149E+04  0.22263836161E+04  0.00000000000E+00 0.  1.
         14    1    5    5    0    0 -0.52917750568E+01 -0.73110228984E+01  0.36250205840E+02  0.37356811461E+02  0.00000000000E+00 0. -1.
         13    1    3    3    0    0 -0.53720861303E+01  0.92789715642E+02 -0.14307303468E+03  0.17061267213E+03  0.00000000000E+00 0. -1.
        -14    1    3    3    0    0 -0.37880551155E+02  0.51602354444E+01 -0.92443108152E+02  0.10003645551E+03  0.00000000000E+00 0.  1.
          5    1    4    4  501    0 -0.23184667851E+02 -0.10825579328E+03  0.28482762439E+02  0.11439224519E+03  0.41800000000E+01 0. -1.
         -5    1    4    4    0  501  0.84133619335E+02 -0.78839069368E+02  0.94983303204E+02  0.14944351792E+03  0.41800000000E+01 0. -1.
</event>
<event>
11    1  0.1491866E-008  0.3154898E+03  0.7561462E-02  0.9938406E-01
         22   -1    0    0    0    0  0.00000000000E+00  0.00000000000E+00  0.78891119157E+03  0.78891119157E+03  0.00000000000E+00 0.  1.
         22   -1    0    0    0    0 -0.00000000000E+00 -0.00000000000E+00 -0.90328703202E+03  0.90328703202E+03  0.00000000000E+00 0.  1.
        -24    2    1    2    0    0  0.29718984824E+02  0.64850674354E+02 -0.31947131396E+03  0.33798130580E+03  0.84146387935E+02 0.  0.
         25    2    1    2    0    0 -0.31226431024E+03 -0.54029174838E+01 -0.49129124124E+03  0.59545373751E+03  0.12513943755E+03 0.  0.
         24    2    1    2    0    0  0.28254532541E+03 -0.59447756870E+02  0.69638671475E+03  0.75876318028E+03  0.86030288641E+02 0.  0.
        -13    1    5    5    0    0  0.28713229632E+03 -0.63573352979E+02  0.68900766224E+03  0.74914490282E+03  0.00000000000E+00 0.  1.
         14    1    5    5    0    0 -0.45869709082E+01  0.41255961088E+01  0.73790525106E+01  0.96182774611E+01  0.00000000000E+00 0. -1.
         11    1    3    3    0    0 -0.12942957014E+01 -0.96859074669E+01 -0.14573295076E+01  0.98800715642E+01  0.00000000000E+00 0. -1.
        -12    1    3    3    0    0  0.31013280525E+02  0.74536581821E+02 -0.31801398445E+03  0.32810123424E+03  0.00000000000E+00 0.  1.
          5    1    4    4  501    0 -0.25349243985E+03  0.33574262074E+02 -0.43709528847E+03  0.50641426889E+03  0.41800000000E+01 0. -1.
         -5    1    4    4    0  501 -0.58771870390E+02 -0.38977179558E+02 -0.54195952772E+02  0.89039468621E+02  0.41800000000E+01 0. -1.
</event>
<event>
11    1  0.1078607E-008  0.1485696E+03  0.7561462E-02  0.1098349E+00
         22   -1    0    0    0    0  0.00000000000E+00  0.00000000000E+00  0.76973269925E+03  0.76973269925E+03  0.00000000000E+00 0.  1.
         22   -1    0    0    0    0 -0.00000000000E+00 -0.00000000000E+00 -0.47221511162E+03  0.47221511162E+03  0.00000000000E+00 0. -1.
        -24    2    1    2    0    0  0.38234690649E+02 -0.67288061676E+02 -0.40622338148E+03  0.42149603361E+03  0.81559155676E+02 0.  0.
         25    2    1    2    0    0 -0.47317725027E+02  0.13561100832E+03  0.11532542050E+03  0.22265710897E+03  0.12508766079E+03 0.  0.
         24    2    1    2    0    0  0.90830343778E+01 -0.68322946642E+02  0.58841554861E+03  0.59779466829E+03  0.79844104595E+02 0.  0.
        -11    1    5    5    0    0  0.88871035047E+01 -0.86421999770E+02  0.50718032472E+03  0.51456741486E+03  0.00000000000E+00 0.  1.
         12    1    5    5    0    0  0.19593087315E+00  0.18099053127E+02  0.81235223894E+02  0.83227253433E+02  0.00000000000E+00 0. -1.
         11    1    3    3    0    0  0.48553547107E+02 -0.66362952255E+02 -0.21807517388E+03  0.23306280233E+03  0.00000000000E+00 0. -1.
        -12    1    3    3    0    0 -0.10318856458E+02 -0.92510942053E+00 -0.18814820761E+03  0.18843323128E+03  0.00000000000E+00 0.  1.
          5    1    4    4  501    0  0.14349747807E+02  0.24906168052E+02 -0.21484404317E+02  0.36128721234E+02  0.41800000000E+01 0. -1.
         -5    1    4    4    0  501 -0.61667472833E+02  0.11070484027E+03  0.13680982482E+03  0.18652838773E+03  0.41800000000E+01 0. -1.
</event>
<event>
11    1  0.1078607E-008  0.2714110E+03  0.7561462E-02  0.1013074E+00
         22   -1    0    0    0    0  0.00000000000E+00  0.00000000000E+00  0.13799266450E+04  0.13799266450E+04  0.00000000000E+00 0. -1.
         22   -1    0    0    0    0 -0.00000000000E+00 -0.00000000000E+00 -0.22138619886E+04  0.22138619886E+04  0.00000000000E+00 0. -1.
         24    2    1    2    0    0  0.16781111134E+03 -0.16899681926E+03 -0.20145535218E+04  0.20301359242E+04  0.79407082243E+02 0.  0.
         25    2    1    2    0    0 -0.21585974106E+03  0.18795321908E+03 -0.61073805187E+02  0.31827569949E+03  0.12509025075E+03 0.  0.
        -24    2    1    2    0    0  0.48048629721E+02 -0.18956399828E+02  0.12416919834E+04  0.12453770099E+04  0.80603344695E+02 0.  0.
        -11    1    3    3    0    0  0.40082149278E+02 -0.81918091172E+02 -0.55820786780E+03  0.56560867746E+03  0.00000000000E+00 0.  1.
         12    1    3    3    0    0  0.12772896206E+03 -0.87078728084E+02 -0.14563456540E+04  0.14645272468E+04  0.00000000000E+00 0. -1.
         11    1    5    5    0    0  0.67006766955E+02 -0.29725601568E+02  0.89272769038E+03  0.89573224089E+03  0.00000000000E+00 0. -1.
        -12    1    5    5    0    0 -0.18958137234E+02  0.10769201740E+02  0.34896429300E+03  0.34964476896E+03  0.00000000000E+00 0.  1.
          5    1    4    4  501    0 -0.21223341369E+03  0.18195534445E+03 -0.85625088890E+02  0.29240365509E+03  0.41800000000E+01 0. -1.
         -5    1    4    4    0  501 -0.36263273688E+01  0.59978746367E+01  0.24551283703E+02  0.25872044407E+02  0.41800000000E+01 0. -1.
</event>
<event>
11    1  0.1078607E-008  0.1287154E+03  0.7561462E-02  0.1120857E+00
         22   -1    0    0    0    0  0.00000000000E+00  0.00000000000E+00  0.56415120565E+03  0.56415120565E+03  0.00000000000E+00 0.  1.
         22   -1    0    0    0    0 -0.00000000000E+00 -0.00000000000E+00 -0.94455264789E+02  0.94455264789E+02  0.00000000000E+00 0.  1.
         24    2    1    2    0    0 -0.11605958459E+02 -0.11745228343E+02 -0.35662777863E+02  0.88835564129E+02  0.79669787677E+02 0.  0.
         25    2    1    2    0    0  0.34210621504E+02  0.28099541648E+02  0.13333431530E+03  0.18810935045E+03  0.12508851757E+03 0.  0.
        -24    2    1    2    0    0 -0.22604663045E+02 -0.16354313305E+02  0.37202440343E+03  0.38166155586E+03  0.80529200412E+02 0.  0.
        -13    1    3    3    0    0  0.13886103465E+02 -0.27135746456E+02 -0.47789377491E+02  0.56683306239E+02  0.00000000000E+00 0.  1.
         14    1    3    3    0    0 -0.25492061924E+02  0.15390518113E+02  0.12126599628E+02  0.32152257890E+02  0.00000000000E+00 0. -1.
         13    1    5    5    0    0 -0.12017790091E+02 -0.79445414435E+01  0.63608530122E+01  0.15748125872E+02  0.00000000000E+00 0. -1.
        -14    1    5    5    0    0 -0.10586872953E+02 -0.84097718617E+01  0.36566355041E+03  0.36591342998E+03  0.00000000000E+00 0.  1.
          5    1    4    4  501    0  0.20389861101E+02  0.39168564762E+02  0.15418429963E+03  0.16043750669E+03  0.41800000000E+01 0.  1.
         -5    1    4    4    0  501  0.13820760403E+02 -0.11069023114E+02 -0.20849984329E+02  0.27671843764E+02  0.41800000000E+01 0.  1.
</event>
<event>
11    1  0.1078607E-008  0.1535134E+03  0.7561462E-02  0.1093342E+00
         22   -1    0    0    0    0  0.00000000000E+00  0.00000000000E+00  0.18538774843E+04  0.18538774843E+04  0.00000000000E+00 0. -1.
         22   -1    0    0    0    0 -0.00000000000E+00 -0.00000000000E+00 -0.21435185883E+03  0.21435185883E+03  0.00000000000E+00 0. -1.
         24    2    1    2    0    0 -0.71986512476E+02  0.30445505443E+01 -0.17092196446E+03  0.20136126568E+03  0.78362708700E+02 0.  0.
         25    2    1    2    0    0  0.40483341241E+02  0.83014472390E+02  0.21460744807E+03  0.26501788591E+03  0.12509124486E+03 0.  0.
        -24    2    1    2    0    0  0.31503171235E+02 -0.86059022934E+02  0.15958401418E+04  0.16018501915E+04  0.10401765508E+03 0.  0.
        -13    1    3    3    0    0 -0.41779078528E+02  0.28975750233E+02 -0.40512255198E+02  0.65010217086E+02  0.00000000000E+00 0.  1.
         14    1    3    3    0    0 -0.30207433948E+02 -0.25931199689E+02 -0.13040970926E+03  0.13635104859E+03  0.00000000000E+00 0. -1.
         13    1    5    5    0    0  0.47806566753E+02 -0.73478858404E+02  0.15372332972E+04  0.15397307623E+04  0.00000000000E+00 0. -1.
        -14    1    5    5    0    0 -0.16303395518E+02 -0.12580164530E+02  0.58606844661E+02  0.62119429216E+02  0.00000000000E+00 0.  1.
          5    1    4    4  501    0  0.52248035807E+02 -0.16604787864E+02  0.71169307776E+02  0.89933970195E+02  0.41800000000E+01 0. -1.
         -5    1    4    4    0  501 -0.11764694566E+02  0.99619260254E+02  0.14343814030E+03  0.17508391572E+03  0.41800000000E+01 0. -1.
</event>
<event>
11    1  0.1078607E-008  0.1940320E+03  0.7561462E-02  0.1058826E+00
         22   -1    0    0    0    0  0.00000000000E+00  0.00000000000E+00  0.70288891812E+03  0.70288891812E+03  0.00000000000E+00 0.  1.
         22   -1    0    0    0    0 -0.00000000000E+00 -0.00000000000E+00 -0.45502181116E+03  0.45502181116E+03  0.00000000000E+00 0. -1.
         24    2    1    2    0    0 -0.84764237962E+02  0.15084835832E+01 -0.39572679655E+03  0.41461076050E+03  0.90084036645E+02 0.  0.
         25    2    1    2    0    0  0.18529583635E+03  0.47005087134E+02  0.46786964337E+03  0.52066697572E+03  0.12509225087E+03 0.  0.
        -24    2    1    2    0    0 -0.10053159839E+03 -0.48513570717E+02  0.17572426013E+03  0.22263299306E+03  0.78906686556E+02 0.  0.
        -13    1    3    3    0    0  0.87125957401E+01  0.19747726651E+02 -0.14136846266E+03  0.14300672805E+03  0.00000000000E+00 0.  1.
         14    1    3    3    0    0 -0.93476833702E+02 -0.18239243067E+02 -0.25435833388E+03  0.27160403245E+03  0.00000000000E+00 0. -1.
         11    1    5    5    0    0 -0.31440567129E+02 -0.26121587557E+02  0.13125231675E+03  0.13747005947E+03  0.00000000000E+00 0. -1.
        -12    1    5    5    0    0 -0.69091031258E+02 -0.22391983161E+02  0.44471943379E+02  0.85162933592E+02  0.00000000000E+00 0.  1.
          5    1    4    4  501    0  0.26956689335E+02 -0.38528600347E+02  0.12067288655E+03  0.12957829329E+03  0.41800000000E+01 0.  1.
         -5    1    4    4    0  501  0.15833914701E+03  0.85533687481E+02  0.34719675682E+03  0.39108868242E+03  0.41800000000E+01 0.  1.
</event>
<event>
11    1  0.1078607E-008  0.1713799E+03  0.7561462E-02  0.1076837E+00
         22   -1    0    0    0    0  0.00000000000E+00  0.00000000000E+00  0.15173201192E+04  0.15173201192E+04  0.00000000000E+00 0. -1.
         22   -1    0    0    0    0 -0.00000000000E+00 -0.00000000000E+00 -0.44879789437E+03  0.44879789437E+03  0.00000000000E+00 0. -1.
         24    2    1    2    0    0  0.29528133442E+01  0.43297945688E+02 -0.39789823332E+03  0.40826799806E+03  0.80475604688E+02 0.  0.
         25    2    1    2    0    0  0.11226142676E+02  0.76697461752E+02  0.87594989715E+02  0.17125674015E+03  0.12508981535E+03 0.  0.
        -24    2    1    2    0    0 -0.14178956021E+02 -0.11999540744E+03  0.13788254684E+04  0.13865932754E+04  0.82953591016E+02 0.  0.
        -11    1    3    3    0    0  0.57271058289E+01  0.54525522009E+02 -0.14364913282E+03  0.15375599387E+03  0.00000000000E+00 0.  1.
         12    1    3    3    0    0 -0.27742924847E+01 -0.11227576321E+02 -0.25424910050E+03  0.25451200418E+03  0.00000000000E+00 0. -1.
         11    1    5    5    0    0 -0.70980863142E+01 -0.76204768338E+02  0.11966449924E+04  0.11990899830E+04  0.00000000000E+00 0. -1.
        -12    1    5    5    0    0 -0.70808697064E+01 -0.43790639102E+02  0.18218047605E+03  0.18750329235E+03  0.00000000000E+00 0.  1.
          5    1    4    4  501    0  0.27079966826E+02 -0.17217717868E+02 -0.10930855499E+02  0.34157435703E+02  0.41800000000E+01 0.  1.
         -5    1    4    4    0  501 -0.15853824149E+02  0.93915179620E+02  0.98525845215E+02  0.13709930444E+03  0.41800000000E+01 0.  1.
</event>
<event>
11    1  0.1078607E-008  0.2947688E+03  0.7561462E-02  0.1002430E+00
         22   -1    0    0    0    0  0.00000000000E+00  0.00000000000E+00  0.13187462228E+04  0.13187462228E+04  0.00000000000E+00 0.  1.
         22   -1    0    0    0    0 -0.00000000000E+00 -0.00000000000E+00 -0.29750799512E+04  0.29750799512E+04  0.00000000000E+00 0.  1.
        -24    2    1    2    0    0  0.40584960893E+02  0.26342736072E+03 -0.27345100865E+04  0.27485792157E+04  0.78110040359E+02 0.  0.
         25    2    1    2    0    0 -0.10055997024E+02 -0.27361906185E+03 -0.13440420906E+03  0.32966879419E+03  0.12509399813E+03 0.  0.
         24    2    1    2    0    0 -0.30528963869E+02  0.10191701122E+02  0.12125805671E+04  0.12155781642E+04  0.79011093994E+02 0.  0.
        -11    1    5    5    0    0 -0.35122049391E+02  0.34688809611E+02  0.10438616141E+04  0.10450282011E+04  0.00000000000E+00 0.  1.
         12    1    5    5    0    0  0.45930855220E+01 -0.24497108489E+02  0.16871895308E+03  0.17054996303E+03  0.00000000000E+00 0. -1.
         13    1    3    3    0    0  0.39538756103E+02  0.69644958270E+02 -0.60666400758E+03  0.61192724366E+03  0.00000000000E+00 0. -1.
        -14    1    3    3    0    0  0.10462047905E+01  0.19378240245E+03 -0.21278460789E+04  0.21366519720E+04  0.00000000000E+00 0.  1.
          5    1    4    4  501    0 -0.26706249611E+02 -0.24592273595E+03 -0.69397883708E+02  0.25695282542E+03  0.41800000000E+01 0. -1.
         -5    1    4    4    0  501  0.16650252586E+02 -0.27696325895E+02 -0.65006325350E+02  0.72715968774E+02  0.41800000000E+01 0. -1.
</event>
<event>
11    1  0.1078607E-008  0.1439764E+03  0.7561462E-02  0.1103198E+00
         22   -1    0    0    0    0  0.00000000000E+00  0.00000000000E+00  0.33487530193E+03  0.33487530193E+03  0.00000000000E+00 0. -1.
         22   -1    0    0    0    0 -0.00000000000E+00 -0.00000000000E+00 -0.29395281124E+03  0.29395281124E+03  0.00000000000E+00 0.  1.
         24    2    1    2    0    0 -0.60567500747E+02 -0.25684294435E+02 -0.13864757366E+03  0.17346456503E+03  0.80862231678E+02 0.  0.
         25    2    1    2    0    0  0.76974927347E+02  0.36125480942E+02 -0.88355034247E+02  0.17516975587E+03  0.12509053314E+03 0.  0.
        -24    2    1    2    0    0 -0.16407426600E+02 -0.10441186508E+02  0.26792509859E+03  0.28019379227E+03  0.79664802451E+02 0.  0.
        -13    1    3    3    0    0 -0.73029697094E+02 -0.35009914370E+02 -0.13507646213E+03  0.15749502018E+03  0.00000000000E+00 0.  1.
         14    1    3    3    0    0  0.12462196347E+02  0.93256199358E+01 -0.35711115299E+01  0.15969544844E+02  0.00000000000E+00 0. -1.
         13    1    5    5    0    0 -0.31200897699E+02 -0.36328799420E+02  0.20560520268E+03  0.21110844856E+03  0.00000000000E+00 0. -1.
        -14    1    5    5    0    0  0.14793471099E+02  0.25887612912E+02  0.62319895915E+02  0.69085343715E+02  0.00000000000E+00 0.  1.
          5    1    4    4  501    0  0.20396441923E+02 -0.26170431530E+02 -0.84439808345E+02  0.90821032602E+02  0.41800000000E+01 0. -1.
         -5    1    4    4    0  501  0.56578485424E+02  0.62295912472E+02 -0.39152259022E+01  0.84348723271E+02  0.41800000000E+01 0. -1.
</event>
<event>
11    1  0.1078607E-008  0.1434698E+03  0.7561462E-02  0.1103744E+00
         22   -1    0    0    0    0  0.00000000000E+00  0.00000000000E+00  0.18606829704E+04  0.18606829704E+04  0.00000000000E+00 0. -1.
         22   -1    0    0    0    0 -0.00000000000E+00 -0.00000000000E+00 -0.21538811350E+03  0.21538811350E+03  0.00000000000E+00 0.  1.
         24    2    1    2    0    0 -0.55765867308E+02 -0.40207703758E+01 -0.74814043333E+02  0.12270107730E+03  0.79576471022E+02 0.  0.
         25    2    1    2    0    0  0.10468832252E+03  0.60714543626E+01 -0.57584983455E+02  0.17309011943E+03  0.12509057397E+03 0.  0.
        -24    2    1    2    0    0 -0.48922455208E+02 -0.20506839868E+01  0.17776938837E+04  0.17802798872E+04  0.82482244438E+02 0.  0.
        -11    1    3    3    0    0 -0.70525368778E+02 -0.51377021687E+01 -0.80225765267E+02  0.10694109144E+03  0.00000000000E+00 0.  1.
         12    1    3    3    0    0  0.14759501469E+02  0.11169317928E+01  0.54117219333E+01  0.15759985867E+02  0.00000000000E+00 0. -1.
         11    1    5    5    0    0 -0.35913318862E+02 -0.36190235331E+02  0.13711883866E+04  0.13721359595E+04  0.00000000000E+00 0. -1.
        -12    1    5    5    0    0 -0.13009136346E+02  0.34139551344E+02  0.40650549703E+03  0.40814392769E+03  0.00000000000E+00 0.  1.
          5    1    4    4  501    0  0.48082369933E+02  0.58505892466E+02  0.14326595233E+01  0.75857621007E+02  0.41800000000E+01 0.  1.
         -5    1    4    4    0  501  0.56605952583E+02 -0.52434438103E+02 -0.59017642978E+02  0.97232498424E+02  0.41800000000E+01 0.  1.
</event>
<event>
11    1  0.1078607E-008  0.1557165E+03  0.7561462E-02  0.1091177E+00
         22   -1    0    0    0    0  0.00000000000E+00  0.00000000000E+00  0.33531296719E+03  0.33531296719E+03  0.00000000000E+00 0. -1.
         22   -1    0    0    0    0 -0.00000000000E+00 -0.00000000000E+00 -0.99153700976E+03  0.99153700976E+03  0.00000000000E+00 0.  1.
         24    2    1    2    0    0  0.26529646586E+02 -0.11521053309E+02 -0.89046116423E+03  0.89465710218E+03  0.81570145637E+02 0.  0.
         25    2    1    2    0    0 -0.11427150516E+03 -0.48681322173E+01 -0.10118482426E-01  0.16949947923E+03  0.12509355600E+03 0.  0.
        -24    2    1    2    0    0  0.87741858575E+02  0.16389185527E+02  0.23424724014E+03  0.26269339554E+03  0.78541781242E+02 0.  0.
        -13    1    3    3    0    0  0.25461090476E+02 -0.15446188552E+02 -0.89007254574E+03  0.89057059717E+03  0.00000000000E+00 0.  1.
         14    1    3    3    0    0  0.10685561095E+01  0.39251352432E+01 -0.38861849103E+00  0.40865050065E+01  0.00000000000E+00 0. -1.
         11    1    5    5    0    0  0.97562403805E+02  0.29371027234E+02  0.19085829067E+03  0.21635148947E+03  0.00000000000E+00 0. -1.
        -12    1    5    5    0    0 -0.98205452300E+01 -0.12981841708E+02  0.43388949468E+02  0.46341906075E+02  0.00000000000E+00 0.  1.
          5    1    4    4  501    0 -0.78130839675E+02  0.24322852432E+02  0.54004140571E+02  0.98132302824E+02  0.41800000000E+01 0. -1.
         -5    1    4    4    0  501 -0.36140665486E+02 -0.29190984649E+02 -0.54014259053E+02  0.71367176402E+02  0.41800000000E+01 0. -1.
</event>
<event>
11    1  0.1078607E-008  0.1743859E+03  0.7561462E-02  0.1074277E+00
         22   -1    0    0    0    0  0.00000000000E+00  0.00000000000E+00  0.22228869148E+04  0.22228869148E+04  0.00000000000E+00 0. -1.
         22   -1    0    0    0    0 -0.00000000000E+00 -0.00000000000E+00 -0.26628118668E+03  0.26628118668E+03  0.00000000000E+00 0. -1.
        -24    2    1    2    0    0  0.11993297169E+03 -0.17585782287E+02 -0.23046739820E+03  0.27240023209E+03  0.79959285740E+02 0.  0.
         25    2    1    2    0    0 -0.12969171835E+03  0.80815298251E+01  0.57386881656E+03  0.60154683955E+03  0.12509168085E+03 0.  0.
         24    2    1    2    0    0  0.97587466570E+01  0.95042524616E+01  0.16132043098E+04  0.16152210299E+04  0.79531542617E+02 0.  0.
        -11    1    5    5    0    0  0.28098872666E+01  0.44225944832E+02  0.77082552007E+03  0.77209831761E+03  0.00000000000E+00 0.  1.
         12    1    5    5    0    0  0.69488593904E+01 -0.34721692370E+02  0.84237878971E+03  0.84312271226E+03  0.00000000000E+00 0. -1.
         13    1    3    3    0    0  0.82089713766E+02 -0.46964748224E+02 -0.17645672640E+03  0.20020335904E+03  0.00000000000E+00 0. -1.
        -14    1    3    3    0    0  0.37843257926E+02  0.29378965937E+02 -0.54010671801E+02  0.72196873051E+02  0.00000000000E+00 0.  1.
          5    1    4    4  501    0 -0.13152875310E+03  0.25707725738E+02  0.56608011403E+03  0.58174295694E+03  0.41800000000E+01 0. -1.
         -5    1    4    4    0  501  0.18370347551E+01 -0.17626195913E+02  0.77887025300E+01  0.19803882603E+02  0.41800000000E+01 0. -1.
</event>
<event>
11    1  0.1078607E-008  0.1751294E+03  0.7561462E-02  0.1073652E+00
         22   -1    0    0    0    0  0.00000000000E+00  0.00000000000E+00  0.32154152559E+03  0.32154152559E+03  0.00000000000E+00 0. -1.
         22   -1    0    0    0    0 -0.00000000000E+00 -0.00000000000E+00 -0.14757310967E+04  0.14757310967E+04  0.00000000000E+00 0.  1.
         24    2    1    2    0    0  0.40583904413E+02  0.11593601652E+03 -0.13504536323E+04  0.13584076687E+04  0.80362729252E+02 0.  0.
         25    2    1    2    0    0 -0.40712168337E+02 -0.11100970396E+03 -0.49463069754E+02  0.17909408704E+03  0.12508981461E+03 0.  0.
        -24    2    1    2    0    0  0.12826392349E+00 -0.49263125537E+01  0.24572713098E+03  0.25977086647E+03  0.84111801554E+02 0.  0.
        -13    1    3    3    0    0  0.53710234892E+02  0.12103529589E+03 -0.11933650052E+04  0.12006891221E+04  0.00000000000E+00 0.  1.
         14    1    3    3    0    0 -0.13126330479E+02 -0.50992793691E+01 -0.15708862708E+03  0.15771854666E+03  0.00000000000E+00 0. -1.
         11    1    5    5    0    0  0.15298132743E+02 -0.39530233221E+02  0.89355144096E+02  0.98899008995E+02  0.00000000000E+00 0. -1.
        -12    1    5    5    0    0 -0.15169868819E+02  0.34603920668E+02  0.15637198688E+03  0.16087185748E+03  0.00000000000E+00 0.  1.
          5    1    4    4  501    0  0.14930666046E+02  0.20949494532E+02  0.36022322390E+01  0.26310731400E+02  0.41800000000E+01 0. -1.
         -5    1    4    4    0  501 -0.55642834382E+02 -0.13195919850E+03 -0.53065301993E+02  0.15278335564E+03  0.41800000000E+01 0. -1.
</event>
<event>
11    1  0.1078607E-008  0.1589395E+03  0.7561462E-02  0.1088079E+00
         22   -1    0    0    0    0  0.00000000000E+00  0.00000000000E+00  0.76183527646E+03  0.76183527646E+03  0.00000000000E+00 0. -1.
         22   -1    0    0    0    0 -0.00000000000E+00 -0.00000000000E+00 -0.28339190380E+03  0.28339190380E+03  0.00000000000E+00 0. -1.
        -24    2    1    2    0    0 -0.21273149486E+01  0.64163602415E+02 -0.22903444821E+03  0.25106919082E+03  0.80358364642E+02 0.  0.
         25    2    1    2    0    0  0.98529813389E+02 -0.69272596062E+02  0.17286070712E+03  0.24502187111E+03  0.12509227221E+03 0.  0.
         24    2    1    2    0    0 -0.96402498441E+02  0.51089936473E+01  0.53461711375E+03  0.54913611833E+03  0.80096657947E+02 0.  0.
        -11    1    5    5    0    0 -0.21279654796E+02  0.37019438936E+02  0.15030587283E+03  0.15625337749E+03  0.00000000000E+00 0.  1.
         12    1    5    5    0    0 -0.75122843644E+02 -0.31910445289E+02  0.38431124092E+03  0.39288274084E+03  0.00000000000E+00 0. -1.
         13    1    3    3    0    0 -0.33395630045E+02  0.32509048996E+02 -0.17486324216E+03  0.18096756569E+03  0.00000000000E+00 0. -1.
        -14    1    3    3    0    0  0.31268315096E+02  0.31654553419E+02 -0.54171206055E+02  0.70101625135E+02  0.00000000000E+00 0.  1.
          5    1    4    4  501    0  0.40399615739E+02 -0.40065408596E+02  0.17049780043E+03  0.17978970568E+03  0.41800000000E+01 0. -1.
         -5    1    4    4    0  501  0.58130197650E+02 -0.29207187466E+02  0.23629066852E+01  0.65232165428E+02  0.41800000000E+01 0. -1.
</event>
<event>
11    1  0.1078607E-008  0.1527018E+03  0.7561462E-02  0.1094150E+00
         22   -1    0    0    0    0  0.00000000000E+00  0.00000000000E+00  0.28153791780E+03  0.28153791780E+03  0.00000000000E+00 0. -1.
         22   -1    0    0    0    0 -0.00000000000E+00 -0.00000000000E+00 -0.88067166451E+03  0.88067166451E+03  0.00000000000E+00 0.  1.
        -24    2    1    2    0    0  0.29908338686E+02 -0.71806363633E+02 -0.71318316630E+03  0.72176724641E+03  0.79164807351E+02 0.  0.
         25    2    1    2    0    0 -0.83854297291E+02  0.13110280966E+03 -0.78782298116E+02  0.21463866781E+03  0.12507444722E+03 0.  0.
         24    2    1    2    0    0  0.53945958605E+02 -0.59296446027E+02  0.19283171770E+03  0.22580366809E+03  0.85889406873E+02 0.  0.
        -13    1    5    5    0    0 -0.68222016050E+01 -0.11000698117E+02  0.11553894651E+03  0.11626179921E+03  0.00000000000E+00 0.  1.
         14    1    5    5    0    0  0.60768160210E+02 -0.48295747911E+02  0.77292771184E+02  0.10954186889E+03  0.00000000000E+00 0. -1.
         13    1    3    3    0    0  0.11069079360E+02  0.47442165785E+01 -0.15423611834E+02  0.19568339501E+02  0.00000000000E+00 0. -1.
        -14    1    3    3    0    0  0.18839259326E+02 -0.76550580212E+02 -0.69775955446E+03  0.70219890691E+03  0.00000000000E+00 0.  1.
          5    1    4    4  501    0 -0.11002921450E+03  0.96726836217E+02 -0.87030785171E+02  0.17045333337E+03  0.41800000000E+01 0.  1.
         -5    1    4    4    0  501  0.26174917208E+02  0.34375973444E+02  0.82484870550E+01  0.44185334442E+02  0.41800000000E+01 0.  1.
</event>
<event>
11    1  0.1078607E-008  0.1903879E+03  0.7561462E-02  0.1061537E+00
         22   -1    0    0    0    0  0.00000000000E+00  0.00000000000E+00  0.55724210400E+03  0.55724210400E+03  0.00000000000E+00 0.  1.
         22   -1    0    0    0    0 -0.00000000000E+00 -0.00000000000E+00 -0.17996540649E+04  0.17996540649E+04  0.00000000000E+00 0.  1.
        -24    2    1    2    0    0 -0.27783529404E+02  0.35239469064E+01 -0.17124375052E+04  0.17144128220E+04  0.77361309137E+02 0.  0.
         25    2    1    2    0    0 -0.64774480235E+02 -0.11665064258E+03  0.47992434445E+02  0.18908651539E+03  0.12508929144E+03 0.  0.
         24    2    1    2    0    0  0.92558009639E+02  0.11312669567E+03  0.42203310989E+03  0.45339683152E+03  0.78051947889E+02 0.  0.
        -13    1    5    5    0    0  0.16922960296E+02  0.68215942325E+02  0.25635563465E+03  0.26581574970E+03  0.00000000000E+00 0.  1.
         14    1    5    5    0    0  0.75635049343E+02  0.44910753349E+02  0.16567747524E+03  0.18758108182E+03  0.00000000000E+00 0. -1.
         11    1    3    3    0    0 -0.39552207044E+02 -0.22739196654E+02 -0.65657450271E+03  0.65815767545E+03  0.00000000000E+00 0. -1.
        -12    1    3    3    0    0  0.11768677640E+02  0.26263143560E+02 -0.10558630025E+04  0.10562551465E+04  0.00000000000E+00 0.  1.
          5    1    4    4  501    0 -0.99016183031E+02 -0.10080116925E+03  0.21959455399E+02  0.14305513030E+03  0.41800000000E+01 0. -1.
         -5    1    4    4    0  501  0.34241702796E+02 -0.15849473335E+02  0.26032979045E+02  0.46031385091E+02  0.41800000000E+01 0. -1.
</event>
<event>
11    1  0.1078607E-008  0.2330725E+03  0.7561462E-02  0.1033324E+00
         22   -1    0    0    0    0  0.00000000000E+00  0.00000000000E+00  0.68632573865E+03  0.68632573865E+03  0.00000000000E+00 0. -1.
         22   -1    0    0    0    0 -0.00000000000E+00 -0.00000000000E+00 -0.29189302379E+03  0.29189302379E+03  0.00000000000E+00 0.  1.
         24    2    1    2    0    0 -0.81813872152E+02  0.50508313813E+01 -0.12214357465E+03  0.16715239641E+03  0.79384193780E+02 0.  0.
         25    2    1    2    0    0  0.26665406305E+03  0.49893241423E+01  0.45294148784E+02  0.29804249241E+03  0.12509390342E+03 0.  0.
        -24    2    1    2    0    0 -0.18484019090E+03 -0.10040155524E+02  0.47128214073E+03  0.51302387362E+03  0.82582914956E+02 0.  0.
        -11    1    3    3    0    0 -0.25934089002E+02 -0.25189327841E+02 -0.87744010849E+02  0.94900424917E+02  0.00000000000E+00 0.  1.
         12    1    3    3    0    0 -0.55879783150E+02  0.30240159222E+02 -0.34399563804E+02  0.72251971493E+02  0.00000000000E+00 0. -1.
         13    1    5    5    0    0 -0.15116547429E+03 -0.37195673939E+02  0.40484309863E+03  0.43374238124E+03  0.00000000000E+00 0. -1.
        -14    1    5    5    0    0 -0.33674716611E+02  0.27155518416E+02  0.66439042098E+02  0.79281492381E+02  0.00000000000E+00 0.  1.
          5    1    4    4  501    0  0.42085521553E+02 -0.38757034387E+02 -0.18869393767E+02  0.60388949817E+02  0.41800000000E+01 0.  1.
         -5    1    4    4    0  501  0.22456854150E+03  0.43746358529E+02  0.64163542551E+02  0.23765354259E+03  0.41800000000E+01 0.  1.
</event>
<event>
11    1  0.1078607E-008  0.1382874E+03  0.7561462E-02  0.1109486E+00
         22   -1    0    0    0    0  0.00000000000E+00  0.00000000000E+00  0.92911561403E+03  0.92911561403E+03  0.00000000000E+00 0.  1.
         22   -1    0    0    0    0 -0.00000000000E+00 -0.00000000000E+00 -0.25534062666E+04  0.25534062666E+04  0.00000000000E+00 0.  1.
         24    2    1    2    0    0  0.28528405433E+01 -0.55425529271E+01 -0.25306285586E+04  0.25318634575E+04  0.78821362882E+02 0.  0.
         25    2    1    2    0    0 -0.10402978276E+02  0.63087099128E+02  0.24522656583E+03  0.28261608956E+03  0.12509029320E+03 0.  0.
        -24    2    1    2    0    0  0.75501377330E+01 -0.57544546201E+02  0.66111134020E+03  0.66804233355E+03  0.76445901800E+02 0.  0.
        -11    1    3    3    0    0  0.13106479111E+02  0.11920571067E+02 -0.23556989766E+04  0.23557655971E+04  0.00000000000E+00 0.  1.
         12    1    3    3    0    0 -0.10253638567E+02 -0.17463123994E+02 -0.17492958196E+03  0.17609786043E+03  0.00000000000E+00 0. -1.
         11    1    5    5    0    0 -0.10784691203E+02  0.13498237447E+02  0.59017452713E+02  0.61494485145E+02  0.00000000000E+00 0. -1.
        -12    1    5    5    0    0  0.18334828936E+02 -0.71042783648E+02  0.60209388749E+03  0.60654784841E+03  0.00000000000E+00 0.  1.
          5    1    4    4  501    0 -0.42104974956E+02 -0.18758518653E+02  0.12801221356E+03  0.13612240873E+03  0.41800000000E+01 0.  1.
         -5    1    4    4    0  501  0.31701996680E+02  0.81845617782E+02  0.11721435227E+03  0.14649368082E+03  0.41800000000E+01 0.  1.
</event>
<event>
11    1  0.1078607E-008  0.1321010E+03  0.7561462E-02  0.1116714E+00
         22   -1    0    0    0    0  0.00000000000E+00  0.00000000000E+00  0.91242002100E+03  0.91242002100E+03  0.00000000000E+00 0.  1.
         22   -1    0    0    0    0 -0.00000000000E+00 -0.00000000000E+00 -0.26307752697E+03  0.26307752697E+03  0.00000000000E+00 0.  1.
        -24    2    1    2    0    0 -0.20079271412E+02 -0.41923183797E+02 -0.16443419281E+03  0.18947890812E+03  0.81871377027E+02 0.  0.
         25    2    1    2    0    0 -0.23823982501E+02  0.36253432724E+02 -0.31430111151E+02  0.13608402821E+03  0.12509643209E+03 0.  0.
         24    2    1    2    0    0  0.43903253913E+02  0.56697510730E+01  0.84520679798E+03  0.84993461164E+03  0.77811765980E+02 0.  0.
        -13    1    5    5    0    0  0.52429645116E+02 -0.22080548148E+02  0.66223891487E+03  0.66467796613E+03  0.00000000000E+00 0.  1.
         14    1    5    5    0    0 -0.85263912032E+01  0.27750299221E+02  0.18296788311E+03  0.18525664551E+03  0.00000000000E+00 0. -1.
         11    1    3    3    0    0 -0.42671594367E+02 -0.46936163026E+02 -0.80931932570E+02  0.10282920828E+03  0.00000000000E+00 0. -1.
        -12    1    3    3    0    0  0.22592322955E+02  0.50129792292E+01 -0.83502260237E+02  0.86649699838E+02  0.00000000000E+00 0.  1.
          5    1    4    4  501    0 -0.26711927438E+02  0.81088102061E+02 -0.31107407496E+02  0.90961258591E+02  0.41800000000E+01 0.  1.
         -5    1    4    4    0  501  0.28879449370E+01 -0.44834669337E+02 -0.32270365527E+00  0.45122769620E+02  0.41800000000E+01 0.  1.
</event>
<event>
11    1  0.1078607E-008  0.1389687E+03  0.7561462E-02  0.1108716E+00
         22   -1    0    0    0    0  0.00000000000E+00  0.00000000000E+00  0.37916989323E+03  0.37916989323E+03  0.00000000000E+00 0.  1.
         22   -1    0    0    0    0 -0.00000000000E+00 -0.00000000000E+00 -0.19698755466E+04  0.19698755466E+04  0.00000000000E+00 0. -1.
         24    2    1    2    0    0  0.35994707830E+02 -0.30296225563E+02 -0.18935811340E+04  0.18958460210E+04  0.79806917063E+02 0.  0.
         25    2    1    2    0    0  0.20128503721E+01 -0.23377820958E+02 -0.55870246336E+01  0.12739669565E+03  0.12509248234E+03 0.  0.
        -24    2    1    2    0    0 -0.38007558202E+02  0.53674046521E+02  0.30846250528E+03  0.32580272316E+03  0.81687327681E+02 0.  0.
        -11    1    3    3    0    0  0.13301403202E+01 -0.28862373377E+02 -0.21807298421E+03  0.21997870877E+03  0.00000000000E+00 0.  1.
         12    1    3    3    0    0  0.34664567509E+02 -0.14338521862E+01 -0.16755081498E+04  0.16758673122E+04  0.00000000000E+00 0. -1.
         11    1    5    5    0    0 -0.12129746262E+02 -0.21405151983E+02  0.56574156457E+02  0.61692353291E+02  0.00000000000E+00 0. -1.
        -12    1    5    5    0    0 -0.25877811939E+02  0.75079198504E+02  0.25188834882E+03  0.26411036987E+03  0.00000000000E+00 0.  1.
          5    1    4    4  501    0  0.55140620059E+02 -0.27322422457E+02  0.24152839177E+02  0.66240733614E+02  0.41800000000E+01 0.  1.
         -5    1    4    4    0  501 -0.53127769687E+02  0.39446014991E+01 -0.29739863810E+02  0.61155962034E+02  0.41800000000E+01 0.  1.
</event>
<event>
11    1  0.1078607E-008  0.1346421E+03  0.7561462E-02  0.1113693E+00
         22   -1    0    0    0    0  0.00000000000E+00  0.00000000000E+00  0.28299498942E+03  0.28299498942E+03  0.00000000000E+00 0.  1.
         22   -1    0    0    0    0 -0.00000000000E+00 -0.00000000000E+00 -0.82133666080E+03  0.82133666080E+03  0.00000000000E+00 0. -1.
         24    2    1    2    0    0 -0.19881491583E+02  0.45944480701E+02 -0.72385420186E+03  0.73024218081E+03  0.82356348109E+02 0.  0.
         25    2    1    2    0    0  0.61400194600E+02 -0.21446831240E+02 -0.25454292908E+02  0.14326522133E+03  0.12508817749E+03 0.  0.
        -24    2    1    2    0    0 -0.41518703016E+02 -0.24497649460E+02  0.21096682339E+03  0.23082424807E+03  0.80305014784E+02 0.  0.
        -13    1    3    3    0    0  0.76499741674E+00  0.12205793702E+02 -0.11489616070E+02  0.16780283024E+02  0.00000000000E+00 0.  1.
         14    1    3    3    0    0 -0.20646489000E+02  0.33738686999E+02 -0.71236458579E+03  0.71346189779E+03  0.00000000000E+00 0. -1.
         11    1    5    5    0    0  0.68607842681E+01  0.23015259528E+01 -0.44001923708E+01  0.84693019420E+01  0.00000000000E+00 0. -1.
        -12    1    5    5    0    0 -0.48379487284E+02 -0.26799175413E+02  0.21536701576E+03  0.22235494613E+03  0.00000000000E+00 0.  1.
          5    1    4    4  501    0  0.88289138712E+02 -0.44946649805E+02 -0.36481470724E+02  0.10565767104E+03  0.41800000000E+01 0.  1.
         -5    1    4    4    0  501 -0.26888944112E+02  0.23499818565E+02  0.11027177816E+02  0.37607550288E+02  0.41800000000E+01 0.  1.
</event>
<event>
11    1  0.1078607E-008  0.1523368E+03  0.7561462E-02  0.1094515E+00
         22   -1    0    0    0    0  0.00000000000E+00  0.00000000000E+00  0.69586549136E+03  0.69586549136E+03  0.00000000000E+00 0.  1.
         22   -1    0    0    0    0 -0.00000000000E+00 -0.00000000000E+00 -0.12691053651E+04  0.12691053651E+04  0.00000000000E+00 0.  1.
        -24    2    1    2    0    0  0.39275517745E+02 -0.16864865035E+02 -0.11569023854E+04  0.11604286200E+04  0.79652135748E+02 0.  0.
         25    2    1    2    0    0 -0.43065836560E+02  0.10274695016E+03 -0.37893359984E+02  0.17174577077E+03  0.12509636686E+03 0.  0.
         24    2    1    2    0    0  0.37903188144E+01 -0.85882085121E+02  0.62155587169E+03  0.63279646568E+03  0.81911942186E+02 0.  0.
        -13    1    5    5    0    0  0.18896635139E+02 -0.34889621499E+02  0.47904429209E+03  0.48068472234E+03  0.00000000000E+00 0.  1.
         14    1    5    5    0    0 -0.15106316324E+02 -0.50992463622E+02  0.14251157961E+03  0.15211174334E+03  0.00000000000E+00 0. -1.
         11    1    3    3    0    0  0.41797251738E+00 -0.66976158333E+01 -0.65571298964E+01  0.93823617152E+01  0.00000000000E+00 0. -1.
        -12    1    3    3    0    0  0.38857545228E+02 -0.10167249202E+02 -0.11503452555E+04  0.11510462583E+04  0.00000000000E+00 0.  1.
          5    1    4    4  501    0 -0.72289705828E+02  0.10828989470E+03 -0.98306870531E+01  0.13063926543E+03  0.41800000000E+01 0.  1.
         -5    1    4    4    0  501  0.29223869269E+02 -0.55429445454E+01 -0.28062672931E+02  0.41106505340E+02  0.41800000000E+01 0.  1.
</event>
<event>
11    1  0.1078607E-008  0.2279378E+03  0.7561462E-02  0.1036356E+00
         22   -1    0    0    0    0  0.00000000000E+00  0.00000000000E+00  0.11262034374E+04  0.11262034374E+04  0.00000000000E+00 0. -1.
         22   -1    0    0    0    0 -0.00000000000E+00 -0.00000000000E+00 -0.54000075215E+03  0.54000075215E+03  0.00000000000E+00 0.  1.
         24    2    1    2    0    0  0.96103894947E+00 -0.63511633855E+02 -0.36107270116E+03  0.37486997172E+03  0.78226267624E+02 0.  0.
         25    2    1    2    0    0 -0.10516459201E+03  0.21919527640E+03 -0.46078832893E+02  0.27725711012E+03  0.12506832399E+03 0.  0.
        -24    2    1    2    0    0  0.10420355306E+03 -0.15568364254E+03  0.99335421933E+03  0.10140771077E+04  0.80647370223E+02 0.  0.
        -13    1    3    3    0    0 -0.11127669789E+02 -0.10583117934E+02 -0.25725838763E+03  0.25771632744E+03  0.00000000000E+00 0.  1.
         14    1    3    3    0    0  0.12088708738E+02 -0.52928515921E+02 -0.10381431353E+03  0.11715364429E+03  0.00000000000E+00 0. -1.
         11    1    5    5    0    0  0.10345049823E+03 -0.11033272118E+03  0.86057448660E+03  0.87376413404E+03  0.00000000000E+00 0. -1.
        -12    1    5    5    0    0  0.75305482466E+00 -0.45350921366E+02  0.13277973273E+03  0.14031297368E+03  0.00000000000E+00 0.  1.
          5    1    4    4  501    0 -0.25255392532E+02  0.58667975312E+02 -0.71650180516E+02  0.96078025308E+02  0.41800000000E+01 0. -1.
         -5    1    4    4    0  501 -0.79909199475E+02  0.16052730109E+03  0.25571347623E+02  0.18117908481E+03  0.41800000000E+01 0. -1.
</event>
<event>
11    1  0.1078607E-008  0.1569646E+03  0.7561462E-02  0.1089967E+00
         22   -1    0    0    0    0  0.00000000000E+00  0.00000000000E+00  0.29742329227E+03  0.29742329227E+03  0.00000000000E+00 0.  1.
         22   -1    0    0    0    0 -0.00000000000E+00 -0.00000000000E+00 -0.38941297533E+03  0.38941297533E+03  0.00000000000E+00 0. -1.
        -24    2    1    2    0    0  0.22540359923E+02  0.11156920318E+02 -0.28383130367E+03  0.29635371015E+03  0.81441806716E+02 0.  0.
         25    2    1    2    0    0 -0.97063199928E+01 -0.10350539155E+03  0.25209050721E+00  0.16266915609E+03  0.12511439591E+03 0.  0.
         24    2    1    2    0    0 -0.12834039931E+02  0.92348471237E+02  0.19158953010E+03  0.22781340136E+03  0.80619135923E+02 0.  0.
        -11    1    5    5    0    0 -0.65799102620E+01  0.10588605248E+03  0.17995472669E+03  0.20889915028E+03  0.00000000000E+00 0.  1.
         12    1    5    5    0    0 -0.62541296686E+01 -0.13537581241E+02  0.11634803404E+02  0.18914251083E+02  0.00000000000E+00 0. -1.
         13    1    3    3    0    0  0.19533045757E+02  0.44945364911E+02 -0.13263961119E+03  0.14140329615E+03  0.00000000000E+00 0. -1.
        -14    1    3    3    0    0  0.30073141664E+01 -0.33788444593E+02 -0.15119169247E+03  0.15495041400E+03  0.00000000000E+00 0.  1.
          5    1    4    4  501    0 -0.57401126044E+02 -0.18368726572E+02  0.18752754508E+02  0.63256917319E+02  0.41800000000E+01 0.  1.
         -5    1    4    4    0  501  0.47694806052E+02 -0.85136664982E+02 -0.18500664001E+02  0.99412238769E+02  0.41800000000E+01 0.  1.
</event>
<event>
11    1  0.1078607E-008  0.1545035E+03  0.7561462E-02  0.1092364E+00
         22   -1    0    0    0    0  0.00000000000E+00  0.00000000000E+00  0.94642029232E+03  0.94642029232E+03  0.00000000000E+00 0. -1.
         22   -1    0    0    0    0 -0.00000000000E+00 -0.00000000000E+00 -0.14353525611E+03  0.14353525611E+03  0.00000000000E+00 0. -1.
        -24    2    1    2    0    0  0.83680428643E+01 -0.26144610614E+01 -0.87123706811E+02  0.11910188379E+03  0.80733257622E+02 0.  0.
         25    2    1    2    0    0 -0.97932349426E+02 -0.15613137529E+01  0.14287279927E+03  0.21366586813E+03  0.12508910293E+03 0.  0.
         24    2    1    2    0    0  0.89564306562E+02  0.41757748143E+01  0.74713594375E+03  0.75718779650E+03  0.84154849106E+02 0.  0.
        -11    1    5    5    0    0  0.15637596227E+02  0.30281301810E+02  0.10770408699E+03  0.11296752635E+03  0.00000000000E+00 0.  1.
         12    1    5    5    0    0  0.73926710335E+02 -0.26105526996E+02  0.63943185676E+03  0.64422027015E+03  0.00000000000E+00 0. -1.
         11    1    3    3    0    0 -0.24819894503E+02  0.70982717153E+01 -0.79642600106E+02  0.83721899024E+02  0.00000000000E+00 0. -1.
        -12    1    3    3    0    0  0.33187937367E+02 -0.97127327766E+01 -0.74811067051E+01  0.35379984769E+02  0.00000000000E+00 0.  1.
          5    1    4    4  501    0 -0.96041806272E+02  0.38417375027E+02  0.13889074856E+03  0.17322827625E+03  0.41800000000E+01 0.  1.
         -5    1    4    4    0  501 -0.18905431539E+01 -0.39978688780E+02  0.39820507083E+01  0.40437591890E+02  0.41800000000E+01 0.  1.
</event>
<event>
11    1  0.1078607E-008  0.1396569E+03  0.7561462E-02  0.1107942E+00
         22   -1    0    0    0    0  0.00000000000E+00  0.00000000000E+00  0.80102618197E+03  0.80102618197E+03  0.00000000000E+00 0.  1.
         22   -1    0    0    0    0 -0.00000000000E+00 -0.00000000000E+00 -0.57534159258E+03  0.57534159258E+03  0.00000000000E+00 0.  1.
        -24    2    1    2    0    0 -0.30049405177E+01  0.25146829956E+02 -0.47411166808E+03  0.48161887758E+03  0.80829924556E+02 0.  0.
         25    2    1    2    0    0  0.63538651958E+02 -0.37743655245E+02 -0.38145990637E+02  0.15021123920E+03  0.12508619419E+03 0.  0.
         24    2    1    2    0    0 -0.60533711440E+02  0.12596825289E+02  0.73794224811E+03  0.74453765777E+03  0.77165744083E+02 0.  0.
        -13    1    5    5    0    0 -0.58107037171E+02  0.24704481155E+02  0.71996209087E+03  0.72272550215E+03  0.00000000000E+00 0.  1.
         14    1    5    5    0    0 -0.24266742685E+01 -0.12107655865E+02  0.17980157235E+02  0.21812155619E+02  0.00000000000E+00 0. -1.
         13    1    3    3    0    0 -0.14623885880E+02 -0.26579505815E+02 -0.13330542488E+03  0.13671380497E+03  0.00000000000E+00 0. -1.
        -14    1    3    3    0    0  0.11618945362E+02  0.51726335772E+02 -0.34080624320E+03  0.34490507260E+03  0.00000000000E+00 0.  1.
          5    1    4    4  501    0  0.85093916599E+02 -0.64149962428E+02 -0.44010977867E+02  0.11537170751E+03  0.41800000000E+01 0.  1.
         -5    1    4    4    0  501 -0.21555264642E+02  0.26406307183E+02  0.58649872295E+01  0.34839531685E+02  0.41800000000E+01 0.  1.
</event>
<event>
11    1  0.1078607E-008  0.1865125E+03  0.7561462E-02  0.1064493E+00
         22   -1    0    0    0    0  0.00000000000E+00  0.00000000000E+00  0.82440519977E+03  0.82440519977E+03  0.00000000000E+00 0. -1.
         22   -1    0    0    0    0 -0.00000000000E+00 -0.00000000000E+00 -0.25231343651E+03  0.25231343651E+03  0.00000000000E+00 0. -1.
        -24    2    1    2    0    0  0.13438943473E+03  0.78901842954E+02 -0.11925590313E+03  0.21129897794E+03  0.78353472551E+02 0.  0.
         25    2    1    2    0    0 -0.11888515687E+03  0.87686335260E+01  0.93659855408E+01  0.17304600313E+03  0.12508648231E+03 0.  0.
         24    2    1    2    0    0 -0.15504277854E+02 -0.87670476480E+02  0.68198168084E+03  0.69237365521E+03  0.79723085362E+02 0.  0.
        -13    1    5    5    0    0 -0.44420389719E+02 -0.63154357485E+02  0.53677621968E+03  0.54230098092E+03  0.00000000000E+00 0.  1.
         14    1    5    5    0    0  0.28916111865E+02 -0.24516118995E+02  0.14520546117E+03  0.15007267429E+03  0.00000000000E+00 0. -1.
         13    1    3    3    0    0  0.12039520360E+03  0.85750283300E+02 -0.12609051471E+03  0.19428570208E+03  0.00000000000E+00 0. -1.
        -14    1    3    3    0    0  0.13994231130E+02 -0.68484403466E+01  0.68346115755E+01  0.17013275860E+02  0.00000000000E+00 0.  1.
          5    1    4    4  501    0  0.21969367742E+02 -0.16789579458E+02  0.10374441752E+02  0.29826909646E+02  0.41800000000E+01 0.  1.
         -5    1    4    4    0  501 -0.14085452461E+03  0.25558212984E+02 -0.10084562114E+01  0.14321909349E+03  0.41800000000E+01 0.  1.
</event>
<event>
11    1  0.1078607E-008  0.1531926E+03  0.7561462E-02  0.1093661E+00
         22   -1    0    0    0    0  0.00000000000E+00  0.00000000000E+00  0.34352416943E+03  0.34352416943E+03  0.00000000000E+00 0. -1.
         22   -1    0    0    0    0 -0.00000000000E+00 -0.00000000000E+00 -0.47511583067E+03  0.47511583067E+03  0.00000000000E+00 0.  1.
         24    2    1    2    0    0  0.20484916589E+02 -0.29010988623E+02 -0.38486235956E+03  0.39463840754E+03  0.79744389334E+02 0.  0.
         25    2    1    2    0    0 -0.10536598280E+03  0.28462537263E+02  0.26010119331E+02  0.16803733416E+03  0.12509161844E+03 0.  0.
        -24    2    1    2    0    0  0.84881066213E+02  0.54845135930E+00  0.22726057898E+03  0.25596425840E+03  0.81640888166E+02 0.  0.
        -11    1    3    3    0    0  0.49336135969E+02 -0.18029366968E+02 -0.18156159953E+03  0.18900721364E+03  0.00000000000E+00 0.  1.
         12    1    3    3    0    0 -0.28851219379E+02 -0.10981621655E+02 -0.20330076003E+03  0.20563119390E+03  0.00000000000E+00 0. -1.
         11    1    5    5    0    0  0.75663167150E+02 -0.80491616370E+01  0.88840921651E+02  0.11697184801E+03  0.00000000000E+00 0. -1.
        -12    1    5    5    0    0  0.92178990630E+01  0.85976129963E+01  0.13841965733E+03  0.13899241040E+03  0.00000000000E+00 0.  1.
          5    1    4    4  501    0 -0.75746438881E+01  0.58047553327E+02 -0.10185610077E+02  0.59566036714E+02  0.41800000000E+01 0. -1.
         -5    1    4    4    0  501 -0.97791338914E+02 -0.29585016063E+02  0.36195729408E+02  0.10847129745E+03  0.41800000000E+01 0. -1.
</event>
<event>
11    1  0.1078607E-008  0.1541060E+03  0.7561462E-02  0.1092756E+00
         22   -1    0    0    0    0  0.00000000000E+00  0.00000000000E+00  0.18871126267E+04  0.18871126267E+04  0.00000000000E+00 0.  1.
         22   -1    0    0    0    0 -0.00000000000E+00 -0.00000000000E+00 -0.21223862685E+03  0.21223862685E+03  0.00000000000E+00 0.  1.
         24    2    1    2    0    0 -0.19677898602E+01 -0.89496791408E+02 -0.18107507550E+03  0.21773537914E+03  0.81283236247E+02 0.  0.
         25    2    1    2    0    0  0.34152222709E+02  0.10548431096E+03  0.60729404038E+03  0.62987888934E+03  0.12509216435E+03 0.  0.
        -24    2    1    2    0    0 -0.32184432849E+02 -0.15987519550E+02  0.12486550350E+04  0.12517369851E+04  0.80091478453E+02 0.  0.
        -13    1    3    3    0    0  0.12354885312E+02 -0.88788069523E+02 -0.95556946243E+02  0.13102325922E+03  0.00000000000E+00 0.  1.
         14    1    3    3    0    0 -0.14322675172E+02 -0.70872188549E+00 -0.85518129256E+02  0.86712119927E+02  0.00000000000E+00 0. -1.
         13    1    5    5    0    0  0.12639052642E+02  0.22559912044E+02  0.54062217370E+03  0.54124027010E+03  0.00000000000E+00 0. -1.
        -14    1    5    5    0    0 -0.44823485491E+02 -0.38547431594E+02  0.70803286131E+03  0.71049671500E+03  0.00000000000E+00 0.  1.
          5    1    4    4  501    0  0.63359941455E+01  0.10509791586E+03  0.58378298817E+03  0.59321645831E+03  0.41800000000E+01 0.  1.
         -5    1    4    4    0  501  0.27816228564E+02  0.38639509430E+00  0.23511052214E+02  0.36662431028E+02  0.41800000000E+01 0.  1.
</event>
<event>
11    1  0.1078607E-008  0.1720394E+03  0.7561462E-02  0.1076270E+00
         22   -1    0    0    0    0  0.00000000000E+00  0.00000000000E+00  0.32200686728E+03  0.32200686728E+03  0.00000000000E+00 0.  1.
         22   -1    0    0    0    0 -0.00000000000E+00 -0.00000000000E+00 -0.10462138998E+04  0.10462138998E+04  0.00000000000E+00 0. -1.
         24    2    1    2    0    0  0.91593965251E+02  0.66569098677E+02 -0.82607476910E+03  0.83763889609E+03  0.80115521118E+02 0.  0.
         25    2    1    2    0    0 -0.13396267175E+03 -0.88733310433E+02 -0.15607238486E+03  0.25656378806E+03  0.12508713053E+03 0.  0.
        -24    2    1    2    0    0  0.42368706499E+02  0.22164211755E+02  0.25794012148E+03  0.27401808290E+03  0.79160873611E+02 0.  0.
        -11    1    3    3    0    0  0.17634117582E+02 -0.14603133942E+02 -0.70469688929E+02  0.74095820945E+02  0.00000000000E+00 0.  1.
         12    1    3    3    0    0  0.73959847669E+02  0.81172232619E+02 -0.75560508017E+03  0.76354307514E+03  0.00000000000E+00 0. -1.
         11    1    5    5    0    0  0.60491720925E+02  0.14946610553E+02  0.12516371449E+03  0.13981632555E+03  0.00000000000E+00 0. -1.
        -12    1    5    5    0    0 -0.18123014426E+02  0.72176012021E+01  0.13277640700E+03  0.13420175734E+03  0.00000000000E+00 0.  1.
          5    1    4    4  501    0 -0.61707354001E+02 -0.20250563752E+02 -0.14165038319E+03  0.15588517033E+03  0.41800000000E+01 0. -1.
         -5    1    4    4    0  501 -0.72255317750E+02 -0.68482746680E+02 -0.14422001670E+02  0.10067861773E+03  0.41800000000E+01 0. -1.
</event>
<event>
11    1  0.1078607E-008  0.1551129E+03  0.7561462E-02  0.1091766E+00
         22   -1    0    0    0    0  0.00000000000E+00  0.00000000000E+00  0.39026945454E+03  0.39026945454E+03  0.00000000000E+00 0.  1.
         22   -1    0    0    0    0 -0.00000000000E+00 -0.00000000000E+00 -0.26802372750E+03  0.26802372750E+03  0.00000000000E+00 0. -1.
         24    2    1    2    0    0 -0.94106450501E+02  0.10175539023E+02 -0.20847496808E+03  0.24255014300E+03  0.80057441468E+02 0.  0.
         25    2    1    2    0    0  0.67281001758E+02  0.56089450851E+01  0.11284383341E+03  0.18149141993E+03  0.12508881368E+03 0.  0.
        -24    2    1    2    0    0  0.26825448744E+02 -0.15784484108E+02  0.21787686171E+03  0.23425161911E+03  0.80216828326E+02 0.  0.
        -11    1    3    3    0    0  0.65173851478E+01 -0.36610762179E+01  0.29156843750E+01  0.80237773905E+01  0.00000000000E+00 0.  1.
         12    1    3    3    0    0 -0.10062383565E+03  0.13836615241E+02 -0.21139065246E+03  0.23452636561E+03  0.00000000000E+00 0. -1.
         13    1    5    5    0    0 -0.52573052323E+01  0.14224383366E+02  0.36915923822E+01  0.15607696651E+02  0.00000000000E+00 0. -1.
        -14    1    5    5    0    0  0.32082753976E+02 -0.30008867474E+02  0.21418526933E+03  0.21864392245E+03  0.00000000000E+00 0.  1.
          5    1    4    4  501    0  0.52564648371E+02  0.63340088585E+02  0.64645487026E+02  0.10474502601E+03  0.41800000000E+01 0. -1.
         -5    1    4    4    0  501  0.14716353386E+02 -0.57731143500E+02  0.48198346380E+02  0.76746393925E+02  0.41800000000E+01 0. -1.
</event>
<event>
11    1  0.1078607E-008  0.1301396E+03  0.7561462E-02  0.1119098E+00
         22   -1    0    0    0    0  0.00000000000E+00  0.00000000000E+00  0.20458717608E+04  0.20458717608E+04  0.00000000000E+00 0.  1.
         22   -1    0    0    0    0 -0.00000000000E+00 -0.00000000000E+00 -0.41378249074E+03  0.41378249074E+03  0.00000000000E+00 0. -1.
        -24    2    1    2    0    0 -0.29601872253E+02  0.10165600795E+02 -0.34532907735E+03  0.35622932932E+03  0.81655086340E+02 0.  0.
         25    2    1    2    0    0  0.45516102750E+02  0.21957724281E+02  0.11358683524E+02  0.13538553095E+03  0.12508543095E+03 0.  0.
         24    2    1    2    0    0 -0.15914230497E+02 -0.32123325076E+02  0.19660596639E+04  0.19680393913E+04  0.80642872637E+02 0.  0.
        -13    1    5    5    0    0 -0.25589214241E+02 -0.51579685185E+02  0.17363216909E+04  0.17372761110E+04  0.00000000000E+00 0.  1.
         14    1    5    5    0    0  0.96749837445E+01  0.19456360108E+02  0.22973797307E+03  0.23076328029E+03  0.00000000000E+00 0. -1.
         13    1    3    3    0    0 -0.45167687852E+02 -0.22283238003E+02 -0.22839321830E+03  0.23388057826E+03  0.00000000000E+00 0. -1.
        -14    1    3    3    0    0  0.15565815599E+02  0.32448838798E+02 -0.11693585905E+03  0.12234875106E+03  0.00000000000E+00 0.  1.
          5    1    4    4  501    0  0.62161981255E+01  0.62809413523E+02  0.36724104632E+02  0.73142298346E+02  0.41800000000E+01 0. -1.
         -5    1    4    4    0  501  0.39299904625E+02 -0.40851689242E+02 -0.25365421108E+02  0.62243232608E+02  0.41800000000E+01 0. -1.
</event>
<event>
11    1  0.1078607E-008  0.1405513E+03  0.7561462E-02  0.1106944E+00
         22   -1    0    0    0    0  0.00000000000E+00  0.00000000000E+00  0.29827366282E+03  0.29827366282E+03  0.00000000000E+00 0.  1.
         22   -1    0    0    0    0 -0.00000000000E+00 -0.00000000000E+00 -0.58792339412E+03  0.58792339412E+03  0.00000000000E+00 0. -1.
        -24    2    1    2    0    0 -0.53313658592E+02 -0.28095011806E+02 -0.44141404669E+03  0.45475898838E+03  0.91256238215E+02 0.  0.
         25    2    1    2    0    0  0.70028647869E+02  0.59893053863E+02 -0.86260193549E+02  0.17770640554E+03  0.12509019209E+03 0.  0.
         24    2    1    2    0    0 -0.16714989277E+02 -0.31798042057E+02  0.23802450894E+03  0.25373166301E+03  0.80209622951E+02 0.  0.
        -13    1    5    5    0    0  0.17699102993E+02 -0.33658664027E+02  0.19465933111E+03  0.19833915170E+03  0.00000000000E+00 0.  1.
         14    1    5    5    0    0 -0.34414092270E+02  0.18606219700E+01  0.43365177834E+02  0.55392511312E+02  0.00000000000E+00 0. -1.
         11    1    3    3    0    0 -0.33297218212E+02 -0.59552266832E+02 -0.33827828140E+03  0.34509038366E+03  0.00000000000E+00 0. -1.
        -12    1    3    3    0    0 -0.20016440380E+02  0.31457255026E+02 -0.10313576529E+03  0.10966860472E+03  0.00000000000E+00 0.  1.
          5    1    4    4  501    0 -0.24879977278E+02  0.52142734493E+02 -0.18677875222E+02  0.60862249815E+02  0.41800000000E+01 0.  1.
         -5    1    4    4    0  501  0.94908625146E+02  0.77503193695E+01 -0.67582318327E+02  0.11684415573E+03  0.41800000000E+01 0.  1.
</event>
<event>
11    1  0.1078607E-008  0.1943155E+03  0.7561462E-02  0.1058618E+00
         22   -1    0    0    0    0  0.00000000000E+00  0.00000000000E+00  0.19700558689E+03  0.19700558689E+03  0.00000000000E+00 0.  1.
         22   -1    0    0    0    0 -0.00000000000E+00 -0.00000000000E+00 -0.10757357931E+04  0.10757357931E+04  0.00000000000E+00 0. -1.
         24    2    1    2    0    0 -0.16668578336E+02 -0.43203980926E+02 -0.73245823906E+03  0.73827717689E+03  0.80085532243E+02 0.  0.
         25    2    1    2    0    0  0.64410739449E+02 -0.10248849716E+03 -0.27038166838E+03  0.32157362173E+03  0.12510280647E+03 0.  0.
        -24    2    1    2    0    0 -0.47742161113E+02  0.14569247808E+03  0.12410970126E+03  0.21289058135E+03  0.80084764862E+02 0.  0.
        -13    1    3    3    0    0 -0.82204332775E+01 -0.16373582999E+02 -0.29300579644E+02  0.34557107966E+02  0.00000000000E+00 0.  1.
         14    1    3    3    0    0 -0.84481450584E+01 -0.26830397927E+02 -0.70315765941E+03  0.70372006892E+03  0.00000000000E+00 0. -1.
         13    1    5    5    0    0  0.22467298027E+02  0.42138888653E+02  0.30977761673E+02  0.56921763288E+02  0.00000000000E+00 0. -1.
        -14    1    5    5    0    0 -0.70209459140E+02  0.10355358943E+03  0.93131939584E+02  0.15596881806E+03  0.00000000000E+00 0.  1.
          5    1    4    4  501    0  0.94659342888E+02 -0.56452349732E+02 -0.12865129379E+03  0.16945762532E+03  0.41800000000E+01 0.  1.
         -5    1    4    4    0  501 -0.30248603439E+02 -0.46036147424E+02 -0.14173037459E+03  0.15211599640E+03  0.41800000000E+01 0.  1.
</event>
<event>
11    1  0.1078607E-008  0.1350465E+03  0.7561462E-02  0.1113219E+00
         22   -1    0    0    0    0  0.00000000000E+00  0.00000000000E+00  0.79839979271E+03  0.79839979271E+03  0.00000000000E+00 0.  1.
         22   -1    0    0    0    0 -0.00000000000E+00 -0.00000000000E+00 -0.56047478284E+02  0.56047478284E+02  0.00000000000E+00 0.  1.
         24    2    1    2    0    0 -0.49187088410E+02 -0.11465738348E+02  0.76990283502E+02  0.12305959921E+03  0.81641462398E+02 0.  0.
         25    2    1    2    0    0  0.53318129647E+02 -0.10022186083E+02  0.12625661057E+03  0.18582629540E+03  0.12508962062E+03 0.  0.
        -24    2    1    2    0    0 -0.41310412369E+01  0.21487924431E+02  0.53910542035E+03  0.54556137637E+03  0.80769825711E+02 0.  0.
        -13    1    3    3    0    0 -0.43564396879E+02 -0.29480674176E+02  0.10106152569E+02  0.53563991123E+02  0.00000000000E+00 0.  1.
         14    1    3    3    0    0 -0.56226915307E+01  0.18014935828E+02  0.66884130933E+02  0.69495608089E+02  0.00000000000E+00 0. -1.
         13    1    5    5    0    0 -0.22390150390E+02 -0.17229829945E+02  0.37160610665E+03  0.37267852685E+03  0.00000000000E+00 0. -1.
        -14    1    5    5    0    0  0.18259109154E+02  0.38717754376E+02  0.16749931370E+03  0.17288284952E+03  0.00000000000E+00 0.  1.
          5    1    4    4  501    0  0.31406967697E+01 -0.52043558439E+02  0.11352066679E+02  0.53523245129E+02  0.41800000000E+01 0.  1.
         -5    1    4    4    0  501  0.50177432877E+02  0.42021372356E+02  0.11490454389E+03  0.13230305028E+03  0.41800000000E+01 0.  1.
</event>
<event>
11    1  0.1078607E-008  0.1725837E+03  0.7561462E-02  0.1075805E+00
         22   -1    0    0    0    0  0.00000000000E+00  0.00000000000E+00  0.18908340570E+04  0.18908340570E+04  0.00000000000E+00 0.  1.
         22   -1    0    0    0    0 -0.00000000000E+00 -0.00000000000E+00 -0.10536970590E+03  0.10536970590E+03  0.00000000000E+00 0. -1.
        -24    2    1    2    0    0  0.83479511174E+02  0.66167216654E+02 -0.10946479693E+02  0.13317106920E+03  0.79169305347E+02 0.  0.
         25    2    1    2    0    0 -0.19183288063E+03 -0.78186126613E+02  0.46286225924E+03  0.52230434957E+03  0.12508972006E+03 0.  0.
         24    2    1    2    0    0  0.10835336945E+03  0.12018909959E+02  0.13335485716E+04  0.13407283441E+04  0.85532410091E+02 0.  0.
        -13    1    5    5    0    0  0.90470999037E+02 -0.22573915211E+02  0.11010383404E+04  0.11049796425E+04  0.00000000000E+00 0.  1.
         14    1    5    5    0    0  0.17882370418E+02  0.34592825171E+02  0.23251023116E+03  0.23574870163E+03  0.00000000000E+00 0. -1.
         11    1    3    3    0    0  0.50956354592E+02  0.54997853057E+02 -0.42770703207E+02  0.86317130206E+02  0.00000000000E+00 0. -1.
        -12    1    3    3    0    0  0.32523156582E+02  0.11169363597E+02  0.31824223514E+02  0.46853938996E+02  0.00000000000E+00 0.  1.
          5    1    4    4  501    0 -0.11747574370E+03 -0.10708603575E+03  0.34547283052E+03  0.38031160702E+03  0.41800000000E+01 0. -1.
         -5    1    4    4    0  501 -0.74357136927E+02  0.28899909137E+02  0.11738942872E+03  0.14199274255E+03  0.41800000000E+01 0. -1.
</event>
<event>
11    1  0.1078607E-008  0.1350001E+03  0.7561462E-02  0.1113274E+00
         22   -1    0    0    0    0  0.00000000000E+00  0.00000000000E+00  0.64520972812E+02  0.64520972812E+02  0.00000000000E+00 0.  1.
         22   -1    0    0    0    0 -0.00000000000E+00 -0.00000000000E+00 -0.11839490681E+04  0.11839490681E+04  0.00000000000E+00 0.  1.
         24    2    1    2    0    0 -0.46789579031E+02  0.17078816307E+02 -0.85914874271E+03  0.86421265373E+03  0.79031627207E+02 0.  0.
         25    2    1    2    0    0  0.59217054247E+02 -0.36057159099E+01 -0.26229910803E+03  0.29659498526E+03  0.12509237590E+03 0.  0.
        -24    2    1    2    0    0 -0.12427475215E+02 -0.13473100397E+02  0.20197554197E+01  0.87662401952E+02  0.85700937740E+02 0.  0.
        -11    1    3    3    0    0 -0.61810395468E+02 -0.64861018778E+01 -0.68756179915E+03  0.69036499198E+03  0.00000000000E+00 0.  1.
         12    1    3    3    0    0  0.15020816437E+02  0.23564918185E+02 -0.17158694356E+03  0.17384766175E+03  0.00000000000E+00 0. -1.
         11    1    5    5    0    0  0.25896413249E+02  0.23024154471E+02  0.24526757536E+01  0.34738329358E+02  0.00000000000E+00 0. -1.
        -12    1    5    5    0    0 -0.38323888464E+02 -0.36497254868E+02 -0.43292033389E+00  0.52924072594E+02  0.00000000000E+00 0.  1.
          5    1    4    4  501    0 -0.29180102446E+02  0.13995313541E+02 -0.20567112695E+02  0.38572343777E+02  0.41800000000E+01 0.  1.
         -5    1    4    4    0  501  0.88397156693E+02 -0.17601029451E+02 -0.24173199533E+03  0.25802264148E+03  0.41800000000E+01 0.  1.
</event>
<event>
11    1  0.1078607E-008  0.1402388E+03  0.7561462E-02  0.1107292E+00
         22   -1    0    0    0    0  0.00000000000E+00  0.00000000000E+00  0.17631584664E+04  0.17631584664E+04  0.00000000000E+00 0.  1.
         22   -1    0    0    0    0 -0.00000000000E+00 -0.00000000000E+00 -0.18174222461E+03  0.18174222461E+03  0.00000000000E+00 0.  1.
         24    2    1    2    0    0  0.39227487432E+02 -0.16049794753E+02 -0.15827714950E+03  0.18154586235E+03  0.78171941275E+02 0.  0.
         25    2    1    2    0    0 -0.45743353774E+02  0.74662330352E+02  0.60283033342E+03  0.62187195334E+03  0.12511353837E+03 0.  0.
        -24    2    1    2    0    0  0.65158663414E+01 -0.58612535599E+02  0.11368630578E+04  0.11414828753E+04  0.83950321216E+02 0.  0.
        -11    1    3    3    0    0  0.59483064087E+02  0.10907720718E+01 -0.12885273114E+03  0.14192410302E+03  0.00000000000E+00 0.  1.
         12    1    3    3    0    0 -0.20255576655E+02 -0.17140566825E+02 -0.29424418360E+02  0.39621759331E+02  0.00000000000E+00 0. -1.
         11    1    5    5    0    0 -0.15272707323E+02 -0.15678775728E+01  0.38857244215E+02  0.41780369279E+02  0.00000000000E+00 0. -1.
        -12    1    5    5    0    0  0.21788573664E+02 -0.57044658026E+02  0.10980058136E+04  0.10997025060E+04  0.00000000000E+00 0.  1.
          5    1    4    4  501    0 -0.70524259919E+02  0.37045086853E+02  0.18325372123E+03  0.19986347450E+03  0.41800000000E+01 0.  1.
         -5    1    4    4    0  501  0.24780906145E+02  0.37617243499E+02  0.41957661219E+03  0.42200847884E+03  0.41800000000E+01 0.  1.
</event>
<event>
11    1  0.1078607E-008  0.1352642E+03  0.7561462E-02  0.1112965E+00
         22   -1    0    0    0    0  0.00000000000E+00  0.00000000000E+00  0.56966532990E+03  0.56966532990E+03  0.00000000000E+00 0. -1.
         22   -1    0    0    0    0 -0.00000000000E+00 -0.00000000000E+00 -0.16221256235E+04  0.16221256235E+04  0.00000000000E+00 0. -1.
        -24    2    1    2    0    0  0.26503685838E+02 -0.44436653744E+02 -0.15165529677E+04  0.15196619384E+04  0.82234065604E+02 0.  0.
         25    2    1    2    0    0  0.30719518314E+01  0.52185362923E+02 -0.54723830542E+02  0.14620079406E+03  0.12508887067E+03 0.  0.
         24    2    1    2    0    0 -0.29575637670E+02 -0.77487091789E+01  0.51881650466E+03  0.52592822095E+03  0.80592600426E+02 0.  0.
        -13    1    5    5    0    0 -0.60999723037E+01  0.14616929914E+02  0.17653020058E+02  0.23716943719E+02  0.00000000000E+00 0.  1.
         14    1    5    5    0    0 -0.23475665366E+02 -0.22365639093E+02  0.50116348460E+03  0.50221127723E+03  0.00000000000E+00 0. -1.
         11    1    3    3    0    0 -0.15864353263E+02 -0.18613490952E+02 -0.10834638861E+04  0.10837398822E+04  0.00000000000E+00 0. -1.
        -12    1    3    3    0    0  0.42368039101E+02 -0.25823162792E+02 -0.43308908165E+03  0.43592205624E+03  0.00000000000E+00 0.  1.
          5    1    4    4  501    0  0.54292935450E+02 -0.88106064507E+00 -0.32758945652E+00  0.54461718872E+02  0.41800000000E+01 0. -1.
         -5    1    4    4    0  501 -0.51220983618E+02  0.53066423568E+02 -0.54396241085E+02  0.91739075193E+02  0.41800000000E+01 0. -1.
</event>
<event>
11    1  0.1078607E-008  0.5100646E+03  0.7561462E-02  0.9371309E-01
         22   -1    0    0    0    0  0.00000000000E+00  0.00000000000E+00  0.13323452099E+04  0.13323452099E+04  0.00000000000E+00 0. -1.
         22   -1    0    0    0    0 -0.00000000000E+00 -0.00000000000E+00 -0.37613167947E+03  0.37613167947E+03  0.00000000000E+00 0. -1.
         24    2    1    2    0    0 -0.90559890469E+02 -0.77216474426E+02 -0.15882662427E+02  0.14511050520E+03  0.81494306979E+02 0.  0.
         25    2    1    2    0    0 -0.28677909516E+03  0.40191591614E+03  0.49376213493E+02  0.51172541788E+03  0.12508493026E+03 0.  0.
        -24    2    1    2    0    0  0.37733898563E+03 -0.32469944172E+03  0.92271997941E+03  0.10516409663E+04  0.81988560889E+02 0.  0.
        -11    1    3    3    0    0 -0.10355922135E+03 -0.74892677306E+02 -0.23382938666E+02  0.12992377481E+03  0.00000000000E+00 0.  1.
         12    1    3    3    0    0  0.12999330879E+02 -0.23237971206E+01  0.75002762393E+01  0.15186730393E+02  0.00000000000E+00 0. -1.
         11    1    5    5    0    0  0.36025942123E+03 -0.29139986944E+03  0.81375375799E+03  0.93642720653E+03  0.00000000000E+00 0. -1.
        -12    1    5    5    0    0  0.17079564400E+02 -0.33299572278E+02  0.10896622142E+03  0.11521375979E+03  0.00000000000E+00 0.  1.
          5    1    4    4  501    0 -0.29918207139E+03  0.38375433044E+03  0.50996415873E+02  0.48928049706E+03  0.41800000000E+01 0. -1.
         -5    1    4    4    0  501  0.12402976235E+02  0.18161585703E+02 -0.16202023806E+01  0.22444920817E+02  0.41800000000E+01 0. -1.
</event>
<event>
11    1  0.1078607E-008  0.1557628E+03  0.7561462E-02  0.1091132E+00
         22   -1    0    0    0    0  0.00000000000E+00  0.00000000000E+00  0.12672566697E+03  0.12672566697E+03  0.00000000000E+00 0.  1.
         22   -1    0    0    0    0 -0.00000000000E+00 -0.00000000000E+00 -0.10496172573E+04  0.10496172573E+04  0.00000000000E+00 0.  1.
        -24    2    1    2    0    0 -0.67417889333E+02  0.33608469068E+02 -0.79884036312E+03  0.80622990335E+03  0.78651321159E+02 0.  0.
         25    2    1    2    0    0  0.14449709607E+03 -0.54261185297E+02 -0.15516587467E+03  0.25208494124E+03  0.12508669768E+03 0.  0.
         24    2    1    2    0    0 -0.77079206734E+02  0.20652716229E+02  0.31114647508E+02  0.11802807963E+03  0.81208173809E+02 0.  0.
        -11    1    5    5    0    0 -0.69402203784E+02  0.40262458184E+02  0.45769381973E+02  0.92371899165E+02  0.00000000000E+00 0.  1.
         12    1    5    5    0    0 -0.76770029503E+01 -0.19609741955E+02 -0.14654734466E+02  0.25656180466E+02  0.00000000000E+00 0. -1.
         11    1    3    3    0    0  0.17645101284E+02  0.11281400749E+02 -0.15972981076E+03  0.16109696474E+03  0.00000000000E+00 0. -1.
        -12    1    3    3    0    0 -0.85062990616E+02  0.22327068319E+02 -0.63911055235E+03  0.64513293861E+03  0.00000000000E+00 0.  1.
          5    1    4    4  501    0  0.11424263974E+03  0.12070233874E+02 -0.13294814298E+03  0.17575480762E+03  0.41800000000E+01 0.  1.
         -5    1    4    4    0  501  0.30254456327E+02 -0.66331419171E+02 -0.22217731691E+02  0.76330133619E+02  0.41800000000E+01 0.  1.
</event>
<event>
11    1  0.1078607E-008  0.1277174E+03  0.7561462E-02  0.1122106E+00
         22   -1    0    0    0    0  0.00000000000E+00  0.00000000000E+00  0.14142025669E+04  0.14142025669E+04  0.00000000000E+00 0.  1.
         22   -1    0    0    0    0 -0.00000000000E+00 -0.00000000000E+00 -0.15926552280E+03  0.15926552280E+03  0.00000000000E+00 0.  1.
        -24    2    1    2    0    0 -0.23363790560E+02  0.38916740734E+01 -0.12639207986E+03  0.14810092852E+03  0.73470506599E+02 0.  0.
         25    2    1    2    0    0  0.47002525573E+02 -0.92258284309E+01  0.19694248788E+03  0.23818072001E+03  0.12509739619E+03 0.  0.
         24    2    1    2    0    0 -0.23638735013E+02  0.53341543575E+01  0.11843866361E+04  0.11871864412E+04  0.77799096427E+02 0.  0.
        -13    1    5    5    0    0  0.68485624965E+01 -0.18734147349E+02  0.89294506059E+03  0.89316781868E+03  0.00000000000E+00 0.  1.
         14    1    5    5    0    0 -0.30487297510E+02  0.24068301706E+02  0.29144157551E+03  0.29401862253E+03  0.00000000000E+00 0. -1.
         11    1    3    3    0    0  0.18119739911E+02  0.22657339511E+02 -0.31340593156E+02  0.42707291971E+02  0.00000000000E+00 0. -1.
        -12    1    3    3    0    0 -0.41483530471E+02 -0.18765665438E+02 -0.95051486702E+02  0.10539363654E+03  0.00000000000E+00 0.  1.
          5    1    4    4  501    0 -0.15111203181E+01 -0.57031442655E+02  0.49243034838E+02  0.75479916640E+02  0.41800000000E+01 0.  1.
         -5    1    4    4    0  501  0.48513645891E+02  0.47805614224E+02  0.14769945305E+03  0.16270080337E+03  0.41800000000E+01 0.  1.
</event>
<event>
11    1  0.1078607E-008  0.2801854E+03  0.7561462E-02  0.1008944E+00
         22   -1    0    0    0    0  0.00000000000E+00  0.00000000000E+00  0.84484554098E+03  0.84484554098E+03  0.00000000000E+00 0.  1.
         22   -1    0    0    0    0 -0.00000000000E+00 -0.00000000000E+00 -0.18161030496E+03  0.18161030496E+03  0.00000000000E+00 0.  1.
        -24    2    1    2    0    0  0.20773100259E+03 -0.11155279802E+03  0.71426732294E+02  0.25890384125E+03  0.79581560337E+02 0.  0.
         25    2    1    2    0    0 -0.19733468802E+03  0.21120121628E+03  0.24258616169E+03  0.39754540477E+03  0.12508944863E+03 0.  0.
         24    2    1    2    0    0 -0.10396314576E+02 -0.99648418262E+02  0.34922234204E+03  0.37000659992E+03  0.70076737820E+02 0.  0.
        -13    1    5    5    0    0  0.56035381973E+01 -0.10500009242E+03  0.30851556525E+03  0.32594213144E+03  0.00000000000E+00 0.  1.
         14    1    5    5    0    0 -0.15999852773E+02  0.53516741623E+01  0.40706776797E+02  0.44064468479E+02  0.00000000000E+00 0. -1.
         11    1    3    3    0    0  0.11136062363E+02  0.25524507189E+01  0.24169937519E+02  0.26734112465E+02  0.00000000000E+00 0. -1.
        -12    1    3    3    0    0  0.19659494023E+03 -0.11410524874E+03  0.47256794776E+02  0.23216972879E+03  0.00000000000E+00 0.  1.
          5    1    4    4  501    0 -0.32477403432E+02  0.40833106081E+02 -0.75557884519E+01  0.52883708503E+02  0.41800000000E+01 0.  1.
         -5    1    4    4    0  501 -0.16485728458E+03  0.17036811020E+03  0.25014195014E+03  0.34466169626E+03  0.41800000000E+01 0.  1.
</event>
<event>
11    1  0.1078607E-008  0.2345466E+03  0.7561462E-02  0.1032469E+00
         22   -1    0    0    0    0  0.00000000000E+00  0.00000000000E+00  0.91860251847E+03  0.91860251847E+03  0.00000000000E+00 0.  1.
         22   -1    0    0    0    0 -0.00000000000E+00 -0.00000000000E+00 -0.75803114855E+03  0.75803114855E+03  0.00000000000E+00 0. -1.
        -24    2    1    2    0    0  0.84745045218E+02 -0.16185614476E+03 -0.42861019202E+03  0.47336438412E+03  0.83594313002E+02 0.  0.
         25    2    1    2    0    0 -0.87759265663E+02  0.22594290415E+03 -0.24271855747E+03  0.36511746006E+03  0.12508627765E+03 0.  0.
         24    2    1    2    0    0  0.30142204455E+01 -0.64086759393E+02  0.83190011942E+03  0.83815182284E+03  0.79526543886E+02 0.  0.
        -11    1    5    5    0    0  0.12002276430E+02 -0.71374989685E+02  0.81131683115E+03  0.81453879239E+03  0.00000000000E+00 0.  1.
         12    1    5    5    0    0 -0.89880559845E+01  0.72882302928E+01  0.20583288264E+02  0.23613030448E+02  0.00000000000E+00 0. -1.
         11    1    3    3    0    0  0.10097610601E+03 -0.14907709528E+03 -0.37769840000E+03  0.41842112242E+03  0.00000000000E+00 0. -1.
        -12    1    3    3    0    0 -0.16231060793E+02 -0.12779049477E+02 -0.50911792024E+02  0.54943261708E+02  0.00000000000E+00 0.  1.
          5    1    4    4  501    0 -0.18420714498E+02  0.16080920652E+02  0.12245797561E+02  0.27664972249E+02  0.41800000000E+01 0. -1.
         -5    1    4    4    0  501 -0.69338551165E+02  0.20986198350E+03 -0.25496435503E+03  0.33745248781E+03  0.41800000000E+01 0. -1.
</event>
<event>
11    1  0.1078607E-008  0.1293134E+03  0.7561462E-02  0.1120115E+00
         22   -1    0    0    0    0  0.00000000000E+00  0.00000000000E+00  0.72433693929E+03  0.72433693929E+03  0.00000000000E+00 0.  1.
         22   -1    0    0    0    0 -0.00000000000E+00 -0.00000000000E+00 -0.56412373873E+03  0.56412373873E+03  0.00000000000E+00 0. -1.
         24    2    1    2    0    0 -0.12366127916E+02 -0.85849377379E+01 -0.51512394499E+03  0.52173881668E+03  0.81437656254E+02 0.  0.
         25    2    1    2    0    0 -0.17911151567E+02  0.22349510917E+02  0.53486615460E+02  0.13902787555E+03  0.12509045590E+03 0.  0.
        -24    2    1    2    0    0  0.30277279483E+02 -0.13764573179E+02  0.62185053008E+03  0.62769398579E+03  0.78711377233E+02 0.  0.
        -13    1    3    3    0    0 -0.11097736741E+02  0.10131214451E+02 -0.14894249018E+02  0.21157502708E+02  0.00000000000E+00 0.  1.
         14    1    3    3    0    0 -0.12683911754E+01 -0.18716152189E+02 -0.50022969597E+03  0.50058131397E+03  0.00000000000E+00 0. -1.
         11    1    5    5    0    0  0.75510238805E+01  0.27340754465E+02  0.10666907042E+03  0.11037583703E+03  0.00000000000E+00 0. -1.
        -12    1    5    5    0    0  0.22726255603E+02 -0.41105327643E+02  0.51518145966E+03  0.51731814876E+03  0.00000000000E+00 0.  1.
          5    1    4    4  501    0  0.23881268951E+02 -0.20852651072E+02 -0.24636640791E+02  0.40368112823E+02  0.41800000000E+01 0.  1.
         -5    1    4    4    0  501 -0.41792420518E+02  0.43202161988E+02  0.78123256251E+02  0.98659762723E+02  0.41800000000E+01 0.  1.
</event>
<event>
11    1  0.1078607E-008  0.1356445E+03  0.7561462E-02  0.1112522E+00
         22   -1    0    0    0    0  0.00000000000E+00  0.00000000000E+00  0.58704432686E+02  0.58704432686E+02  0.00000000000E+00 0.  1.
         22   -1    0    0    0    0 -0.00000000000E+00 -0.00000000000E+00 -0.16900030298E+04  0.16900030298E+04  0.00000000000E+00 0.  1.
         24    2    1    2    0    0  0.12390022198E+02 -0.16292420035E+02 -0.12656166445E+04  0.12683412497E+04  0.80529990452E+02 0.  0.
         25    2    1    2    0    0 -0.41565422378E+02  0.56812727894E+02 -0.35694396907E+03  0.38472358662E+03  0.12509144920E+03 0.  0.
        -24    2    1    2    0    0  0.29175400181E+02 -0.40520307859E+02 -0.87379835401E+01  0.95642626113E+02  0.81105241808E+02 0.  0.
        -11    1    3    3    0    0  0.82289026609E+01 -0.59781454340E+01 -0.12439059447E+04  0.12439475280E+04  0.00000000000E+00 0.  1.
         12    1    3    3    0    0  0.41611195370E+01 -0.10314274601E+02 -0.21710699767E+02  0.24393721748E+02  0.00000000000E+00 0. -1.
         13    1    5    5    0    0  0.44711046549E+02 -0.52458158523E+02 -0.21568409285E+02  0.72222796666E+02  0.00000000000E+00 0. -1.
        -14    1    5    5    0    0 -0.15535646369E+02  0.11937850664E+02  0.12830425744E+02  0.23419829447E+02  0.00000000000E+00 0.  1.
          5    1    4    4  501    0  0.26163034042E+02  0.10448717397E+02 -0.24060137560E+03  0.24228118868E+03  0.41800000000E+01 0. -1.
         -5    1    4    4    0  501 -0.67728456420E+02  0.46364010497E+02 -0.11634259346E+03  0.14244239794E+03  0.41800000000E+01 0. -1.
</event>
<event>
11    1  0.1078607E-008  0.1441169E+03  0.7561462E-02  0.1103046E+00
         22   -1    0    0    0    0  0.00000000000E+00  0.00000000000E+00  0.11608099836E+04  0.11608099836E+04  0.00000000000E+00 0. -1.
         22   -1    0    0    0    0 -0.00000000000E+00 -0.00000000000E+00 -0.31805926651E+03  0.31805926651E+03  0.00000000000E+00 0.  1.
         24    2    1    2    0    0  0.19852379320E+02 -0.75585500813E+02 -0.26676780486E+03  0.28938641592E+03  0.80449680643E+02 0.  0.
         25    2    1    2    0    0  0.86006551943E+01  0.12286182025E+02  0.68841764644E+02  0.14356710769E+03  0.12508958515E+03 0.  0.
        -24    2    1    2    0    0 -0.28453034515E+02  0.63299318788E+02  0.10406767573E+04  0.10459157265E+04  0.78199839114E+02 0.  0.
        -13    1    3    3    0    0  0.11534205387E+02  0.24386756992E+01 -0.13864427203E+03  0.13914459817E+03  0.00000000000E+00 0.  1.
         14    1    3    3    0    0  0.83181739331E+01 -0.78024176513E+02 -0.12812353282E+03  0.15024181775E+03  0.00000000000E+00 0. -1.
         13    1    5    5    0    0 -0.44104323029E+02  0.67136601536E+02  0.97450295806E+03  0.97780802300E+03  0.00000000000E+00 0. -1.
        -14    1    5    5    0    0  0.15651288514E+02 -0.38372827480E+01  0.66173799226E+02  0.68107703493E+02  0.00000000000E+00 0.  1.
          5    1    4    4  501    0 -0.10219096863E+02  0.66115375571E+02  0.25097069217E+02  0.71575192007E+02  0.41800000000E+01 0. -1.
         -5    1    4    4    0  501  0.18819752057E+02 -0.53829193546E+02  0.43744695427E+02  0.71991915680E+02  0.41800000000E+01 0. -1.
</event>
<event>
11    1  0.1078607E-008  0.2499679E+03  0.7561462E-02  0.1023916E+00
         22   -1    0    0    0    0  0.00000000000E+00  0.00000000000E+00  0.83707689763E+03  0.83707689763E+03  0.00000000000E+00 0. -1.
         22   -1    0    0    0    0 -0.00000000000E+00 -0.00000000000E+00 -0.12569675121E+04  0.12569675121E+04  0.00000000000E+00 0. -1.
         24    2    1    2    0    0  0.45544500812E+02 -0.69844282882E+02 -0.90765678656E+03  0.91500743328E+03  0.80282223132E+02 0.  0.
         25    2    1    2    0    0 -0.10682714321E+03  0.27326222865E+03 -0.25107785970E+03  0.40592026546E+03  0.12508751393E+03 0.  0.
        -24    2    1    2    0    0  0.61282642400E+02 -0.20341794577E+03  0.73884403185E+03  0.77311671095E+03  0.81758928794E+02 0.  0.
        -11    1    3    3    0    0  0.33878591677E+02 -0.24320158724E+02 -0.14430458628E+03  0.15020999539E+03  0.00000000000E+00 0.  1.
         12    1    3    3    0    0  0.11665909135E+02 -0.45524124158E+02 -0.76335220028E+03  0.76479743789E+03  0.00000000000E+00 0. -1.
         11    1    5    5    0    0  0.77378770803E+02 -0.15380506980E+03  0.50557811345E+03  0.53409053771E+03  0.00000000000E+00 0. -1.
        -12    1    5    5    0    0 -0.16096128404E+02 -0.49612875974E+02  0.23326591840E+03  0.23902617325E+03  0.00000000000E+00 0.  1.
          5    1    4    4  501    0 -0.71555651339E+02  0.38504048349E+02 -0.58563999621E+02  0.10024962558E+03  0.41800000000E+01 0.  1.
         -5    1    4    4    0  501 -0.35271491872E+02  0.23475818030E+03 -0.19251386008E+03  0.30567063988E+03  0.41800000000E+01 0.  1.
</event>
<event>
11    1  0.1078607E-008  0.2862745E+03  0.7561462E-02  0.1006173E+00
         22   -1    0    0    0    0  0.00000000000E+00  0.00000000000E+00  0.54247842529E+03  0.54247842529E+03  0.00000000000E+00 0. -1.
         22   -1    0    0    0    0 -0.00000000000E+00 -0.00000000000E+00 -0.35446474838E+03  0.35446474838E+03  0.00000000000E+00 0.  1.
        -24    2    1    2    0    0 -0.11318561097E+03 -0.20989774248E+03 -0.85427493150E+02  0.26570216945E+03  0.80198138612E+02 0.  0.
         25    2    1    2    0    0 -0.88327448188E+01  0.33923910728E+03  0.11258490068E+03  0.37879285413E+03  0.12508987647E+03 0.  0.
         24    2    1    2    0    0  0.12201835579E+03 -0.12934136479E+03  0.16085626937E+03  0.25244815008E+03  0.78978866077E+02 0.  0.
        -11    1    5    5    0    0  0.23982467586E+01 -0.21979394485E+02 -0.36996611143E+01  0.22417244741E+02  0.00000000000E+00 0.  1.
         12    1    5    5    0    0  0.11962010903E+03 -0.10736197031E+03  0.16455593049E+03  0.23003090534E+03  0.00000000000E+00 0. -1.
         13    1    3    3    0    0 -0.41987172229E+02 -0.12194111265E+03 -0.92699913721E+01  0.12930000126E+03  0.00000000000E+00 0. -1.
        -14    1    3    3    0    0 -0.71198438739E+02 -0.87956629832E+02 -0.76157501778E+02  0.13640216819E+03  0.00000000000E+00 0.  1.
          5    1    4    4  501    0 -0.62865486094E+02  0.24248081337E+03  0.71636997513E+02  0.26057311068E+03  0.41800000000E+01 0.  1.
         -5    1    4    4    0  501  0.54032741276E+02  0.96758293907E+02  0.40947903165E+02  0.11821974346E+03  0.41800000000E+01 0.  1.
</event>
<event>
11    1  0.1078607E-008  0.5812444E+03  0.7561462E-02  0.9228314E-01
         22   -1    0    0    0    0  0.00000000000E+00  0.00000000000E+00  0.35070098807E+03  0.35070098807E+03  0.00000000000E+00 0. -1.
         22   -1    0    0    0    0 -0.00000000000E+00 -0.00000000000E+00 -0.11145889371E+04  0.11145889371E+04  0.00000000000E+00 0. -1.
        -24    2    1    2    0    0 -0.33597905744E+01  0.47611299947E+02 -0.70740398049E+02  0.11774100326E+03  0.81120995169E+02 0.  0.
         25    2    1    2    0    0  0.26737694238E+03  0.47734892138E+03 -0.36873070332E+03  0.67153581253E+03  0.12508234841E+03 0.  0.
         24    2    1    2    0    0 -0.26401715181E+03 -0.52496022132E+03 -0.32441684762E+03  0.67601310934E+03  0.80368790941E+02 0.  0.
        -13    1    5    5    0    0 -0.17939812613E+03 -0.42158594218E+03 -0.26966918412E+03  0.53163884655E+03  0.00000000000E+00 0.  1.
         14    1    5    5    0    0 -0.84619025684E+02 -0.10337427914E+03 -0.54747663502E+02  0.14437426279E+03  0.00000000000E+00 0. -1.
         13    1    3    3    0    0  0.26460280543E+02  0.14550356527E+02 -0.66477844231E+02  0.73014814217E+02  0.00000000000E+00 0. -1.
        -14    1    3    3    0    0 -0.29820071117E+02  0.33060943420E+02 -0.42625538174E+01  0.44726189043E+02  0.00000000000E+00 0.  1.
          5    1    4    4  501    0  0.43707706003E+02  0.16372324805E+03 -0.67272823094E+02  0.18236987318E+03  0.41800000000E+01 0.  1.
         -5    1    4    4    0  501  0.22366923638E+03  0.31362567333E+03 -0.30145788022E+03  0.48916593935E+03  0.41800000000E+01 0.  1.
</event>
<event>
11    1  0.1078607E-008  0.1378002E+03  0.7561462E-02  0.1110040E+00
         22   -1    0    0    0    0  0.00000000000E+00  0.00000000000E+00  0.51283094252E+03  0.51283094252E+03  0.00000000000E+00 0.  1.
         22   -1    0    0    0    0 -0.00000000000E+00 -0.00000000000E+00 -0.31124034452E+03  0.31124034452E+03  0.00000000000E+00 0. -1.
        -24    2    1    2    0    0  0.13792997582E+02  0.21223627966E+02 -0.27063700008E+03  0.28383061801E+03  0.81699111025E+02 0.  0.
         25    2    1    2    0    0  0.17425128682E+02  0.34096668170E+02  0.13638784333E+03  0.18898748797E+03  0.12509360059E+03 0.  0.
         24    2    1    2    0    0 -0.31218126263E+02 -0.55320296136E+02  0.33583975475E+03  0.35125318106E+03  0.80966349563E+02 0.  0.
        -11    1    5    5    0    0 -0.11059653107E+02 -0.73055565187E+02  0.27497885969E+03  0.28473286570E+03  0.00000000000E+00 0.  1.
         12    1    5    5    0    0 -0.20158473157E+02  0.17735269051E+02  0.60860895055E+02  0.66520315357E+02  0.00000000000E+00 0. -1.
         11    1    3    3    0    0 -0.11052032783E+01  0.39415615457E+01 -0.25743851947E+03  0.25747106378E+03  0.00000000000E+00 0. -1.
        -12    1    3    3    0    0  0.14898200860E+02  0.17282066420E+02 -0.13198480618E+02  0.26359554231E+02  0.00000000000E+00 0.  1.
          5    1    4    4  501    0 -0.48216508322E+02  0.42589165374E+02  0.69387689067E+02  0.94714267543E+02  0.41800000000E+01 0. -1.
         -5    1    4    4    0  501  0.65641637004E+02 -0.84924972040E+01  0.67000154265E+02  0.94273220423E+02  0.41800000000E+01 0. -1.
</event>
<event>
11    1  0.1078607E-008  0.1385930E+03  0.7561462E-02  0.1109140E+00
         22   -1    0    0    0    0  0.00000000000E+00  0.00000000000E+00  0.17189693537E+04  0.17189693537E+04  0.00000000000E+00 0.  1.
         22   -1    0    0    0    0 -0.00000000000E+00 -0.00000000000E+00 -0.33050927039E+02  0.33050927039E+02  0.00000000000E+00 0.  1.
        -24    2    1    2    0    0  0.63239720355E+02 -0.97607326027E+00  0.94966286658E+02  0.14053362406E+03  0.82041994981E+02 0.  0.
         25    2    1    2    0    0 -0.44226782317E+02  0.14409843109E+01  0.49600519324E+03  0.51344795791E+03  0.12509823761E+03 0.  0.
         24    2    1    2    0    0 -0.19012938039E+02 -0.46491105066E+00  0.10949469467E+04  0.10980386987E+04  0.80115290719E+02 0.  0.
        -13    1    5    5    0    0  0.18568285899E+02  0.15520736237E+02  0.78983187788E+03  0.79020254986E+03  0.00000000000E+00 0.  1.
         14    1    5    5    0    0 -0.37581223937E+02 -0.15985647287E+02  0.30511506884E+03  0.30783614886E+03  0.00000000000E+00 0. -1.
         11    1    3    3    0    0 -0.19376315937E+02 -0.26175770770E+01  0.98084812527E+01  0.21874634478E+02  0.00000000000E+00 0. -1.
        -12    1    3    3    0    0  0.82616036292E+02  0.16415038167E+01  0.85157805405E+02  0.11865898958E+03  0.00000000000E+00 0.  1.
          5    1    4    4  501    0  0.51879708518E+01  0.11079149518E+02 -0.18292063942E+01  0.13056836969E+02  0.41800000000E+01 0.  1.
         -5    1    4    4    0  501 -0.49414753169E+02 -0.96381652066E+01  0.49783439963E+03  0.50039112094E+03  0.41800000000E+01 0.  1.
</event>
<event>
11    1  0.1078607E-008  0.2120733E+03  0.7561462E-02  0.1046300E+00
         22   -1    0    0    0    0  0.00000000000E+00  0.00000000000E+00  0.44246379961E+03  0.44246379961E+03  0.00000000000E+00 0. -1.
         22   -1    0    0    0    0 -0.00000000000E+00 -0.00000000000E+00 -0.79044232407E+03  0.79044232407E+03  0.00000000000E+00 0.  1.
        -24    2    1    2    0    0 -0.14563657881E+03 -0.67394410682E+02 -0.58572046372E+03  0.61266007175E+03  0.80820060731E+02 0.  0.
         25    2    1    2    0    0  0.24911402911E+03  0.15213279269E+03 -0.20725770439E+02  0.31824619034E+03  0.12509553947E+03 0.  0.
         24    2    1    2    0    0 -0.10347745030E+03 -0.84738382005E+02  0.25846770970E+03  0.30199986159E+03  0.80685707133E+02 0.  0.
        -13    1    5    5    0    0 -0.62282110903E+02 -0.60011794006E+02  0.82268657143E+02  0.11936753623E+03  0.00000000000E+00 0.  1.
         14    1    5    5    0    0 -0.41195339399E+02 -0.24726587999E+02  0.17619905256E+03  0.18263232535E+03  0.00000000000E+00 0. -1.
         11    1    3    3    0    0 -0.41065814495E+02 -0.28764230497E+02 -0.77116129766E+02  0.91981952286E+02  0.00000000000E+00 0. -1.
        -12    1    3    3    0    0 -0.10457076431E+03 -0.38630180184E+02 -0.50860433396E+03  0.52067811947E+03  0.00000000000E+00 0.  1.
          5    1    4    4  501    0  0.22449158536E+03  0.97147929205E+02  0.19912624044E+02  0.24545504078E+03  0.41800000000E+01 0.  1.
         -5    1    4    4    0  501  0.24622443745E+02  0.54984863481E+02 -0.40638394483E+02  0.72791149560E+02  0.41800000000E+01 0.  1.
</event>
<event>
11    1  0.1078607E-008  0.1857195E+03  0.7561462E-02  0.1065108E+00
         22   -1    0    0    0    0  0.00000000000E+00  0.00000000000E+00  0.55707189976E+03  0.55707189976E+03  0.00000000000E+00 0. -1.
         22   -1    0    0    0    0 -0.00000000000E+00 -0.00000000000E+00 -0.56824230531E+03  0.56824230531E+03  0.00000000000E+00 0.  1.
        -24    2    1    2    0    0 -0.20879530294E+01  0.11850084205E+02 -0.44314427614E+03  0.45041186934E+03  0.79681983671E+02 0.  0.
         25    2    1    2    0    0 -0.13169113945E+03  0.21219240978E+02 -0.30811193607E+02  0.18544303788E+03  0.12508788211E+03 0.  0.
         24    2    1    2    0    0  0.13377909247E+03 -0.33069325183E+02  0.46278506420E+03  0.48945929784E+03  0.80062242981E+02 0.  0.
        -11    1    5    5    0    0  0.28046440439E+02  0.14797592709E+02  0.40066830837E+02  0.51097186856E+02  0.00000000000E+00 0.  1.
         12    1    5    5    0    0  0.10573265204E+03 -0.47866917892E+02  0.42271823336E+03  0.43836211099E+03  0.00000000000E+00 0. -1.
         11    1    3    3    0    0 -0.19523930514E+02 -0.76575705687E+01 -0.30938934201E+02  0.37376996926E+02  0.00000000000E+00 0. -1.
        -12    1    3    3    0    0  0.17435977484E+02  0.19507654773E+02 -0.41220534194E+03  0.41303487241E+03  0.00000000000E+00 0.  1.
          5    1    4    4  501    0 -0.17398604830E+02  0.21993276035E+02 -0.60902748396E+02  0.67179109871E+02  0.41800000000E+01 0.  1.
         -5    1    4    4    0  501 -0.11429253461E+03 -0.77403505663E+00  0.30091554789E+02  0.11826392801E+03  0.41800000000E+01 0.  1.
</event>
<event>
11    1  0.1078607E-008  0.1494284E+03  0.7561462E-02  0.1097464E+00
         22   -1    0    0    0    0  0.00000000000E+00  0.00000000000E+00  0.80472199638E+02  0.80472199638E+02  0.00000000000E+00 0. -1.
         22   -1    0    0    0    0 -0.00000000000E+00 -0.00000000000E+00 -0.20060311316E+04  0.20060311316E+04  0.00000000000E+00 0.  1.
        -24    2    1    2    0    0  0.89962859643E+02 -0.10813107853E+02 -0.16183206868E+04  0.16228606048E+04  0.80650218978E+02 0.  0.
         25    2    1    2    0    0 -0.34451896067E+02  0.36336481444E+01 -0.33740291827E+03  0.36150840011E+03  0.12508979796E+03 0.  0.
         24    2    1    2    0    0 -0.55510963576E+02  0.71794597085E+01  0.30164673089E+02  0.10213432636E+03  0.79928101438E+02 0.  0.
        -13    1    5    5    0    0  0.36513926642E+01 -0.13600877567E+02 -0.18151213213E+02  0.22973529987E+02  0.00000000000E+00 0.  1.
         14    1    5    5    0    0 -0.59162356241E+02  0.20780337275E+02  0.48315886302E+02  0.79160796372E+02  0.00000000000E+00 0. -1.
         13    1    3    3    0    0 -0.47804470381E+01  0.11053864225E+02 -0.46465444078E+02  0.48000813343E+02  0.00000000000E+00 0. -1.
        -14    1    3    3    0    0  0.94743306681E+02 -0.21866972078E+02 -0.15718552427E+04  0.15748597915E+04  0.00000000000E+00 0.  1.
          5    1    4    4  501    0 -0.38633027543E+02  0.23417920551E+02 -0.32264381109E+02  0.55672008302E+02  0.41800000000E+01 0. -1.
         -5    1    4    4    0  501  0.41811314756E+01 -0.19784272406E+02 -0.30513853716E+03  0.30583639181E+03  0.41800000000E+01 0. -1.
</event>
<event>
11    1  0.1078607E-008  0.1544761E+03  0.7561462E-02  0.1092391E+00
         22   -1    0    0    0    0  0.00000000000E+00  0.00000000000E+00  0.35714485071E+04  0.35714485071E+04  0.00000000000E+00 0. -1.
         22   -1    0    0    0    0 -0.00000000000E+00 -0.00000000000E+00 -0.14661577636E+03  0.14661577636E+03  0.00000000000E+00 0.  1.
        -24    2    1    2    0    0 -0.22261888378E+02  0.70484024616E+02 -0.84978609455E+02  0.13892878558E+03  0.81340358970E+02 0.  0.
         25    2    1    2    0    0 -0.57596915229E+02 -0.11238339758E+03  0.20182115678E+03  0.26894012221E+03  0.12509827063E+03 0.  0.
         24    2    1    2    0    0  0.79858803607E+02  0.41899372964E+02  0.33079901834E+04  0.33101953757E+04  0.80382744002E+02 0.  0.
        -13    1    5    5    0    0  0.17846507504E+02 -0.21740748888E+02  0.12059090202E+04  0.12062370095E+04  0.00000000000E+00 0.  1.
         14    1    5    5    0    0  0.62012296103E+02  0.63640121852E+02  0.21020811632E+04  0.21039583662E+04  0.00000000000E+00 0. -1.
         13    1    3    3    0    0 -0.47323355539E+02  0.17650461638E+02 -0.48401243545E+02  0.69955122416E+02  0.00000000000E+00 0. -1.
        -14    1    3    3    0    0  0.25061467161E+02  0.52833562978E+02 -0.36577365909E+02  0.68973663162E+02  0.00000000000E+00 0.  1.
          5    1    4    4  501    0  0.38145176990E+02 -0.51120343941E+02  0.68459406932E+02  0.93661661793E+02  0.41800000000E+01 0. -1.
         -5    1    4    4    0  501 -0.95742092219E+02 -0.61263053638E+02  0.13336174985E+03  0.17527846042E+03  0.41800000000E+01 0. -1.
</event>
<event>
11    1  0.1078607E-008  0.1331619E+03  0.7561462E-02  0.1115444E+00
         22   -1    0    0    0    0  0.00000000000E+00  0.00000000000E+00  0.13185238462E+03  0.13185238462E+03  0.00000000000E+00 0.  1.
         22   -1    0    0    0    0 -0.00000000000E+00 -0.00000000000E+00 -0.24967866458E+03  0.24967866458E+03  0.00000000000E+00 0.  1.
         24    2    1    2    0    0  0.41581979777E+02 -0.54559666165E+01 -0.11579956025E+03  0.14678233607E+03  0.79854163419E+02 0.  0.
         25    2    1    2    0    0 -0.52827034993E+02  0.38988734244E+02 -0.26230828415E+02  0.14368744473E+03  0.12508880201E+03 0.  0.
        -24    2    1    2    0    0  0.11245055217E+02 -0.33532767627E+02  0.24204108712E+02  0.91061268400E+02  0.80345615639E+02 0.  0.
        -11    1    3    3    0    0  0.53449928124E+02  0.15948426113E+02 -0.10719612690E+03  0.12083979781E+03  0.00000000000E+00 0.  1.
         12    1    3    3    0    0 -0.11867948348E+02 -0.21404392729E+02 -0.86034333443E+01  0.25942538261E+02  0.00000000000E+00 0. -1.
         11    1    5    5    0    0 -0.33322021722E+02 -0.35578741508E+01  0.43180995291E+01  0.33788483004E+02  0.00000000000E+00 0. -1.
        -12    1    5    5    0    0  0.44567076939E+02 -0.29974893476E+02  0.19886009183E+02  0.57272785396E+02  0.00000000000E+00 0.  1.
          5    1    4    4  501    0 -0.52676698735E+01  0.67379880873E+02  0.20871810094E+02  0.70858320252E+02  0.41800000000E+01 0. -1.
         -5    1    4    4    0  501 -0.47559365120E+02 -0.28391146630E+02 -0.47102638509E+02  0.72829124477E+02  0.41800000000E+01 0. -1.
</event>
<event>
11    1  0.1078607E-008  0.1538469E+03  0.7561462E-02  0.1093012E+00
         22   -1    0    0    0    0  0.00000000000E+00  0.00000000000E+00  0.19823276520E+04  0.19823276520E+04  0.00000000000E+00 0. -1.
         22   -1    0    0    0    0 -0.00000000000E+00 -0.00000000000E+00 -0.49334113767E+02  0.49334113767E+02  0.00000000000E+00 0. -1.
        -24    2    1    2    0    0 -0.23497328271E+02  0.92999249606E+02  0.10441171778E+03  0.16287896528E+03  0.80167110823E+02 0.  0.
         25    2    1    2    0    0  0.74610963272E+01 -0.76318359964E+02  0.26455554188E+03  0.30251954758E+03  0.12509309295E+03 0.  0.
         24    2    1    2    0    0  0.16036231943E+02 -0.16680889642E+02  0.15640262786E+04  0.15662632529E+04  0.80417439173E+02 0.  0.
        -13    1    5    5    0    0  0.24026910466E+02  0.23891315325E+02  0.37778693079E+03  0.37930337785E+03  0.00000000000E+00 0.  1.
         14    1    5    5    0    0 -0.79906785223E+01 -0.40572204967E+02  0.11862393478E+04  0.11869598751E+04  0.00000000000E+00 0. -1.
         11    1    3    3    0    0  0.19112296299E+02  0.67685244553E+02  0.37782724944E+02  0.79838001629E+02  0.00000000000E+00 0. -1.
        -12    1    3    3    0    0 -0.42609624569E+02  0.25314005053E+02  0.66628992832E+02  0.83040963648E+02  0.00000000000E+00 0.  1.
          5    1    4    4  501    0  0.58200713519E+02 -0.55393277495E+02  0.96286462529E+02  0.12547626673E+03  0.41800000000E+01 0. -1.
         -5    1    4    4    0  501 -0.50739617192E+02 -0.20925082469E+02  0.16826907935E+03  0.17704328085E+03  0.41800000000E+01 0. -1.
</event>
<event>
11    1  0.1078607E-008  0.1615050E+03  0.7561462E-02  0.1085670E+00
         22   -1    0    0    0    0  0.00000000000E+00  0.00000000000E+00  0.10911733065E+04  0.10911733065E+04  0.00000000000E+00 0.  1.
         22   -1    0    0    0    0 -0.00000000000E+00 -0.00000000000E+00 -0.54937322818E+03  0.54937322818E+03  0.00000000000E+00 0. -1.
        -24    2    1    2    0    0  0.31251520908E+02  0.36975529441E+02 -0.28567039820E+03  0.30094017368E+03  0.81323824253E+02 0.  0.
         25    2    1    2    0    0  0.32292576980E+02  0.43969807011E+02 -0.23360178543E+03  0.27054497360E+03  0.12509450079E+03 0.  0.
         24    2    1    2    0    0 -0.63544097887E+02 -0.80945336451E+02  0.10610722619E+04  0.10690613874E+04  0.80174217152E+02 0.  0.
        -13    1    5    5    0    0 -0.64945641122E+02 -0.46137079108E+02  0.45002906656E+03  0.45702595891E+03  0.00000000000E+00 0.  1.
         14    1    5    5    0    0  0.14015432348E+01 -0.34808257344E+02  0.61104319537E+03  0.61203542848E+03  0.00000000000E+00 0. -1.
         11    1    3    3    0    0  0.29366485464E+01  0.21764670821E+02 -0.25679569579E+03  0.25773310648E+03  0.00000000000E+00 0. -1.
        -12    1    3    3    0    0  0.28314872362E+02  0.15210858620E+02 -0.28874702413E+02  0.43207067203E+02  0.00000000000E+00 0.  1.
          5    1    4    4  501    0 -0.30077175850E+02  0.58897622988E+02 -0.78964606894E+02  0.10308466444E+03  0.41800000000E+01 0.  1.
         -5    1    4    4    0  501  0.62369752829E+02 -0.14927815978E+02 -0.15463717854E+03  0.16746030916E+03  0.41800000000E+01 0.  1.
</event>
<event>
11    1  0.1078607E-008  0.1393478E+03  0.7561462E-02  0.1108289E+00
         22   -1    0    0    0    0  0.00000000000E+00  0.00000000000E+00  0.19509607578E+03  0.19509607578E+03  0.00000000000E+00 0. -1.
         22   -1    0    0    0    0 -0.00000000000E+00 -0.00000000000E+00 -0.84783488640E+03  0.84783488640E+03  0.00000000000E+00 0. -1.
        -24    2    1    2    0    0 -0.40645653994E+02  0.22215860983E+02 -0.57544403959E+03  0.58279254455E+03  0.79785296981E+02 0.  0.
         25    2    1    2    0    0  0.95513580658E+02 -0.44061122411E+02 -0.22877307405E+03  0.28115455130E+03  0.12508611316E+03 0.  0.
         24    2    1    2    0    0 -0.54867926663E+02  0.21845261428E+02  0.15147830302E+03  0.17898386633E+03  0.74845462778E+02 0.  0.
        -11    1    5    5    0    0 -0.54914690206E+02  0.42529870519E+02  0.87333931176E+02  0.11158686581E+03  0.00000000000E+00 0.  1.
         12    1    5    5    0    0  0.46763542823E-01 -0.20684609091E+02  0.64144371845E+02  0.67397000523E+02  0.00000000000E+00 0. -1.
         11    1    3    3    0    0 -0.54484026038E+02  0.23902930174E+02 -0.55418904277E+03  0.55737362181E+03  0.00000000000E+00 0. -1.
        -12    1    3    3    0    0  0.13838372044E+02 -0.16870691909E+01 -0.21254996814E+02  0.25418922732E+02  0.00000000000E+00 0.  1.
          5    1    4    4  501    0  0.12647904590E+02  0.40362286824E+02 -0.40165989517E+02  0.58479593040E+02  0.41800000000E+01 0. -1.
         -5    1    4    4    0  501  0.82865676068E+02 -0.84423409235E+02 -0.18860708454E+03  0.22267495826E+03  0.41800000000E+01 0. -1.
</event>
<event>
11    1  0.1078607E-008  0.1533974E+03  0.7561462E-02  0.1093457E+00
         22   -1    0    0    0    0  0.00000000000E+00  0.00000000000E+00  0.44758999743E+03  0.44758999743E+03  0.00000000000E+00 0. -1.
         22   -1    0    0    0    0 -0.00000000000E+00 -0.00000000000E+00 -0.15253607992E+03  0.15253607992E+03  0.00000000000E+00 0. -1.
        -24    2    1    2    0    0 -0.36841161223E+01  0.14248138012E+02 -0.68126315372E+02  0.10691030096E+03  0.81068091485E+02 0.  0.
         25    2    1    2    0    0 -0.35382878963E+02 -0.91704991822E+02  0.65927730125E+02  0.17220717501E+03  0.12508833629E+03 0.  0.
         24    2    1    2    0    0  0.39066995085E+02  0.77456853810E+02  0.29725250276E+03  0.32100860138E+03  0.84626694694E+02 0.  0.
        -11    1    5    5    0    0  0.10005097553E+02 -0.98523093312E+01  0.54860598005E+01  0.15075371582E+02  0.00000000000E+00 0.  1.
         12    1    5    5    0    0  0.29061897533E+02  0.87309163141E+02  0.29176644296E+03  0.30593322980E+03  0.00000000000E+00 0. -1.
         11    1    3    3    0    0  0.13577293716E+02 -0.27316748999E+02 -0.49621188127E+02  0.58247832506E+02  0.00000000000E+00 0. -1.
        -12    1    3    3    0    0 -0.17261409838E+02  0.41564887010E+02 -0.18505127245E+02  0.48662468455E+02  0.00000000000E+00 0.  1.
          5    1    4    4  501    0  0.13591213661E+02 -0.81646725306E+02 -0.75673783871E+01  0.83220468982E+02  0.41800000000E+01 0.  1.
         -5    1    4    4    0  501 -0.48974092624E+02 -0.10058266516E+02  0.73495108512E+02  0.88986706023E+02  0.41800000000E+01 0.  1.
</event>
<event>
11    1  0.1078607E-008  0.1842058E+03  0.7561462E-02  0.1066291E+00
         22   -1    0    0    0    0  0.00000000000E+00  0.00000000000E+00  0.11894712203E+04  0.11894712203E+04  0.00000000000E+00 0.  1.
         22   -1    0    0    0    0 -0.00000000000E+00 -0.00000000000E+00 -0.13228062810E+03  0.13228062810E+03  0.00000000000E+00 0.  1.
         24    2    1    2    0    0 -0.15510060650E+02 -0.27726443430E+02 -0.62983102066E+02  0.11685475369E+03  0.93160317025E+02 0.  0.
         25    2    1    2    0    0  0.33460266255E+02 -0.11031463998E+03  0.16703446687E+03  0.23840554148E+03  0.12509108632E+03 0.  0.
        -24    2    1    2    0    0 -0.17950205605E+02  0.13804108341E+03  0.95313922739E+03  0.96649155322E+03  0.79082141280E+02 0.  0.
        -11    1    3    3    0    0 -0.23473956087E+02  0.14180308056E+02 -0.68553743122E+02  0.73835787034E+02  0.00000000000E+00 0.  1.
         12    1    3    3    0    0  0.79638954366E+01 -0.41906751487E+02  0.55706410557E+01  0.43018966659E+02  0.00000000000E+00 0. -1.
         13    1    5    5    0    0  0.84963003738E+01  0.19657068782E+02  0.40377215941E+02  0.45704562576E+02  0.00000000000E+00 0. -1.
        -14    1    5    5    0    0 -0.26446505979E+02  0.11838401463E+03  0.91276201145E+03  0.92078699065E+03  0.00000000000E+00 0.  1.
          5    1    4    4  501    0  0.31847496994E+02 -0.57833309467E+02  0.31111609019E+01  0.66227686588E+02  0.41800000000E+01 0.  1.
         -5    1    4    4    0  501  0.16127692612E+01 -0.52481330511E+02  0.16392330597E+03  0.17217785490E+03  0.41800000000E+01 0.  1.
</event>
<event>
11    1  0.1078607E-008  0.1309613E+03  0.7561462E-02  0.1118093E+00
         22   -1    0    0    0    0  0.00000000000E+00  0.00000000000E+00  0.93766916879E+03  0.93766916879E+03  0.00000000000E+00 0.  1.
         22   -1    0    0    0    0 -0.00000000000E+00 -0.00000000000E+00 -0.17877886306E+03  0.17877886306E+03  0.00000000000E+00 0.  1.
        -24    2    1    2    0    0 -0.37020870392E+02  0.28606388134E+02 -0.10548442726E+03  0.14161751034E+03  0.82095581814E+02 0.  0.
         25    2    1    2    0    0  0.24025592686E+01 -0.42480821011E+01  0.25774576324E+02  0.12781269213E+03  0.12509171432E+03 0.  0.
         24    2    1    2    0    0  0.34618311124E+02 -0.24358306033E+02  0.83860015667E+03  0.84701782938E+03  0.11134283087E+03 0.  0.
        -11    1    5    5    0    0  0.59317240928E+02  0.10281098919E+02  0.68483064860E+03  0.68747163820E+03  0.00000000000E+00 0.  1.
         12    1    5    5    0    0 -0.24698929804E+02 -0.34639404952E+02  0.15376950807E+03  0.15954619118E+03  0.00000000000E+00 0. -1.
         11    1    3    3    0    0 -0.58600315719E+02 -0.68979728165E-01 -0.65935483056E+02  0.88212752402E+02  0.00000000000E+00 0. -1.
        -12    1    3    3    0    0  0.21579445326E+02  0.28675367862E+02 -0.39548944207E+02  0.53404757939E+02  0.00000000000E+00 0.  1.
          5    1    4    4  501    0  0.49157762016E+02  0.35265291212E+02  0.27140054976E+02  0.66439305496E+02  0.41800000000E+01 0.  1.
         -5    1    4    4    0  501 -0.46755202747E+02 -0.39513373313E+02 -0.13654786516E+01  0.61373386630E+02  0.41800000000E+01 0.  1.
</event>
<event>
11    1  0.1078607E-008  0.1568510E+03  0.7561462E-02  0.1090077E+00
         22   -1    0    0    0    0  0.00000000000E+00  0.00000000000E+00  0.10134972844E+04  0.10134972844E+04  0.00000000000E+00 0.  1.
         22   -1    0    0    0    0 -0.00000000000E+00 -0.00000000000E+00 -0.15139084865E+03  0.15139084865E+03  0.00000000000E+00 0.  1.
        -24    2    1    2    0    0 -0.10128188043E+02 -0.46069955855E+02 -0.71152658077E+02  0.11103560340E+03  0.71001291852E+02 0.  0.
         25    2    1    2    0    0  0.45905383289E+02 -0.44677431667E+02  0.32706392087E+02  0.14428644542E+03  0.12508194567E+03 0.  0.
         24    2    1    2    0    0 -0.35777195246E+02  0.90747387522E+02  0.90055270178E+03  0.90956608428E+03  0.82463306678E+02 0.  0.
        -13    1    5    5    0    0 -0.31617449827E+02  0.10636407044E+03  0.75322649331E+03  0.76135611171E+03  0.00000000000E+00 0.  1.
         14    1    5    5    0    0 -0.41597454191E+01 -0.15616682916E+02  0.14732620847E+03  0.14820997257E+03  0.00000000000E+00 0. -1.
         13    1    3    3    0    0 -0.39876765056E+01 -0.20197369417E+02  0.11934933908E+02  0.23796595190E+02  0.00000000000E+00 0. -1.
        -14    1    3    3    0    0 -0.61405115378E+01 -0.25872586439E+02 -0.83087591985E+02  0.87239008206E+02  0.00000000000E+00 0.  1.
          5    1    4    4  501    0  0.15797137134E+02 -0.53514138890E+02  0.73674517807E+02  0.92513348101E+02  0.41800000000E+01 0. -1.
         -5    1    4    4    0  501  0.30108246155E+02  0.88367072232E+01 -0.40968125720E+02  0.51773097320E+02  0.41800000000E+01 0. -1.
</event>
<event>
11    1  0.1078607E-008  0.1887535E+03  0.7561462E-02  0.1062774E+00
         22   -1    0    0    0    0  0.00000000000E+00  0.00000000000E+00  0.12007777554E+04  0.12007777554E+04  0.00000000000E+00 0. -1.
         22   -1    0    0    0    0 -0.00000000000E+00 -0.00000000000E+00 -0.16044126753E+04  0.16044126753E+04  0.00000000000E+00 0.  1.
        -24    2    1    2    0    0 -0.67963453298E+02 -0.12041743316E+03 -0.14426949320E+04  0.14515965387E+04  0.81513526947E+02 0.  0.
         25    2    1    2    0    0  0.93302672946E+02  0.18456667464E+03 -0.60428841252E+02  0.24913780218E+03  0.12509098071E+03 0.  0.
         24    2    1    2    0    0 -0.25339219648E+02 -0.64149241478E+02  0.10994888533E+04  0.11044560898E+04  0.78678551630E+02 0.  0.
        -13    1    5    5    0    0 -0.49826185496E+02 -0.34874381743E+02  0.48763097180E+03  0.49140903117E+03  0.00000000000E+00 0.  1.
         14    1    5    5    0    0  0.24486965847E+02 -0.29274859735E+02  0.61185788153E+03  0.61304705864E+03  0.00000000000E+00 0. -1.
         13    1    3    3    0    0 -0.64268911249E+02 -0.53456821266E+02 -0.54203093819E+03  0.54843929714E+03  0.00000000000E+00 0. -1.
        -14    1    3    3    0    0 -0.36945420483E+01 -0.66960611896E+02 -0.90066399381E+03  0.90315724153E+03  0.00000000000E+00 0.  1.
          5    1    4    4  501    0 -0.12674450808E+02 -0.22083433022E+01  0.16186771388E+02  0.21095081214E+02  0.41800000000E+01 0.  1.
         -5    1    4    4    0  501  0.10597712375E+03  0.18677501794E+03 -0.76615612640E+02  0.22804272097E+03  0.41800000000E+01 0.  1.
</event>
<event>
11    1  0.1078607E-008  0.1486909E+03  0.7561462E-02  0.1098224E+00
         22   -1    0    0    0    0  0.00000000000E+00  0.00000000000E+00  0.42767785959E+03  0.42767785959E+03  0.00000000000E+00 0. -1.
         22   -1    0    0    0    0 -0.00000000000E+00 -0.00000000000E+00 -0.11074596725E+04  0.11074596725E+04  0.00000000000E+00 0. -1.
         24    2    1    2    0    0  0.76005345996E+02  0.15371994332E+02 -0.95185016954E+03  0.95966112575E+03  0.94433152057E+02 0.  0.
         25    2    1    2    0    0 -0.11345277748E+03 -0.27593235856E+02 -0.96395703630E+02  0.19640050529E+03  0.12509239552E+03 0.  0.
        -24    2    1    2    0    0  0.37447431481E+02  0.12221241524E+02  0.36846406027E+03  0.37907590104E+03  0.79881826291E+02 0.  0.
        -11    1    3    3    0    0  0.44092944035E+02 -0.19134080550E+02 -0.17770996092E+03  0.18409543982E+03  0.00000000000E+00 0.  1.
         12    1    3    3    0    0  0.31912401961E+02  0.34506074881E+02 -0.77414020861E+03  0.77556568593E+03  0.00000000000E+00 0. -1.
         13    1    5    5    0    0  0.62224502401E+02  0.28757463530E+01  0.27215457084E+03  0.27919217225E+03  0.00000000000E+00 0. -1.
        -14    1    5    5    0    0 -0.24777070920E+02  0.93454951712E+01  0.96309489428E+02  0.99883728792E+02  0.00000000000E+00 0.  1.
          5    1    4    4  501    0 -0.63963547465E+02 -0.34343741021E+02  0.14996789313E+02  0.74250953134E+02  0.41800000000E+01 0.  1.
         -5    1    4    4    0  501 -0.49489230012E+02  0.67505051654E+01 -0.11139249294E+03  0.12214955215E+03  0.41800000000E+01 0.  1.
</event>
<event>
11    1  0.1078607E-008  0.1802347E+03  0.7561462E-02  0.1069453E+00
         22   -1    0    0    0    0  0.00000000000E+00  0.00000000000E+00  0.13587375107E+04  0.13587375107E+04  0.00000000000E+00 0. -1.
         22   -1    0    0    0    0 -0.00000000000E+00 -0.00000000000E+00 -0.10677250796E+04  0.10677250796E+04  0.00000000000E+00 0.  1.
         24    2    1    2    0    0  0.59297765265E+01 -0.80750893479E+02 -0.10331816594E+04  0.10393053642E+04  0.78328984422E+02 0.  0.
         25    2    1    2    0    0  0.92677740081E+02  0.15116119423E+03  0.43526234512E+03  0.48635249777E+03  0.12508626168E+03 0.  0.
        -24    2    1    2    0    0 -0.98607516608E+02 -0.70410300748E+02  0.88893174534E+03  0.90080472834E+03  0.81046023610E+02 0.  0.
        -11    1    3    3    0    0 -0.43283593004E+01 -0.81163830210E+02 -0.54609684730E+03  0.55211236960E+03  0.00000000000E+00 0.  1.
         12    1    3    3    0    0  0.10258135827E+02  0.41293673107E+00 -0.48708481205E+03  0.48719299461E+03  0.00000000000E+00 0. -1.
         13    1    5    5    0    0 -0.73170252261E+02 -0.29819036930E+02  0.31059971729E+03  0.32049219204E+03  0.00000000000E+00 0. -1.
        -14    1    5    5    0    0 -0.25437264347E+02 -0.40591263819E+02  0.57833202805E+03  0.58031253630E+03  0.00000000000E+00 0.  1.
          5    1    4    4  501    0  0.78843518556E+02  0.17247225291E+03  0.36181572036E+03  0.40852303037E+03  0.41800000000E+01 0. -1.
         -5    1    4    4    0  501  0.13834221525E+02 -0.21311058682E+02  0.73446624759E+02  0.77829467400E+02  0.41800000000E+01 0. -1.
</event>
<event>
11    1  0.1249131E-008  0.1728779E+03  0.7561462E-02  0.1075554E+00
         22   -1    0    0    0    0  0.00000000000E+00  0.00000000000E+00  0.25613815532E+04  0.25613815532E+04  0.00000000000E+00 0.  1.
         22   -1    0    0    0    0 -0.00000000000E+00 -0.00000000000E+00 -0.52313960465E+03  0.52313960465E+03  0.00000000000E+00 0.  1.
         24    2    1    2    0    0  0.75877378914E+01  0.22937323379E+02 -0.27523922577E+03  0.28783972088E+03  0.80693115849E+02 0.  0.
         25    2    1    2    0    0 -0.12081159129E+03  0.14743774856E+02 -0.20787305929E+03  0.27142463333E+03  0.12508918145E+03 0.  0.
        -24    2    1    2    0    0  0.11322385340E+03 -0.37681098235E+02  0.25213542336E+04  0.25252568036E+04  0.73859643407E+02 0.  0.
        -11    1    3    3    0    0  0.16972195574E+02  0.51468576002E+02 -0.17816027057E+03  0.18622070709E+03  0.00000000000E+00 0.  1.
         12    1    3    3    0    0 -0.93844576827E+01 -0.28531252623E+02 -0.97078955194E+02  0.10161901379E+03  0.00000000000E+00 0. -1.
         11    1    5    5    0    0  0.73847103668E+01  0.18816354420E+02  0.32443470836E+03  0.32506379240E+03  0.00000000000E+00 0. -1.
        -12    1    5    5    0    0  0.10583914303E+03 -0.56497452655E+02  0.21969195252E+04  0.22001930112E+04  0.00000000000E+00 0.  1.
          5    1    4    4  501    0 -0.13180084269E+02 -0.69589573512E+01 -0.14297969836E+03  0.14381518783E+03  0.41800000000E+01 0. -1.
         -5    1    4    4    0  501 -0.10763150702E+03  0.21702732207E+02 -0.64893360928E+02  0.12760944550E+03  0.41800000000E+01 0. -1.
</event>
<event>
11    1  0.1078607E-008  0.1356633E+03  0.7561462E-02  0.1112500E+00
         22   -1    0    0    0    0  0.00000000000E+00  0.00000000000E+00  0.34300860676E+03  0.34300860676E+03  0.00000000000E+00 0.  1.
         22   -1    0    0    0    0 -0.00000000000E+00 -0.00000000000E+00 -0.23346823917E+03  0.23346823917E+03  0.00000000000E+00 0. -1.
        -24    2    1    2    0    0 -0.48189775021E+02 -0.12352079122E+02 -0.12129166746E+03  0.15225100059E+03  0.77420089834E+02 0.  0.
         25    2    1    2    0    0  0.60089083900E+02  0.15689151649E+02 -0.36898300308E+02  0.14444944325E+03  0.12508920659E+03 0.  0.
         24    2    1    2    0    0 -0.11899308879E+02 -0.33370725265E+01  0.26773033536E+03  0.27977640209E+03  0.80265640786E+02 0.  0.
        -11    1    5    5    0    0 -0.33273496016E+02 -0.28147089882E+02  0.19799469847E+03  0.20273451810E+03  0.00000000000E+00 0.  1.
         12    1    5    5    0    0  0.21374187138E+02  0.24810017356E+02  0.69735636894E+02  0.77041883998E+02  0.00000000000E+00 0. -1.
         13    1    3    3    0    0 -0.12259375957E+02 -0.82925112890E+01 -0.11450875690E+03  0.11546130715E+03  0.00000000000E+00 0. -1.
        -14    1    3    3    0    0 -0.35930399064E+02 -0.40595678332E+01 -0.67829105658E+01  0.36789693443E+02  0.00000000000E+00 0.  1.
          5    1    4    4  501    0 -0.14322268527E+02 -0.42043605190E+02 -0.19007697418E+02  0.48492855910E+02  0.41800000000E+01 0. -1.
         -5    1    4    4    0  501  0.74411352426E+02  0.57732756839E+02 -0.17890602890E+02  0.95956587340E+02  0.41800000000E+01 0. -1.
</event>
<event>
11    1  0.1078607E-008  0.1966171E+03  0.7561462E-02  0.1056942E+00
         22   -1    0    0    0    0  0.00000000000E+00  0.00000000000E+00  0.56646316537E+03  0.56646316537E+03  0.00000000000E+00 0. -1.
         22   -1    0    0    0    0 -0.00000000000E+00 -0.00000000000E+00 -0.17977840013E+04  0.17977840013E+04  0.00000000000E+00 0.  1.
        -24    2    1    2    0    0  0.50729246685E+02  0.77516491524E+01 -0.16996153599E+04  0.17023011413E+04  0.80642790401E+02 0.  0.
         25    2    1    2    0    0 -0.15090581287E+03  0.99177889206E+02  0.70503373244E+02  0.23069510157E+03  0.12506272900E+03 0.  0.
         24    2    1    2    0    0  0.10017656618E+03 -0.10692953836E+03  0.39779115063E+03  0.43125092385E+03  0.79185157774E+02 0.  0.
        -11    1    5    5    0    0  0.40756672552E+02 -0.19819898089E+02  0.48449694833E+02  0.66342351836E+02  0.00000000000E+00 0.  1.
         12    1    5    5    0    0  0.59419893632E+02 -0.87109640269E+02  0.34934145580E+03  0.36490857201E+03  0.00000000000E+00 0. -1.
         13    1    3    3    0    0  0.85981921814E+01 -0.60124656296E+01 -0.25168558583E+02  0.27267838068E+02  0.00000000000E+00 0. -1.
        -14    1    3    3    0    0  0.42131054503E+02  0.13764114782E+02 -0.16744468013E+04  0.16750333032E+04  0.00000000000E+00 0.  1.
          5    1    4    4  501    0  0.89298035930E+01  0.39999281998E+02  0.40146643021E+02  0.57523119686E+02  0.41800000000E+01 0. -1.
         -5    1    4    4    0  501 -0.15983561646E+03  0.59178607208E+02  0.30356730223E+02  0.17317198189E+03  0.41800000000E+01 0. -1.
</event>
<event>
11    1  0.1078607E-008  0.1418243E+03  0.7561462E-02  0.1105538E+00
         22   -1    0    0    0    0  0.00000000000E+00  0.00000000000E+00  0.94135812217E+03  0.94135812217E+03  0.00000000000E+00 0. -1.
         22   -1    0    0    0    0 -0.00000000000E+00 -0.00000000000E+00 -0.71902440718E+03  0.71902440718E+03  0.00000000000E+00 0.  1.
         24    2    1    2    0    0  0.13326371288E+02  0.70666207363E+02 -0.56923032864E+03  0.57916966577E+03  0.79012844966E+02 0.  0.
         25    2    1    2    0    0 -0.19410810662E+02 -0.33014519300E+02 -0.11285069328E+03  0.17276991718E+03  0.12508967684E+03 0.  0.
        -24    2    1    2    0    0  0.60844393740E+01 -0.37651688063E+02  0.90441473691E+03  0.90844294639E+03  0.76471566541E+02 0.  0.
        -13    1    3    3    0    0  0.15330689883E+02  0.35477274252E+02 -0.49992634680E+03  0.50141800852E+03  0.00000000000E+00 0.  1.
         14    1    3    3    0    0 -0.20043185949E+01  0.35188933111E+02 -0.69303981833E+02  0.77751657245E+02  0.00000000000E+00 0. -1.
         11    1    5    5    0    0  0.13918738130E+02 -0.54326905255E+02  0.82563676383E+03  0.82753924964E+03  0.00000000000E+00 0. -1.
        -12    1    5    5    0    0 -0.78342987556E+01  0.16675217191E+02  0.78777973086E+02  0.80903696756E+02  0.00000000000E+00 0.  1.
          5    1    4    4  501    0  0.50217050733E+02 -0.30578889758E+02 -0.67117368396E+02  0.89325439958E+02  0.41800000000E+01 0. -1.
         -5    1    4    4    0  501 -0.69627861395E+02 -0.24356295414E+01 -0.45733324888E+02  0.83444477223E+02  0.41800000000E+01 0. -1.
</event>
<event>
11    1  0.1078607E-008  0.1400785E+03  0.7561462E-02  0.1107471E+00
         22   -1    0    0    0    0  0.00000000000E+00  0.00000000000E+00  0.17320854894E+03  0.17320854894E+03  0.00000000000E+00 0.  1.
         22   -1    0    0    0    0 -0.00000000000E+00 -0.00000000000E+00 -0.60968827288E+03  0.60968827288E+03  0.00000000000E+00 0. -1.
        -24    2    1    2    0    0  0.25120129142E+02  0.47167411929E+02 -0.40979622544E+03  0.42109992116E+03  0.80848077197E+02 0.  0.
         25    2    1    2    0    0 -0.65763377650E+00  0.16462440209E+02 -0.15277437290E+03  0.19813855280E+03  0.12508969849E+03 0.  0.
         24    2    1    2    0    0 -0.24462495365E+02 -0.63629852139E+02  0.12609087439E+03  0.16365834786E+03  0.78980848682E+02 0.  0.
        -11    1    5    5    0    0 -0.47580397139E+02 -0.65146846981E+02  0.10425377067E+03  0.13182129784E+03  0.00000000000E+00 0.  1.
         12    1    5    5    0    0  0.23117901774E+02  0.15169948420E+01  0.21837103711E+02  0.31837050024E+02  0.00000000000E+00 0. -1.
         11    1    3    3    0    0  0.14590431641E+02  0.39028260413E+02 -0.40471512151E+03  0.40685429257E+03  0.00000000000E+00 0. -1.
        -12    1    3    3    0    0  0.10529697501E+02  0.81391515164E+01 -0.50811039278E+01  0.14245628593E+02  0.00000000000E+00 0.  1.
          5    1    4    4  501    0  0.52267261993E+02  0.33252219645E+02 -0.44511134962E+02  0.76395617172E+02  0.41800000000E+01 0.  1.
         -5    1    4    4    0  501 -0.52924895769E+02 -0.16789779435E+02 -0.10826323794E+03  0.12174293562E+03  0.41800000000E+01 0.  1.
</event>
<event>
11    1  0.1078607E-008  0.1458949E+03  0.7561462E-02  0.1101149E+00
         22   -1    0    0    0    0  0.00000000000E+00  0.00000000000E+00  0.46709276827E+03  0.46709276827E+03  0.00000000000E+00 0.  1.
         22   -1    0    0    0    0 -0.00000000000E+00 -0.00000000000E+00 -0.99767166906E+03  0.99767166906E+03  0.00000000000E+00 0.  1.
        -24    2    1    2    0    0 -0.28758254808E+02  0.70864878027E+02 -0.85783273910E+03  0.86518989924E+03  0.82629808863E+02 0.  0.
         25    2    1    2    0    0 -0.17356639600E+02 -0.70640686018E+02 -0.91253303773E+02  0.17107413732E+03  0.12509130885E+03 0.  0.
         24    2    1    2    0    0  0.46114894408E+02 -0.22419200906E+00  0.41850714208E+03  0.42850040077E+03  0.79609872123E+02 0.  0.
        -13    1    5    5    0    0  0.10164556255E+02 -0.10262245584E+02  0.35151656940E+03  0.35181320392E+03  0.00000000000E+00 0.  1.
         14    1    5    5    0    0  0.35950338153E+02  0.10038053575E+02  0.66990572678E+02  0.76687196850E+02  0.00000000000E+00 0. -1.
         13    1    3    3    0    0  0.23154287147E+02  0.20598746888E+01 -0.28011714483E+03  0.28108002228E+03  0.00000000000E+00 0. -1.
        -14    1    3    3    0    0 -0.51912541955E+02  0.68805003338E+02 -0.57771559427E+03  0.58410987696E+03  0.00000000000E+00 0.  1.
          5    1    4    4  501    0 -0.69027345004E+02 -0.19846880170E+02 -0.41140319689E+02  0.82877447565E+02  0.41800000000E+01 0.  1.
         -5    1    4    4    0  501  0.51670705404E+02 -0.50793805848E+02 -0.50112984084E+02  0.88196689752E+02  0.41800000000E+01 0.  1.
</event>
<event>
11    1  0.1078607E-008  0.1645542E+03  0.7561462E-02  0.1082870E+00
         22   -1    0    0    0    0  0.00000000000E+00  0.00000000000E+00  0.30770798419E+03  0.30770798419E+03  0.00000000000E+00 0. -1.
         22   -1    0    0    0    0 -0.00000000000E+00 -0.00000000000E+00 -0.14311043926E+04  0.14311043926E+04  0.00000000000E+00 0. -1.
        -24    2    1    2    0    0 -0.65025678308E+02  0.88720766507E+02 -0.13304255485E+04  0.13373744037E+04  0.80239904466E+02 0.  0.
         25    2    1    2    0    0  0.25511511864E+02 -0.53602201363E+02 -0.33149178960E+02  0.14237758311E+03  0.12509386427E+03 0.  0.
         24    2    1    2    0    0  0.39514166444E+02 -0.35118565144E+02  0.24017831908E+03  0.25906038998E+03  0.81436955589E+02 0.  0.
        -13    1    5    5    0    0 -0.71943718971E+01  0.21113992970E+01 -0.34235780660E+01  0.82424438584E+01  0.00000000000E+00 0.  1.
         14    1    5    5    0    0  0.46708538341E+02 -0.37229964441E+02  0.24360189714E+03  0.25081794612E+03  0.00000000000E+00 0. -1.
         13    1    3    3    0    0 -0.79712287077E+02  0.50229477692E+02 -0.98692195974E+03  0.99140910010E+03  0.00000000000E+00 0. -1.
        -14    1    3    3    0    0  0.14686608769E+02  0.38491288815E+02 -0.34350358878E+03  0.34596530360E+03  0.00000000000E+00 0.  1.
          5    1    4    4  501    0  0.46245255512E+02 -0.79922544274E+02 -0.49510168157E+02  0.10485688290E+03  0.41800000000E+01 0. -1.
         -5    1    4    4    0  501 -0.20733743648E+02  0.26320342911E+02  0.16360989197E+02  0.37520700208E+02  0.41800000000E+01 0. -1.
</event>
<event>
11    1  0.1078607E-008  0.1673142E+03  0.7561462E-02  0.1080393E+00
         22   -1    0    0    0    0  0.00000000000E+00  0.00000000000E+00  0.28289801168E+04  0.28289801168E+04  0.00000000000E+00 0.  1.
         22   -1    0    0    0    0 -0.00000000000E+00 -0.00000000000E+00 -0.39952441763E+02  0.39952441763E+02  0.00000000000E+00 0.  1.
        -24    2    1    2    0    0 -0.61200423808E+02  0.85084027426E+02  0.11917940696E+03  0.17785075126E+03  0.80264407311E+02 0.  0.
         25    2    1    2    0    0  0.11461554578E+03 -0.11687414174E+03  0.11926864429E+04  0.12103492844E+04  0.12509256974E+03 0.  0.
         24    2    1    2    0    0 -0.53415121968E+02  0.31790114311E+02  0.14771618252E+04  0.14807325228E+04  0.81841064304E+02 0.  0.
        -13    1    5    5    0    0 -0.38808226046E+02 -0.20119812046E+02  0.89871926869E+03  0.89978175640E+03  0.00000000000E+00 0.  1.
         14    1    5    5    0    0 -0.14606895922E+02  0.51909926357E+02  0.57844255649E+03  0.58095076644E+03  0.00000000000E+00 0. -1.
         13    1    3    3    0    0  0.91583796702E+01  0.55083979772E+01 -0.71056688302E+01  0.12833896368E+02  0.00000000000E+00 0. -1.
        -14    1    3    3    0    0 -0.70358803478E+02  0.79575629449E+02  0.12628507579E+03  0.16501685489E+03  0.00000000000E+00 0.  1.
          5    1    4    4  501    0  0.19710958596E+02 -0.10623869463E+03  0.54227782953E+03  0.55295379457E+03  0.41800000000E+01 0. -1.
         -5    1    4    4    0  501  0.94904587180E+02 -0.10635447109E+02  0.65040861333E+03  0.65739548987E+03  0.41800000000E+01 0. -1.
</event>
<event>
11    1  0.1078607E-008  0.1462448E+03  0.7561462E-02  0.1100779E+00
         22   -1    0    0    0    0  0.00000000000E+00  0.00000000000E+00  0.72782961714E+03  0.72782961714E+03  0.00000000000E+00 0.  1.
         22   -1    0    0    0    0 -0.00000000000E+00 -0.00000000000E+00 -0.14594347516E+03  0.14594347516E+03  0.00000000000E+00 0.  1.
        -24    2    1    2    0    0 -0.76211393028E+02 -0.23075551278E+02 -0.89473420441E+02  0.14067790416E+03  0.73784295476E+02 0.  0.
         25    2    1    2    0    0  0.44155847069E+02  0.28374330286E+02  0.14102882101E+03  0.19566592001E+03  0.12506471304E+03 0.  0.
         24    2    1    2    0    0  0.32055545958E+02 -0.52987790080E+01  0.53033074140E+03  0.53742926814E+03  0.80770588004E+02 0.  0.
        -11    1    5    5    0    0  0.51682169981E+02 -0.25865278240E+02  0.38876849815E+03  0.39304071604E+03  0.00000000000E+00 0.  1.
         12    1    5    5    0    0 -0.19626624023E+02  0.20566499232E+02  0.14156224326E+03  0.14438855210E+03  0.00000000000E+00 0. -1.
         11    1    3    3    0    0 -0.95420951384E+00  0.20214326777E+02 -0.84702439509E+01  0.21937970631E+02  0.00000000000E+00 0. -1.
        -12    1    3    3    0    0 -0.75257183514E+02 -0.43289878055E+02 -0.81003176490E+02  0.11873993353E+03  0.00000000000E+00 0.  1.
          5    1    4    4  501    0  0.71696909514E+02  0.52085495544E+02  0.60978564035E+02  0.10765316229E+03  0.41800000000E+01 0. -1.
         -5    1    4    4    0  501 -0.27541062445E+02 -0.23711165257E+02  0.80050256977E+02  0.88012757714E+02  0.41800000000E+01 0. -1.
</event>
<event>
11    1  0.1078607E-008  0.1312463E+03  0.7561462E-02  0.1117747E+00
         22   -1    0    0    0    0  0.00000000000E+00  0.00000000000E+00  0.96475365941E+03  0.96475365941E+03  0.00000000000E+00 0.  1.
         22   -1    0    0    0    0 -0.00000000000E+00 -0.00000000000E+00 -0.15270274411E+03  0.15270274411E+03  0.00000000000E+00 0. -1.
        -24    2    1    2    0    0  0.23645790210E+02  0.33171251378E+02 -0.10397775698E+03  0.13718409069E+03  0.79678387783E+02 0.  0.
         25    2    1    2    0    0 -0.14282700833E+02 -0.28192745821E+02  0.10927973719E+03  0.16908030552E+03  0.12508901748E+03 0.  0.
         24    2    1    2    0    0 -0.93630893775E+01 -0.49785055576E+01  0.80674893509E+03  0.81119200732E+03  0.84120006588E+02 0.  0.
        -13    1    5    5    0    0 -0.38802304881E+02 -0.27607858084E+02  0.44209646889E+03  0.44465391092E+03  0.00000000000E+00 0.  1.
         14    1    5    5    0    0  0.29439215504E+02  0.22629352526E+02  0.36465246620E+03  0.36653809640E+03  0.00000000000E+00 0. -1.
         13    1    3    3    0    0  0.11557819193E+02  0.37555229684E+02 -0.11419143722E+03  0.12076283698E+03  0.00000000000E+00 0. -1.
        -14    1    3    3    0    0  0.12087971017E+02 -0.43839783054E+01  0.10213680247E+02  0.16421253706E+02  0.00000000000E+00 0.  1.
          5    1    4    4  501    0 -0.44800006083E+02 -0.63238388500E+02  0.45202526744E+02  0.89815784521E+02  0.41800000000E+01 0. -1.
         -5    1    4    4    0  501  0.30517305250E+02  0.35045642679E+02  0.64077210443E+02  0.79264520996E+02  0.41800000000E+01 0. -1.
</event>
<event>
11    1  0.1078607E-008  0.1468127E+03  0.7561462E-02  0.1100181E+00
         22   -1    0    0    0    0  0.00000000000E+00  0.00000000000E+00  0.57223196874E+03  0.57223196874E+03  0.00000000000E+00 0.  1.
         22   -1    0    0    0    0 -0.00000000000E+00 -0.00000000000E+00 -0.40577039515E+03  0.40577039515E+03  0.00000000000E+00 0. -1.
         24    2    1    2    0    0 -0.53828687021E+02 -0.61369938646E+02 -0.34369102318E+03  0.36265672328E+03  0.82052316266E+02 0.  0.
         25    2    1    2    0    0  0.23818224189E+02  0.22926958142E+02  0.39029363351E+02  0.13514469163E+03  0.12509133966E+03 0.  0.
        -24    2    1    2    0    0  0.30010462832E+02  0.38442980504E+02  0.47112323342E+03  0.48020094899E+03  0.79103474756E+02 0.  0.
        -13    1    3    3    0    0 -0.44347297283E+02 -0.15623163489E+02 -0.65840049866E+02  0.80905365583E+02  0.00000000000E+00 0.  1.
         14    1    3    3    0    0 -0.94813897377E+01 -0.45746775157E+02 -0.27785097332E+03  0.28175135769E+03  0.00000000000E+00 0. -1.
         11    1    5    5    0    0 -0.49079167191E+01 -0.14843904322E+02  0.24545139166E+02  0.29101426060E+02  0.00000000000E+00 0. -1.
        -12    1    5    5    0    0  0.34918379551E+02  0.53286884826E+02  0.44657809425E+03  0.45109952293E+03  0.00000000000E+00 0.  1.
          5    1    4    4  501    0  0.37782652147E+02  0.39482614812E+02  0.75034643226E+02  0.92919727506E+02  0.41800000000E+01 0. -1.
         -5    1    4    4    0  501 -0.13964427958E+02 -0.16555656670E+02 -0.36005279875E+02  0.42224964119E+02  0.41800000000E+01 0. -1.
</event>
<event>
11    1  0.1078607E-008  0.1830577E+03  0.7561462E-02  0.1067196E+00
         22   -1    0    0    0    0  0.00000000000E+00  0.00000000000E+00  0.85595179962E+03  0.85595179962E+03  0.00000000000E+00 0. -1.
         22   -1    0    0    0    0 -0.00000000000E+00 -0.00000000000E+00 -0.47515102345E+03  0.47515102345E+03  0.00000000000E+00 0. -1.
        -24    2    1    2    0    0 -0.61226136518E+02  0.12283242396E+03 -0.32477002732E+03  0.36169187797E+03  0.80678372421E+02 0.  0.
         25    2    1    2    0    0  0.90761440651E+02 -0.89025098929E+02 -0.67528783554E+02  0.19071183004E+03  0.12509099951E+03 0.  0.
         24    2    1    2    0    0 -0.29535304133E+02 -0.33807325026E+02  0.77309958703E+03  0.77869911506E+03  0.81694987084E+02 0.  0.
        -11    1    5    5    0    0 -0.28301511825E+02 -0.19028126171E+02  0.10427595199E+03  0.10971107200E+03  0.00000000000E+00 0.  1.
         12    1    5    5    0    0 -0.12337923078E+01 -0.14779198855E+02  0.66882363505E+03  0.66898804306E+03  0.00000000000E+00 0. -1.
         13    1    3    3    0    0 -0.60507995653E+02  0.83721553400E+02 -0.29491665123E+03  0.31248415514E+03  0.00000000000E+00 0. -1.
        -14    1    3    3    0    0 -0.71814086452E+00  0.39110870555E+02 -0.29853376085E+02  0.49207722824E+02  0.00000000000E+00 0.  1.
          5    1    4    4  501    0  0.29411334073E+02 -0.71653761887E+02  0.22084116954E+02  0.80650286957E+02  0.41800000000E+01 0. -1.
         -5    1    4    4    0  501  0.61350106578E+02 -0.17371337042E+02 -0.89612900508E+02  0.11006154308E+03  0.41800000000E+01 0. -1.
</event>
<event>
11    1  0.1078607E-008  0.1660089E+03  0.7561462E-02  0.1081558E+00
         22   -1    0    0    0    0  0.00000000000E+00  0.00000000000E+00  0.38649240548E+03  0.38649240548E+03  0.00000000000E+00 0.  1.
         22   -1    0    0    0    0 -0.00000000000E+00 -0.00000000000E+00 -0.10484805721E+04  0.10484805721E+04  0.00000000000E+00 0.  1.
        -24    2    1    2    0    0  0.63603992764E+02  0.90633076627E+02 -0.95265222421E+03  0.96230240842E+03  0.78865977924E+02 0.  0.
         25    2    1    2    0    0 -0.33180608520E+02 -0.82399173545E+02 -0.16081860886E+02  0.15425363767E+03  0.12507990207E+03 0.  0.
         24    2    1    2    0    0 -0.30423384244E+02 -0.82339030820E+01  0.30674591847E+03  0.31841693151E+03  0.79390832640E+02 0.  0.
        -11    1    5    5    0    0 -0.28623244255E+00 -0.32515078961E+02  0.23178644800E+03  0.23405612525E+03  0.00000000000E+00 0.  1.
         12    1    5    5    0    0 -0.30137151802E+02  0.24281175879E+02  0.74959470468E+02  0.84360806265E+02  0.00000000000E+00 0. -1.
         11    1    3    3    0    0  0.52374495142E+02  0.26294311662E+02 -0.25729892118E+03  0.26388863827E+03  0.00000000000E+00 0. -1.
        -12    1    3    3    0    0  0.11229497622E+02  0.64338764965E+02 -0.69535330303E+03  0.69841377015E+03  0.00000000000E+00 0.  1.
          5    1    4    4  501    0 -0.16463852922E+02  0.21703517230E+02  0.28551265586E+02  0.39683098162E+02  0.41800000000E+01 0.  1.
         -5    1    4    4    0  501 -0.16716755597E+02 -0.10410269078E+03 -0.44633126471E+02  0.11457053951E+03  0.41800000000E+01 0.  1.
</event>
<event>
11    1  0.1078607E-008  0.1886395E+03  0.7561462E-02  0.1062861E+00
         22   -1    0    0    0    0  0.00000000000E+00  0.00000000000E+00  0.63401317469E+03  0.63401317469E+03  0.00000000000E+00 0.  1.
         22   -1    0    0    0    0 -0.00000000000E+00 -0.00000000000E+00 -0.40836356944E+03  0.40836356944E+03  0.00000000000E+00 0.  1.
        -24    2    1    2    0    0 -0.10517450875E+03  0.45204821701E+02 -0.12350948743E+03  0.18980268353E+03  0.87551767512E+02 0.  0.
         25    2    1    2    0    0  0.19264819232E+03  0.71278367545E+00 -0.19028162048E+03  0.29827652275E+03  0.12509178578E+03 0.  0.
         24    2    1    2    0    0 -0.87473683572E+02 -0.45917605376E+02  0.53944071316E+03  0.55429753785E+03  0.80556847309E+02 0.  0.
        -11    1    5    5    0    0 -0.91547281670E+02 -0.39308810628E+02  0.53699346662E+03  0.54615755105E+03  0.00000000000E+00 0.  1.
         12    1    5    5    0    0  0.40735980985E+01 -0.66087947483E+01  0.24472465420E+01  0.81399868016E+01  0.00000000000E+00 0. -1.
         13    1    3    3    0    0  0.15162784834E+02  0.30842939469E+00 -0.84393335863E+01  0.17355907467E+02  0.00000000000E+00 0. -1.
        -14    1    3    3    0    0 -0.12033729358E+03  0.44896392306E+02 -0.11507015384E+03  0.17244677606E+03  0.00000000000E+00 0.  1.
          5    1    4    4  501    0 -0.16537661314E+02 -0.10391553477E+02 -0.13154759444E+02  0.23916494756E+02  0.41800000000E+01 0. -1.
         -5    1    4    4    0  501  0.20918585363E+03  0.11104337152E+02 -0.17712686103E+03  0.27436002800E+03  0.41800000000E+01 0. -1.
</event>
<event>
11    1  0.1078607E-008  0.2016308E+03  0.7561462E-02  0.1053376E+00
         22   -1    0    0    0    0  0.00000000000E+00  0.00000000000E+00  0.25727597892E+03  0.25727597892E+03  0.00000000000E+00 0. -1.
         22   -1    0    0    0    0 -0.00000000000E+00 -0.00000000000E+00 -0.83356491254E+03  0.83356491254E+03  0.00000000000E+00 0. -1.
         24    2    1    2    0    0 -0.50907466955E+02 -0.31794343488E+02 -0.53455596902E+03  0.54400487628E+03  0.81171244447E+02 0.  0.
         25    2    1    2    0    0  0.16067356566E+03  0.13500457286E+03 -0.19894121906E+03  0.31506976777E+03  0.12509644491E+03 0.  0.
        -24    2    1    2    0    0 -0.10976609870E+03 -0.10321022938E+03  0.15720825446E+03  0.23176624742E+03  0.79373864076E+02 0.  0.
        -11    1    3    3    0    0 -0.52622883702E+02 -0.11031440653E+02 -0.15847907211E+03  0.16735135754E+03  0.00000000000E+00 0.  1.
         12    1    3    3    0    0  0.17154167470E+01 -0.20762902835E+02 -0.37607689691E+03  0.37665351874E+03  0.00000000000E+00 0. -1.
         13    1    5    5    0    0 -0.39539395906E+02 -0.14205522044E+02  0.91604490325E+02  0.10077967718E+03  0.00000000000E+00 0. -1.
        -14    1    5    5    0    0 -0.70226702797E+02 -0.89004707331E+02  0.65603764135E+02  0.13098657023E+03  0.00000000000E+00 0.  1.
          5    1    4    4  501    0  0.16584796970E+03  0.99521147710E+02 -0.20091241475E+03  0.27891446484E+03  0.41800000000E+01 0. -1.
         -5    1    4    4    0  501 -0.51744040396E+01  0.35483425154E+02  0.19711956943E+01  0.36155302935E+02  0.41800000000E+01 0. -1.
</event>
<event>
11    1  0.1078607E-008  0.1377399E+03  0.7561462E-02  0.1110109E+00
         22   -1    0    0    0    0  0.00000000000E+00  0.00000000000E+00  0.14805472531E+03  0.14805472531E+03  0.00000000000E+00 0.  1.
         22   -1    0    0    0    0 -0.00000000000E+00 -0.00000000000E+00 -0.19356962606E+04  0.19356962606E+04  0.00000000000E+00 0. -1.
        -24    2    1    2    0    0 -0.42940909687E+02 -0.57600674922E+02 -0.10666041309E+04  0.10720799099E+04  0.80927137413E+02 0.  0.
         25    2    1    2    0    0  0.89846757155E+02  0.87866901222E+02 -0.83331639324E+03  0.85197170144E+03  0.12508611718E+03 0.  0.
         24    2    1    2    0    0 -0.46905847467E+02 -0.30266226300E+02  0.11227898886E+03  0.15969937462E+03  0.98899524428E+02 0.  0.
        -13    1    5    5    0    0 -0.52582336455E+01 -0.49713486381E+02  0.10050470017E+03  0.11225094434E+03  0.00000000000E+00 0.  1.
         14    1    5    5    0    0 -0.41647613822E+02  0.19447260081E+02  0.11774288696E+02  0.47448430280E+02  0.00000000000E+00 0. -1.
         11    1    3    3    0    0 -0.65884556777E+02 -0.48133341725E+02 -0.72547277393E+03  0.73004680612E+03  0.00000000000E+00 0. -1.
        -12    1    3    3    0    0  0.22943647090E+02 -0.94673331967E+01 -0.34113135699E+03  0.34203310376E+03  0.00000000000E+00 0.  1.
          5    1    4    4  501    0  0.50029676262E+02 -0.22455970442E+02 -0.36778495028E+03  0.37187428140E+03  0.41800000000E+01 0. -1.
         -5    1    4    4    0  501  0.39817080893E+02  0.11032287166E+03 -0.46553144296E+03  0.48009742004E+03  0.41800000000E+01 0. -1.
</event>
<event>
11    1  0.1078607E-008  0.1442166E+03  0.7561462E-02  0.1102939E+00
         22   -1    0    0    0    0  0.00000000000E+00  0.00000000000E+00  0.21738367334E+03  0.21738367334E+03  0.00000000000E+00 0. -1.
         22   -1    0    0    0    0 -0.00000000000E+00 -0.00000000000E+00 -0.11299558303E+04  0.11299558303E+04  0.00000000000E+00 0.  1.
         24    2    1    2    0    0 -0.71802119799E+02  0.13442227168E+02 -0.10130603770E+04  0.10188654455E+04  0.80369338950E+02 0.  0.
         25    2    1    2    0    0  0.44983949445E+02 -0.36803725366E+02 -0.55837904215E+02  0.14880584884E+03  0.12508892514E+03 0.  0.
        -24    2    1    2    0    0  0.26818170354E+02  0.23361498198E+02  0.15632612422E+03  0.17966820937E+03  0.81103850013E+02 0.  0.
        -11    1    3    3    0    0 -0.37604086096E+02 -0.12895605713E+02 -0.82323475268E+03  0.82419404388E+03  0.00000000000E+00 0.  1.
         12    1    3    3    0    0 -0.34198033703E+02  0.26337832881E+02 -0.18982562430E+03  0.19467140158E+03  0.00000000000E+00 0. -1.
         13    1    5    5    0    0 -0.26445444677E+02 -0.14092410980E+00  0.75950235326E+02  0.80422755796E+02  0.00000000000E+00 0. -1.
        -14    1    5    5    0    0  0.53263615031E+02  0.23502422308E+02  0.80375888894E+02  0.99245453578E+02  0.00000000000E+00 0.  1.
          5    1    4    4  501    0  0.13881841954E+02 -0.74349207631E+02 -0.64036982625E+02  0.99190310793E+02  0.41800000000E+01 0.  1.
         -5    1    4    4    0  501  0.31102107490E+02  0.37545482265E+02  0.81990784096E+01  0.49615538046E+02  0.41800000000E+01 0.  1.
</event>
<event>
11    1  0.1078607E-008  0.2415859E+03  0.7561462E-02  0.1028479E+00
         22   -1    0    0    0    0  0.00000000000E+00  0.00000000000E+00  0.42650564308E+04  0.42650564308E+04  0.00000000000E+00 0.  1.
         22   -1    0    0    0    0 -0.00000000000E+00 -0.00000000000E+00 -0.46226788979E+02  0.46226788979E+02  0.00000000000E+00 0. -1.
        -24    2    1    2    0    0  0.18399852044E+03 -0.89055839087E+02  0.31789409923E+03  0.38748386616E+03  0.85444076515E+02 0.  0.
         25    2    1    2    0    0 -0.16113820700E+03  0.16060424813E+03  0.16539499006E+04  0.16742033707E+04  0.12508959280E+03 0.  0.
         24    2    1    2    0    0 -0.22860313444E+02 -0.71548409039E+02  0.22469856420E+04  0.22495959830E+04  0.78075877338E+02 0.  0.
        -11    1    5    5    0    0 -0.27727394246E+02 -0.86392531867E+01  0.13848441503E+04  0.13851486439E+04  0.00000000000E+00 0.  1.
         12    1    5    5    0    0  0.48670808012E+01 -0.62909155853E+02  0.86214149169E+03  0.86444733909E+03  0.00000000000E+00 0. -1.
         11    1    3    3    0    0  0.15769971644E+03 -0.82566942353E+02  0.31282670353E+03  0.35992644662E+03  0.00000000000E+00 0. -1.
        -12    1    3    3    0    0  0.26298804003E+02 -0.64888967336E+01  0.50673957005E+01  0.27557419545E+02  0.00000000000E+00 0.  1.
          5    1    4    4  501    0 -0.66634487281E+01  0.60973281343E+02  0.21709027706E+03  0.22562757673E+03  0.41800000000E+01 0. -1.
         -5    1    4    4    0  501 -0.15447475827E+03  0.99630966784E+02  0.14368596236E+04  0.14485757939E+04  0.41800000000E+01 0. -1.
</event>
<event>
11    1  0.1078607E-008  0.1296258E+03  0.7561462E-02  0.1119730E+00
         22   -1    0    0    0    0  0.00000000000E+00  0.00000000000E+00  0.57055488997E+03  0.57055488997E+03  0.00000000000E+00 0. -1.
         22   -1    0    0    0    0 -0.00000000000E+00 -0.00000000000E+00 -0.75815851768E+03  0.75815851768E+03  0.00000000000E+00 0. -1.
         24    2    1    2    0    0 -0.17513933136E+02  0.27865120699E+02 -0.63839753709E+03  0.64448418668E+03  0.82007613743E+02 0.  0.
         25    2    1    2    0    0  0.56700231202E+01 -0.53030718472E+02 -0.72913698563E+02  0.15429835692E+03  0.12508864555E+03 0.  0.
        -24    2    1    2    0    0  0.11843910015E+02  0.25165597772E+02  0.52370760795E+03  0.52993086406E+03  0.76049171869E+02 0.  0.
        -13    1    3    3    0    0  0.31588610036E+02  0.92878189864E+01 -0.33123500538E+03  0.33286744006E+03  0.00000000000E+00 0.  1.
         14    1    3    3    0    0 -0.49102543172E+02  0.18577301713E+02 -0.30716253171E+03  0.31161674662E+03  0.00000000000E+00 0. -1.
         11    1    5    5    0    0 -0.71660080739E+01  0.19742406309E+02  0.49276617707E+03  0.49321356383E+03  0.00000000000E+00 0. -1.
        -12    1    5    5    0    0  0.19009918089E+02  0.54231914638E+01  0.30941430877E+02  0.36717300230E+02  0.00000000000E+00 0.  1.
          5    1    4    4  501    0  0.25017779942E+01 -0.16235381324E+02 -0.10428971255E+03  0.10565823699E+03  0.41800000000E+01 0.  1.
         -5    1    4    4    0  501  0.31682451260E+01 -0.36795337147E+02  0.31376013987E+02  0.48640119929E+02  0.41800000000E+01 0.  1.
</event>
<event>
11    1  0.1078607E-008  0.1973309E+03  0.7561462E-02  0.1056427E+00
         22   -1    0    0    0    0  0.00000000000E+00  0.00000000000E+00  0.62381831958E+02  0.62381831958E+02  0.00000000000E+00 0. -1.
         22   -1    0    0    0    0 -0.00000000000E+00 -0.00000000000E+00 -0.17306731387E+04  0.17306731387E+04  0.00000000000E+00 0.  1.
        -24    2    1    2    0    0  0.33620528811E+02 -0.44448982303E+02 -0.11199980688E+04  0.11242439055E+04  0.80141331268E+02 0.  0.
         25    2    1    2    0    0 -0.31627370580E+02 -0.12375443427E+03 -0.37020926983E+03  0.41111690471E+03  0.12508699092E+03 0.  0.
         24    2    1    2    0    0 -0.19931582307E+01  0.16820341658E+03 -0.17808396811E+03  0.25769416043E+03  0.79975112358E+02 0.  0.
        -13    1    5    5    0    0 -0.19862298577E+02  0.86386973184E+02 -0.13998606114E+03  0.16569042626E+03  0.00000000000E+00 0.  1.
         14    1    5    5    0    0  0.17869140347E+02  0.81816443392E+02 -0.38097906962E+02  0.92003734169E+02  0.00000000000E+00 0. -1.
         11    1    3    3    0    0  0.24805323662E+02 -0.62027397441E+02 -0.57112379465E+03  0.57501747011E+03  0.00000000000E+00 0. -1.
        -12    1    3    3    0    0  0.88152051488E+01  0.17578415138E+02 -0.54887427413E+03  0.54922643538E+03  0.00000000000E+00 0.  1.
          5    1    4    4  501    0 -0.40511592998E+02 -0.14735735716E+03 -0.32550145291E+03  0.35961652927E+03  0.41800000000E+01 0.  1.
         -5    1    4    4    0  501  0.88842224172E+01  0.23602922887E+02 -0.44707816919E+02  0.51500375440E+02  0.41800000000E+01 0.  1.
</event>
<event>
11    1  0.1078607E-008  0.1488053E+03  0.7561462E-02  0.1098106E+00
         22   -1    0    0    0    0  0.00000000000E+00  0.00000000000E+00  0.15988968306E+03  0.15988968306E+03  0.00000000000E+00 0.  1.
         22   -1    0    0    0    0 -0.00000000000E+00 -0.00000000000E+00 -0.22356604840E+03  0.22356604840E+03  0.00000000000E+00 0.  1.
         24    2    1    2    0    0 -0.44629732318E+02  0.18588524343E+02 -0.67042596712E+02  0.11460721506E+03  0.79389909471E+02 0.  0.
         25    2    1    2    0    0 -0.48056844531E+02 -0.47945197071E+02  0.72260262056E+01  0.14251544902E+03  0.12510090138E+03 0.  0.
        -24    2    1    2    0    0  0.92686576848E+02  0.29356672729E+02 -0.38597948337E+01  0.12633306737E+03  0.80576238025E+02 0.  0.
        -11    1    3    3    0    0 -0.23694619430E+02  0.39759432905E+02 -0.70810988334E+02  0.84595765637E+02  0.00000000000E+00 0.  1.
         12    1    3    3    0    0 -0.20935112888E+02 -0.21170908563E+02  0.37683916223E+01  0.30011449422E+02  0.00000000000E+00 0. -1.
         11    1    5    5    0    0 -0.28630807903E+01 -0.17193632514E+02  0.83885036655E+01  0.19343867876E+02  0.00000000000E+00 0. -1.
        -12    1    5    5    0    0  0.95549657639E+02  0.46550305243E+02 -0.12248298499E+02  0.10698919950E+03  0.00000000000E+00 0.  1.
          5    1    4    4  501    0 -0.41084912554E+02 -0.30648857195E+02 -0.56255275036E+02  0.76219753715E+02  0.41800000000E+01 0. -1.
         -5    1    4    4    0  501 -0.69719319762E+01 -0.17296339877E+02  0.63481301242E+02  0.66295695305E+02  0.41800000000E+01 0. -1.
</event>
<event>
11    1  0.1078607E-008  0.1654473E+03  0.7561462E-02  0.1082063E+00
         22   -1    0    0    0    0  0.00000000000E+00  0.00000000000E+00  0.15770302405E+03  0.15770302405E+03  0.00000000000E+00 0.  1.
         22   -1    0    0    0    0 -0.00000000000E+00 -0.00000000000E+00 -0.14497819922E+04  0.14497819922E+04  0.00000000000E+00 0.  1.
        -24    2    1    2    0    0  0.40927173670E+02  0.67179750886E+02 -0.99768632575E+03  0.10034475601E+04  0.73081110878E+02 0.  0.
         25    2    1    2    0    0 -0.13400646007E+03 -0.11205093722E+03 -0.38813600736E+03  0.44363461087E+03  0.12509581881E+03 0.  0.
         24    2    1    2    0    0  0.93079286397E+02  0.44871186333E+02  0.93743364965E+02  0.16040284529E+03  0.79145924605E+02 0.  0.
        -11    1    5    5    0    0  0.14475787274E+02  0.31420430957E+02  0.68528272777E+02  0.76765331162E+02  0.00000000000E+00 0.  1.
         12    1    5    5    0    0  0.78603499123E+02  0.13450755376E+02  0.25215092188E+02  0.83637514123E+02  0.00000000000E+00 0. -1.
         11    1    3    3    0    0 -0.15157458768E+02  0.34161347166E+02 -0.52102425012E+03  0.52236291542E+03  0.00000000000E+00 0. -1.
        -12    1    3    3    0    0  0.56084632439E+02  0.33018403721E+02 -0.47666207563E+03  0.48108464465E+03  0.00000000000E+00 0.  1.
          5    1    4    4  501    0 -0.85318325598E+02 -0.21442947846E+01 -0.22705375372E+03  0.24259986431E+03  0.41800000000E+01 0. -1.
         -5    1    4    4    0  501 -0.48688134469E+02 -0.10990664244E+03 -0.16108225363E+03  0.20103474656E+03  0.41800000000E+01 0. -1.
</event>
<event>
11    1  0.1078607E-008  0.1327971E+03  0.7561462E-02  0.1115879E+00
         22   -1    0    0    0    0  0.00000000000E+00  0.00000000000E+00  0.55298779197E+03  0.55298779197E+03  0.00000000000E+00 0. -1.
         22   -1    0    0    0    0 -0.00000000000E+00 -0.00000000000E+00 -0.90899098887E+03  0.90899098887E+03  0.00000000000E+00 0. -1.
        -24    2    1    2    0    0  0.55614251700E-01  0.37920953154E+02 -0.77379773040E+03  0.77871582642E+03  0.78723623906E+02 0.  0.
         25    2    1    2    0    0 -0.43043225647E+02 -0.48553029763E+02 -0.89995886575E+02  0.16720287692E+03  0.12508967375E+03 0.  0.
         24    2    1    2    0    0  0.42987611395E+02  0.10632076609E+02  0.50779042007E+03  0.51606007750E+03  0.80659265353E+02 0.  0.
        -13    1    5    5    0    0 -0.12728707127E+02 -0.68779475023E+01  0.19457054712E+02  0.24246713696E+02  0.00000000000E+00 0.  1.
         14    1    5    5    0    0  0.55716318523E+02  0.17510024111E+02  0.48833336536E+03  0.49181336380E+03  0.00000000000E+00 0. -1.
         13    1    3    3    0    0  0.10253080543E+02  0.48394098902E+02 -0.74278869153E+03  0.74443411713E+03  0.00000000000E+00 0. -1.
        -14    1    3    3    0    0 -0.10197466292E+02 -0.10473145748E+02 -0.31009038863E+02  0.34281709290E+02  0.00000000000E+00 0.  1.
          5    1    4    4  501    0 -0.68383341007E+02  0.59030972512E+01 -0.81119376050E+02  0.10634356330E+03  0.41800000000E+01 0.  1.
         -5    1    4    4    0  501  0.25340115360E+02 -0.54456127014E+02 -0.88765105249E+01  0.60859313625E+02  0.41800000000E+01 0.  1.
</event>
<event>
11    1  0.1078607E-008  0.1277023E+03  0.7561462E-02  0.1122125E+00
         22   -1    0    0    0    0  0.00000000000E+00  0.00000000000E+00  0.28725331995E+03  0.28725331995E+03  0.00000000000E+00 0. -1.
         22   -1    0    0    0    0 -0.00000000000E+00 -0.00000000000E+00 -0.61823688801E+03  0.61823688801E+03  0.00000000000E+00 0. -1.
         24    2    1    2    0    0  0.25711422982E+02 -0.78507521677E+01 -0.57109026357E+03  0.57737341713E+03  0.80580779871E+02 0.  0.
         25    2    1    2    0    0  0.46051811884E+01 -0.47980107790E+01  0.89582455969E+02  0.15400381890E+03  0.12509169124E+03 0.  0.
        -24    2    1    2    0    0 -0.30316604170E+02  0.12648762947E+02  0.15052423954E+03  0.17411297193E+03  0.81109140123E+02 0.  0.
        -11    1    3    3    0    0  0.23777679441E+01  0.34142705447E+02 -0.16957682256E+03  0.17299617587E+03  0.00000000000E+00 0.  1.
         12    1    3    3    0    0  0.23333655038E+02 -0.41993457615E+02 -0.40151344101E+03  0.40437724127E+03  0.00000000000E+00 0. -1.
         11    1    5    5    0    0 -0.11967893144E+02  0.78300646311E+01  0.15413873647E+03  0.15480080898E+03  0.00000000000E+00 0. -1.
        -12    1    5    5    0    0 -0.18348711026E+02  0.48186983156E+01 -0.36144969312E+01  0.19312162951E+02  0.00000000000E+00 0.  1.
          5    1    4    4  501    0 -0.15894423543E+02 -0.27654126791E+02  0.11150143733E+03  0.11604924108E+03  0.41800000000E+01 0. -1.
         -5    1    4    4    0  501  0.20499604731E+02  0.22856116012E+02 -0.21918981363E+02  0.37954577817E+02  0.41800000000E+01 0. -1.
</event>
<event>
11    1  0.1078607E-008  0.1823079E+03  0.7561462E-02  0.1067791E+00
         22   -1    0    0    0    0  0.00000000000E+00  0.00000000000E+00  0.13086694915E+04  0.13086694915E+04  0.00000000000E+00 0. -1.
         22   -1    0    0    0    0 -0.00000000000E+00 -0.00000000000E+00 -0.45354324235E+03  0.45354324235E+03  0.00000000000E+00 0. -1.
        -24    2    1    2    0    0 -0.12679025274E+03  0.31533093482E+02 -0.36184000522E+03  0.38928483410E+03  0.59534767269E+02 0.  0.
         25    2    1    2    0    0  0.16846516057E+03  0.45610199237E+02  0.79170365801E+02  0.22885985974E+03  0.12509231783E+03 0.  0.
         24    2    1    2    0    0 -0.41674907829E+02 -0.77143292719E+02  0.11377958886E+04  0.11440680400E+04  0.81389867846E+02 0.  0.
        -11    1    5    5    0    0  0.11198187954E+02 -0.41858275251E+01  0.25883337829E+02  0.28510835531E+02  0.00000000000E+00 0.  1.
         12    1    5    5    0    0 -0.52873095783E+02 -0.72957465194E+02  0.11119125507E+04  0.11155572045E+04  0.00000000000E+00 0. -1.
         13    1    3    3    0    0 -0.55927991769E+02  0.28112249905E+02 -0.99759894461E+02  0.11777213338E+03  0.00000000000E+00 0. -1.
        -14    1    3    3    0    0 -0.70862260971E+02  0.34208435769E+01 -0.26208011076E+03  0.27151270072E+03  0.00000000000E+00 0.  1.
          5    1    4    4  501    0  0.56848677037E+02 -0.43529799077E+02  0.29815291644E+02  0.77672643217E+02  0.41800000000E+01 0. -1.
         -5    1    4    4    0  501  0.11161648353E+03  0.89139998314E+02  0.49355074157E+02  0.15118721652E+03  0.41800000000E+01 0. -1.
</event>
<event>
11    1  0.1078607E-008  0.1730814E+03  0.7561462E-02  0.1075381E+00
         22   -1    0    0    0    0  0.00000000000E+00  0.00000000000E+00  0.43846707346E+03  0.43846707346E+03  0.00000000000E+00 0.  1.
         22   -1    0    0    0    0 -0.00000000000E+00 -0.00000000000E+00 -0.40149346370E+03  0.40149346370E+03  0.00000000000E+00 0.  1.
        -24    2    1    2    0    0  0.70528622337E+02 -0.95663584626E+02 -0.34507216367E+03  0.37339572938E+03  0.78890839699E+02 0.  0.
         25    2    1    2    0    0 -0.49072115290E+02  0.12871372703E+03  0.23435358396E+03  0.29926265902E+03  0.12514487902E+03 0.  0.
         24    2    1    2    0    0 -0.21456507048E+02 -0.33050142407E+02  0.14769218947E+03  0.16730214875E+03  0.68002445074E+02 0.  0.
        -13    1    5    5    0    0 -0.46518693374E+01 -0.43297069117E+02  0.44545196444E+02  0.62294065598E+02  0.00000000000E+00 0.  1.
         14    1    5    5    0    0 -0.16804637710E+02  0.10246926710E+02  0.10314699303E+03  0.10500808315E+03  0.00000000000E+00 0. -1.
         11    1    3    3    0    0  0.24808909788E+02  0.97927643413E+01 -0.48879153978E+02  0.55682599902E+02  0.00000000000E+00 0. -1.
        -12    1    3    3    0    0  0.45719712550E+02 -0.10545634897E+03 -0.29619300970E+03  0.31771312948E+03  0.00000000000E+00 0.  1.
          5    1    4    4  501    0  0.54150966797E+01  0.11513585894E+03  0.20629872485E+03  0.23635191042E+03  0.41800000000E+01 0. -1.
         -5    1    4    4    0  501 -0.54487211969E+02  0.13577868097E+02  0.28054859112E+02  0.62910748605E+02  0.41800000000E+01 0. -1.
</event>
<event>
11    1  0.1078607E-008  0.1321766E+03  0.7561462E-02  0.1116623E+00
         22   -1    0    0    0    0  0.00000000000E+00  0.00000000000E+00  0.29271218675E+03  0.29271218675E+03  0.00000000000E+00 0.  1.
         22   -1    0    0    0    0 -0.00000000000E+00 -0.00000000000E+00 -0.30357643878E+03  0.30357643878E+03  0.00000000000E+00 0. -1.
        -24    2    1    2    0    0 -0.26770417413E+02  0.32066854216E+02 -0.24697105981E+03  0.26333051048E+03  0.81260783770E+02 0.  0.
         25    2    1    2    0    0  0.93434780231E+01 -0.70534392966E+02  0.12898757232E+03  0.19325538007E+03  0.12508975553E+03 0.  0.
         24    2    1    2    0    0  0.17426939390E+02  0.38467538751E+02  0.10711923546E+03  0.13970273497E+03  0.79113044431E+02 0.  0.
        -11    1    5    5    0    0 -0.29290974390E+02  0.24142395419E+00  0.36495619379E+02  0.46796898403E+02  0.00000000000E+00 0.  1.
         12    1    5    5    0    0  0.46717913780E+02  0.38226114796E+02  0.70623616081E+02  0.92905836570E+02  0.00000000000E+00 0. -1.
         11    1    3    3    0    0  0.87941820768E+00  0.25668526218E+02 -0.22742435686E+03  0.22887001705E+03  0.00000000000E+00 0. -1.
        -12    1    3    3    0    0 -0.27649835621E+02  0.63983279973E+01 -0.19546702958E+02  0.34460493431E+02  0.00000000000E+00 0.  1.
          5    1    4    4  501    0 -0.20351770043E+02 -0.22824609403E+02  0.13321655441E+03  0.13674531110E+03  0.41800000000E+01 0.  1.
         -5    1    4    4    0  501  0.29695248066E+02 -0.47709783564E+02 -0.42289820910E+01  0.56510068969E+02  0.41800000000E+01 0.  1.
</event>
<event>
11    1  0.1078607E-008  0.2365128E+03  0.7561462E-02  0.1031340E+00
         22   -1    0    0    0    0  0.00000000000E+00  0.00000000000E+00  0.13560184867E+04  0.13560184867E+04  0.00000000000E+00 0.  1.
         22   -1    0    0    0    0 -0.00000000000E+00 -0.00000000000E+00 -0.72059542678E+03  0.72059542678E+03  0.00000000000E+00 0.  1.
         24    2    1    2    0    0 -0.21519531843E+03  0.24635656325E+02 -0.64924194102E+03  0.68934787587E+03  0.82276699990E+02 0.  0.
         25    2    1    2    0    0  0.96424458697E+02  0.29001180919E+01  0.86046075759E+02  0.17987245832E+03  0.12507632545E+03 0.  0.
        -24    2    1    2    0    0  0.11877085973E+03 -0.27535774417E+02  0.11986189252E+04  0.12073935793E+04  0.79039177133E+02 0.  0.
        -13    1    3    3    0    0 -0.20624234827E+03  0.36758348654E+01 -0.61041178983E+03  0.64432287802E+03  0.00000000000E+00 0.  1.
         14    1    3    3    0    0 -0.89529701600E+01  0.20959821459E+02 -0.38830151190E+02  0.45024997853E+02  0.00000000000E+00 0. -1.
         13    1    5    5    0    0  0.28700749165E+02 -0.39405208816E+02  0.27221094212E+03  0.27654167949E+03  0.00000000000E+00 0. -1.
        -14    1    5    5    0    0  0.90070110567E+02  0.11869434400E+02  0.92640798309E+03  0.93085189983E+03  0.00000000000E+00 0.  1.
          5    1    4    4  501    0  0.25076246858E+02 -0.16925299093E+02 -0.29570351050E+02  0.42510727671E+02  0.41800000000E+01 0.  1.
         -5    1    4    4    0  501  0.71348211839E+02  0.19825417185E+02  0.11561642681E+03  0.13736173065E+03  0.41800000000E+01 0.  1.
</event>
<event>
11    1  0.1078607E-008  0.1834519E+03  0.7561462E-02  0.1066884E+00
         22   -1    0    0    0    0  0.00000000000E+00  0.00000000000E+00  0.58797658393E+03  0.58797658393E+03  0.00000000000E+00 0. -1.
         22   -1    0    0    0    0 -0.00000000000E+00 -0.00000000000E+00 -0.68777584149E+03  0.68777584149E+03  0.00000000000E+00 0. -1.
        -24    2    1    2    0    0  0.41545210692E+02  0.18543343660E+02 -0.61185197322E+03  0.61874987736E+03  0.80116873818E+02 0.  0.
         25    2    1    2    0    0 -0.33937806582E+01 -0.14573060632E+03  0.99105685007E+02  0.21614515149E+03  0.12509141595E+03 0.  0.
         24    2    1    2    0    0 -0.38151430034E+02  0.12718726266E+03  0.41294703065E+03  0.44085739658E+03  0.78726505078E+02 0.  0.
        -13    1    5    5    0    0 -0.44250093078E+02  0.12796365933E+03  0.31689450255E+03  0.34460832055E+03  0.00000000000E+00 0.  1.
         14    1    5    5    0    0  0.60986630443E+01 -0.77639666746E+00  0.96052528093E+02  0.96249076025E+02  0.00000000000E+00 0. -1.
         11    1    3    3    0    0  0.53478834814E+02  0.26263020917E+02 -0.58780460347E+03  0.59081637071E+03  0.00000000000E+00 0. -1.
        -12    1    3    3    0    0 -0.11933624122E+02 -0.77196772563E+01 -0.24047369755E+02  0.27933506650E+02  0.00000000000E+00 0.  1.
          5    1    4    4  501    0  0.55695828792E+02 -0.39774318234E+02  0.51496228982E+02  0.85751709810E+02  0.41800000000E+01 0. -1.
         -5    1    4    4    0  501 -0.59089609450E+02 -0.10595628808E+03  0.47609456025E+02  0.13039344168E+03  0.41800000000E+01 0. -1.
</event>
<event>
11    1  0.1078607E-008  0.2316661E+03  0.7561462E-02  0.1034146E+00
         22   -1    0    0    0    0  0.00000000000E+00  0.00000000000E+00  0.10710583913E+04  0.10710583913E+04  0.00000000000E+00 0.  1.
         22   -1    0    0    0    0 -0.00000000000E+00 -0.00000000000E+00 -0.27440878631E+03  0.27440878631E+03  0.00000000000E+00 0.  1.
        -24    2    1    2    0    0 -0.36656328306E+02  0.19210491781E+03 -0.18014278333E+03  0.27787155184E+03  0.80704343661E+02 0.  0.
         25    2    1    2    0    0  0.55632691219E+02 -0.18405692268E+03  0.26251200603E+03  0.34861454955E+03  0.12509038224E+03 0.  0.
         24    2    1    2    0    0 -0.18976362913E+02 -0.80479951283E+01  0.71428038234E+03  0.71898107626E+03  0.79450933564E+02 0.  0.
        -11    1    5    5    0    0  0.19736127263E+02 -0.13768391602E+02  0.53216082190E+03  0.53270463081E+03  0.00000000000E+00 0.  1.
         12    1    5    5    0    0 -0.38712490176E+02  0.57203964739E+01  0.18211956044E+03  0.18627644544E+03  0.00000000000E+00 0. -1.
         13    1    3    3    0    0  0.13059858545E+02  0.46339646584E+02 -0.11524583567E+02  0.49504936897E+02  0.00000000000E+00 0. -1.
        -14    1    3    3    0    0 -0.49716186850E+02  0.14576527123E+03 -0.16861819977E+03  0.22836661495E+03  0.00000000000E+00 0.  1.
          5    1    4    4  501    0  0.29161686657E+02 -0.15297123315E+03  0.11007107415E+03  0.19074515958E+03  0.41800000000E+01 0. -1.
         -5    1    4    4    0  501  0.26471004562E+02 -0.31085689532E+02  0.15244093188E+03  0.15786938997E+03  0.41800000000E+01 0. -1.
</event>
<event>
11    1  0.1078607E-008  0.1500002E+03  0.7561462E-02  0.1096879E+00
         22   -1    0    0    0    0  0.00000000000E+00  0.00000000000E+00  0.75850641024E+03  0.75850641024E+03  0.00000000000E+00 0.  1.
         22   -1    0    0    0    0 -0.00000000000E+00 -0.00000000000E+00 -0.22917531940E+03  0.22917531940E+03  0.00000000000E+00 0. -1.
        -24    2    1    2    0    0  0.57961665261E+02 -0.57689407260E+02 -0.18696194080E+03  0.22265699944E+03  0.89071598980E+02 0.  0.
         25    2    1    2    0    0 -0.68051353690E+02  0.74407989206E+02  0.29878932860E+03  0.33924885969E+03  0.12508872979E+03 0.  0.
         24    2    1    2    0    0  0.10089688430E+02 -0.16718581947E+02  0.41750370304E+03  0.42577587051E+03  0.81206139355E+02 0.  0.
        -11    1    5    5    0    0 -0.33554453113E+01  0.16586802656E+02  0.33926586239E+03  0.33968766009E+03  0.00000000000E+00 0.  1.
         12    1    5    5    0    0  0.13445133741E+02 -0.33305384602E+02  0.78237840645E+02  0.86088210422E+02  0.00000000000E+00 0. -1.
         13    1    3    3    0    0  0.44121302350E+01  0.24611261830E+01 -0.11361884144E+03  0.11373110905E+03  0.00000000000E+00 0. -1.
        -14    1    3    3    0    0  0.53549535026E+02 -0.60150533443E+02 -0.73343099355E+02  0.10892589039E+03  0.00000000000E+00 0.  1.
          5    1    4    4  501    0 -0.55952215568E+02  0.75746891810E+02  0.30884857317E+03  0.32291354198E+03  0.41800000000E+01 0.  1.
         -5    1    4    4    0  501 -0.12099138122E+02 -0.13389026034E+01 -0.10059244569E+02  0.16335317713E+02  0.41800000000E+01 0.  1.
</event>
<event>
11    1  0.1078607E-008  0.8787444E+03  0.7561462E-02  0.8803755E-01
         22   -1    0    0    0    0  0.00000000000E+00  0.00000000000E+00  0.37335987213E+03  0.37335987213E+03  0.00000000000E+00 0.  1.
         22   -1    0    0    0    0 -0.00000000000E+00 -0.00000000000E+00 -0.28523792107E+04  0.28523792107E+04  0.00000000000E+00 0.  1.
         24    2    1    2    0    0 -0.31457273673E+02  0.20729624316E+02 -0.18931358318E+03  0.20931407536E+03  0.80953517376E+02 0.  0.
         25    2    1    2    0    0  0.57163861295E+03  0.65975992026E+03 -0.18275539180E+04  0.20292004269E+04  0.12508874090E+03 0.  0.
        -24    2    1    2    0    0 -0.54018133928E+03 -0.68048954458E+03 -0.46215183742E+03  0.98722458061E+03  0.78524850508E+02 0.  0.
        -13    1    3    3    0    0  0.15151829983E+02 -0.95233008626E+01 -0.11573641093E+03  0.11711186117E+03  0.00000000000E+00 0.  1.
         14    1    3    3    0    0 -0.46609103656E+02  0.30252925179E+02 -0.73577172248E+02  0.92202214190E+02  0.00000000000E+00 0. -1.
         11    1    5    5    0    0 -0.17628339991E+03 -0.25886911550E+03 -0.13277477611E+03  0.34017377502E+03  0.00000000000E+00 0. -1.
        -12    1    5    5    0    0 -0.36389793937E+03 -0.42162042908E+03 -0.32937706131E+03  0.64705080559E+03  0.00000000000E+00 0.  1.
          5    1    4    4  501    0  0.93676691464E+02  0.57287690560E+02 -0.28802070958E+03  0.30827034169E+03  0.41800000000E+01 0.  1.
         -5    1    4    4    0  501  0.47796192149E+03  0.60247222970E+03 -0.15395332084E+04  0.17209300852E+04  0.41800000000E+01 0.  1.
</event>
<event>
11    1  0.1078607E-008  0.1958440E+03  0.7561462E-02  0.1057502E+00
         22   -1    0    0    0    0  0.00000000000E+00  0.00000000000E+00  0.46744696498E+03  0.46744696498E+03  0.00000000000E+00 0. -1.
         22   -1    0    0    0    0 -0.00000000000E+00 -0.00000000000E+00 -0.63599089364E+03  0.63599089364E+03  0.00000000000E+00 0.  1.
        -24    2    1    2    0    0  0.51472744291E+02 -0.13316332437E+03 -0.48695933468E+03  0.51406474439E+03  0.82166011419E+02 0.  0.
         25    2    1    2    0    0 -0.10677600179E+03  0.21722649818E+03  0.34998392241E+02  0.27470129692E+03  0.12508976377E+03 0.  0.
         24    2    1    2    0    0  0.55303257497E+02 -0.84063173808E+02  0.28341701378E+03  0.31467181730E+03  0.92563931553E+02 0.  0.
        -11    1    5    5    0    0 -0.37253973646E+01  0.11291886334E+02  0.24366772159E+01  0.12137655389E+02  0.00000000000E+00 0.  1.
         12    1    5    5    0    0  0.59028654862E+02 -0.95355060141E+02  0.28098033656E+03  0.30253416191E+03  0.00000000000E+00 0. -1.
         11    1    3    3    0    0  0.18249299868E+02 -0.17575369247E+02 -0.21766427051E+03  0.21913389790E+03  0.00000000000E+00 0. -1.
        -12    1    3    3    0    0  0.33223444423E+02 -0.11558795512E+03 -0.26929506417E+03  0.29493084649E+03  0.00000000000E+00 0.  1.
          5    1    4    4  501    0 -0.56632607262E+02  0.11146837663E+02 -0.74946113021E+01  0.58353627083E+02  0.41800000000E+01 0. -1.
         -5    1    4    4    0  501 -0.50143394526E+02  0.20607966052E+03  0.42493003544E+02  0.21634766984E+03  0.41800000000E+01 0. -1.
</event>
<event>
11    1  0.1078607E-008  0.1353780E+03  0.7561462E-02  0.1112832E+00
         22   -1    0    0    0    0  0.00000000000E+00  0.00000000000E+00  0.16534312229E+03  0.16534312229E+03  0.00000000000E+00 0. -1.
         22   -1    0    0    0    0 -0.00000000000E+00 -0.00000000000E+00 -0.10609815361E+04  0.10609815361E+04  0.00000000000E+00 0.  1.
        -24    2    1    2    0    0 -0.14085641413E+02  0.45609076137E+02 -0.68961989802E+03  0.69576734171E+03  0.78980990872E+02 0.  0.
         25    2    1    2    0    0  0.49735581037E+02 -0.80685816906E+02 -0.33556479252E+03  0.37045259455E+03  0.12509023048E+03 0.  0.
         24    2    1    2    0    0 -0.35649939625E+02  0.35076740769E+02  0.12954627675E+03  0.16010472210E+03  0.79686813710E+02 0.  0.
        -13    1    5    5    0    0 -0.44029974683E+01 -0.12728550895E+02 -0.46599724165E+01  0.14251938026E+02  0.00000000000E+00 0.  1.
         14    1    5    5    0    0 -0.31246942157E+02  0.47805291664E+02  0.13420624917E+03  0.14585278407E+03  0.00000000000E+00 0. -1.
         13    1    3    3    0    0 -0.20672869100E+00  0.65394453446E+02 -0.41925864870E+03  0.42432804737E+03  0.00000000000E+00 0. -1.
        -14    1    3    3    0    0 -0.13878912722E+02 -0.19785377309E+02 -0.27036124932E+03  0.27143929434E+03  0.00000000000E+00 0.  1.
          5    1    4    4  501    0  0.52692408507E+02 -0.66250293478E+02 -0.87148245610E+02  0.12156430567E+03  0.41800000000E+01 0. -1.
         -5    1    4    4    0  501 -0.29568274692E+01 -0.14435523428E+02 -0.24841654691E+03  0.24888828888E+03  0.41800000000E+01 0. -1.
</event>
<event>
11    1  0.1078607E-008  0.1389998E+03  0.7561462E-02  0.1108680E+00
         22   -1    0    0    0    0  0.00000000000E+00  0.00000000000E+00  0.42813992780E+03  0.42813992780E+03  0.00000000000E+00 0. -1.
         22   -1    0    0    0    0 -0.00000000000E+00 -0.00000000000E+00 -0.26507679665E+03  0.26507679665E+03  0.00000000000E+00 0.  1.
         24    2    1    2    0    0 -0.46727173585E+00  0.41826986938E+02 -0.19199662972E+03  0.21276832234E+03  0.81596188550E+02 0.  0.
         25    2    1    2    0    0 -0.27577792416E+02  0.17104947148E+02  0.21138761780E+02  0.13095746226E+03  0.12509954364E+03 0.  0.
        -24    2    1    2    0    0  0.28045064152E+02 -0.58931934086E+02  0.33392099909E+03  0.34949093986E+03  0.79882319247E+02 0.  0.
        -11    1    3    3    0    0 -0.18302092911E+01 -0.86015308326E+00 -0.15844162932E+03  0.15845453427E+03  0.00000000000E+00 0.  1.
         12    1    3    3    0    0  0.13629375552E+01  0.42687140021E+02 -0.33555000402E+02  0.54313788065E+02  0.00000000000E+00 0. -1.
         13    1    5    5    0    0  0.31485561666E+02 -0.70408532479E+02  0.32629960015E+03  0.33529111395E+03  0.00000000000E+00 0. -1.
        -14    1    5    5    0    0 -0.34404975141E+01  0.11476598393E+02  0.76213989457E+01  0.14199825904E+02  0.00000000000E+00 0.  1.
          5    1    4    4  501    0 -0.60895839340E+02  0.50725145035E+02  0.10598838433E+01  0.79372157219E+02  0.41800000000E+01 0. -1.
         -5    1    4    4    0  501  0.33318046924E+02 -0.33620197887E+02  0.20078877937E+02  0.51585305039E+02  0.41800000000E+01 0. -1.
</event>
<event>
11    1  0.1078607E-008  0.1707279E+03  0.7561462E-02  0.1077400E+00
         22   -1    0    0    0    0  0.00000000000E+00  0.00000000000E+00  0.29773280783E+04  0.29773280783E+04  0.00000000000E+00 0. -1.
         22   -1    0    0    0    0 -0.00000000000E+00 -0.00000000000E+00 -0.10961409407E+04  0.10961409407E+04  0.00000000000E+00 0. -1.
         24    2    1    2    0    0  0.29824240925E+02  0.25509388906E+02 -0.10030715102E+04  0.10070597725E+04  0.80478049622E+02 0.  0.
         25    2    1    2    0    0 -0.44063932513E+02 -0.14025982769E+03  0.14981225487E+02  0.19361413922E+03  0.12509016098E+03 0.  0.
        -24    2    1    2    0    0  0.14239691589E+02  0.11475043879E+03  0.28692774224E+04  0.28727951073E+04  0.82633948926E+02 0.  0.
        -13    1    3    3    0    0  0.11116582050E+02  0.30430014199E+02 -0.13723203281E+03  0.14100423749E+03  0.00000000000E+00 0.  1.
         14    1    3    3    0    0  0.18707658875E+02 -0.49206252926E+01 -0.86583947743E+03  0.86605553502E+03  0.00000000000E+00 0. -1.
         11    1    5    5    0    0  0.46308203152E+02  0.77120116571E+02  0.15673971980E+04  0.15699764133E+04  0.00000000000E+00 0. -1.
        -12    1    5    5    0    0 -0.32068511563E+02  0.37630322216E+02  0.13018802245E+04  0.13028186940E+04  0.00000000000E+00 0.  1.
          5    1    4    4  501    0  0.59159612001E+01  0.21609267112E+02 -0.38355747853E+01  0.23111535128E+02  0.41800000000E+01 0. -1.
         -5    1    4    4    0  501 -0.49979893713E+02 -0.16186909481E+03  0.18816800272E+02  0.17050260409E+03  0.41800000000E+01 0. -1.
</event>
<event>
11    1  0.1078607E-008  0.4453168E+03  0.7561462E-02  0.9524766E-01
         22   -1    0    0    0    0  0.00000000000E+00  0.00000000000E+00  0.41463986630E+03  0.41463986630E+03  0.00000000000E+00 0.  1.
         22   -1    0    0    0    0 -0.00000000000E+00 -0.00000000000E+00 -0.66191041529E+03  0.66191041529E+03  0.00000000000E+00 0.  1.
        -24    2    1    2    0    0 -0.41092776522E+03 -0.16898902771E+03 -0.95633597525E+02  0.46174840703E+03  0.81528441095E+02 0.  0.
         25    2    1    2    0    0  0.40199106122E+03  0.10920299906E+03 -0.22505600629E+03  0.48971484411E+03  0.12509322231E+03 0.  0.
         24    2    1    2    0    0  0.89367039950E+01  0.59786028653E+02  0.73419054828E+02  0.12508703044E+03  0.81253760978E+02 0.  0.
        -13    1    5    5    0    0 -0.92877979556E+01  0.50155291590E+02  0.23204949261E+01  0.51060759513E+02  0.00000000000E+00 0.  1.
         14    1    5    5    0    0  0.18224501951E+02  0.96307370627E+01  0.71098559902E+02  0.74026270930E+02  0.00000000000E+00 0. -1.
         11    1    3    3    0    0 -0.19542034889E+03 -0.91590685843E+02 -0.86719737881E+02  0.23259036832E+03  0.00000000000E+00 0. -1.
        -12    1    3    3    0    0 -0.21550741633E+03 -0.77398341867E+02 -0.89138596435E+01  0.22915803872E+03  0.00000000000E+00 0.  1.
          5    1    4    4  501    0  0.88426805939E+02  0.38805993781E+02  0.12014398053E+01  0.96664993765E+02  0.41800000000E+01 0. -1.
         -5    1    4    4    0  501  0.31356425529E+03  0.70397005275E+02 -0.22625744609E+03  0.39304985035E+03  0.41800000000E+01 0. -1.
</event>
<event>
11    1  0.1078607E-008  0.1802143E+03  0.7561462E-02  0.1069470E+00
         22   -1    0    0    0    0  0.00000000000E+00  0.00000000000E+00  0.20273341271E+04  0.20273341271E+04  0.00000000000E+00 0.  1.
         22   -1    0    0    0    0 -0.00000000000E+00 -0.00000000000E+00 -0.13925777585E+04  0.13925777585E+04  0.00000000000E+00 0. -1.
        -24    2    1    2    0    0  0.27211624819E+01 -0.43682486887E+02 -0.10400978359E+04  0.10440773350E+04  0.79864941295E+02 0.  0.
         25    2    1    2    0    0  0.71306341306E+02  0.14987464078E+03 -0.31649793124E+03  0.37863456230E+03  0.12508472739E+03 0.  0.
         24    2    1    2    0    0 -0.74027503788E+02 -0.10619215390E+03  0.19913521357E+04  0.19971999883E+04  0.81040854258E+02 0.  0.
        -11    1    5    5    0    0 -0.84720862707E+02 -0.10694804089E+03  0.19370892154E+04  0.19418882914E+04  0.00000000000E+00 0.  1.
         12    1    5    5    0    0  0.10693358920E+02  0.75588699223E+00  0.54262920329E+02  0.55311696889E+02  0.00000000000E+00 0. -1.
         11    1    3    3    0    0  0.17144774908E+02 -0.81030502705E+01 -0.84634760124E+03  0.84656001846E+03  0.00000000000E+00 0. -1.
        -12    1    3    3    0    0 -0.14423612426E+02 -0.35579436616E+02 -0.19375023462E+03  0.19751731651E+03  0.00000000000E+00 0.  1.
          5    1    4    4  501    0  0.10062043197E+03  0.13791367331E+03 -0.23026113067E+03  0.28667457738E+03  0.41800000000E+01 0. -1.
         -5    1    4    4    0  501 -0.29314090666E+02  0.11960967472E+02 -0.86236800570E+02  0.91959984922E+02  0.41800000000E+01 0. -1.
</event>
<event>
11    1  0.1078607E-008  0.1801937E+03  0.7561462E-02  0.1069486E+00
         22   -1    0    0    0    0  0.00000000000E+00  0.00000000000E+00  0.77676619778E+03  0.77676619778E+03  0.00000000000E+00 0. -1.
         22   -1    0    0    0    0 -0.00000000000E+00 -0.00000000000E+00 -0.93112469732E+03  0.93112469732E+03  0.00000000000E+00 0. -1.
         24    2    1    2    0    0  0.12035365982E+03  0.45933004028E+01 -0.77983871414E+03  0.79312765393E+03  0.79980957157E+02 0.  0.
         25    2    1    2    0    0  0.36976032681E+02 -0.39485035215E+02 -0.98759628834E+02  0.16830966162E+03  0.12509349667E+03 0.  0.
        -24    2    1    2    0    0 -0.15732969250E+03  0.34891734812E+02  0.72423984343E+03  0.74645357954E+03  0.81850658508E+02 0.  0.
        -13    1    3    3    0    0  0.87927892985E+02 -0.25700084201E+02 -0.38240661080E+03  0.39322592065E+03  0.00000000000E+00 0.  1.
         14    1    3    3    0    0  0.32425766838E+02  0.30293384604E+02 -0.39743210335E+03  0.39990173327E+03  0.00000000000E+00 0. -1.
         11    1    5    5    0    0 -0.90070529368E+02 -0.16155921567E+02  0.46130344925E+03  0.47029202242E+03  0.00000000000E+00 0. -1.
        -12    1    5    5    0    0 -0.67259163136E+02  0.51047656379E+02  0.26293639418E+03  0.27616155712E+03  0.00000000000E+00 0.  1.
          5    1    4    4  501    0  0.24562868658E+00  0.20730333691E+02  0.20651741724E+02  0.29559666855E+02  0.41800000000E+01 0.  1.
         -5    1    4    4    0  501  0.36730403994E+02 -0.60215368905E+02 -0.11941137056E+03  0.13874999477E+03  0.41800000000E+01 0.  1.
</event>
<event>
11    1  0.1078607E-008  0.1751973E+03  0.7561462E-02  0.1073595E+00
         22   -1    0    0    0    0  0.00000000000E+00  0.00000000000E+00  0.41727205999E+04  0.41727205999E+04  0.00000000000E+00 0.  1.
         22   -1    0    0    0    0 -0.00000000000E+00 -0.00000000000E+00 -0.22753229614E+04  0.22753229614E+04  0.00000000000E+00 0.  1.
         24    2    1    2    0    0 -0.38455684709E+02  0.33430951671E+01 -0.22672997066E+04  0.22693663655E+04  0.88801604601E+02 0.  0.
         25    2    1    2    0    0  0.66319472097E+02 -0.11848387357E+03  0.17381101431E+04  0.17478883882E+04  0.12510094885E+03 0.  0.
        -24    2    1    2    0    0 -0.27863787388E+02  0.11514077841E+03  0.24265872020E+04  0.24307888076E+04  0.79843528689E+02 0.  0.
        -11    1    3    3    0    0 -0.57539891477E+02  0.67751650344E+01 -0.21205287912E+04  0.21213201306E+04  0.00000000000E+00 0.  1.
         12    1    3    3    0    0  0.19084206768E+02 -0.34320698674E+01 -0.14677091539E+03  0.14804623486E+03  0.00000000000E+00 0. -1.
         11    1    5    5    0    0 -0.41442222563E+02  0.32770661159E+02  0.60975135567E+03  0.61203602000E+03  0.00000000000E+00 0. -1.
        -12    1    5    5    0    0  0.13578435175E+02  0.82370117248E+02  0.18168358463E+04  0.18187527876E+04  0.00000000000E+00 0.  1.
          5    1    4    4  501    0  0.43979569336E+02 -0.12661559960E+03  0.95101525926E+03  0.96042345262E+03  0.41800000000E+01 0. -1.
         -5    1    4    4    0  501  0.22339902761E+02  0.81317260261E+01  0.78709488386E+03  0.78746493562E+03  0.41800000000E+01 0. -1.
</event>
<event>
11    1  0.1078607E-008  0.1437420E+03  0.7561462E-02  0.1103450E+00
         22   -1    0    0    0    0  0.00000000000E+00  0.00000000000E+00  0.78144313051E+03  0.78144313051E+03  0.00000000000E+00 0. -1.
         22   -1    0    0    0    0 -0.00000000000E+00 -0.00000000000E+00 -0.27919112492E+03  0.27919112492E+03  0.00000000000E+00 0. -1.
        -24    2    1    2    0    0 -0.19140413159E+01 -0.62609511828E+02 -0.15648944294E+03  0.18700127146E+03  0.80974781586E+02 0.  0.
         25    2    1    2    0    0 -0.17296269974E+02  0.10563930976E+03 -0.39328667412E+02  0.16927135909E+03  0.12508886524E+03 0.  0.
         24    2    1    2    0    0  0.19210311290E+02 -0.43029797932E+02  0.69807011594E+03  0.70436162487E+03  0.81257690459E+02 0.  0.
        -11    1    5    5    0    0 -0.28879386509E+02 -0.31415394248E+00  0.17777377020E+03  0.18010450030E+03  0.00000000000E+00 0.  1.
         12    1    5    5    0    0  0.48089697799E+02 -0.42715643990E+02  0.52029634574E+03  0.52425712458E+03  0.00000000000E+00 0. -1.
         13    1    3    3    0    0  0.34572697670E+02 -0.47904079559E+02 -0.11801442209E+03  0.13197528588E+03  0.00000000000E+00 0. -1.
        -14    1    3    3    0    0 -0.36486738986E+02 -0.14705432269E+02 -0.38475020850E+02  0.55025985584E+02  0.00000000000E+00 0.  1.
          5    1    4    4  501    0  0.32117005244E+02  0.91884781643E+02  0.10060411712E+02  0.97943858446E+02  0.41800000000E+01 0.  1.
         -5    1    4    4    0  501 -0.49413275218E+02  0.13754528117E+02 -0.49389079124E+02  0.71327500645E+02  0.41800000000E+01 0.  1.
</event>
<event>
11    1  0.1078607E-008  0.1441688E+03  0.7561462E-02  0.1102991E+00
         22   -1    0    0    0    0  0.00000000000E+00  0.00000000000E+00  0.22391822762E+03  0.22391822762E+03  0.00000000000E+00 0.  1.
         22   -1    0    0    0    0 -0.00000000000E+00 -0.00000000000E+00 -0.12729728583E+04  0.12729728583E+04  0.00000000000E+00 0.  1.
        -24    2    1    2    0    0 -0.45399647999E+02 -0.55119361559E+02 -0.11320289979E+04  0.11371886687E+04  0.81296642655E+02 0.  0.
         25    2    1    2    0    0  0.80195512952E+01  0.91408192499E+02 -0.77365126923E+02  0.17335662962E+03  0.12508951719E+03 0.  0.
         24    2    1    2    0    0  0.37380096704E+02 -0.36288830940E+02  0.16033949409E+03  0.18634578764E+03  0.79384181841E+02 0.  0.
        -13    1    5    5    0    0  0.29618692012E+01  0.11297815866E+02  0.10501279205E+03  0.10566030384E+03  0.00000000000E+00 0.  1.
         14    1    5    5    0    0  0.34418227502E+02 -0.47586646805E+02  0.55326702041E+02  0.80685483808E+02  0.00000000000E+00 0. -1.
         11    1    3    3    0    0 -0.43327978597E+02  0.32669897106E+01 -0.30247895200E+03  0.30558387286E+03  0.00000000000E+00 0. -1.
        -12    1    3    3    0    0 -0.20716694022E+01 -0.58386351270E+02 -0.82955004587E+03  0.83160479582E+03  0.00000000000E+00 0.  1.
          5    1    4    4  501    0  0.32774160040E+02  0.95374554687E+02 -0.97950697059E+02  0.14064943193E+03  0.41800000000E+01 0. -1.
         -5    1    4    4    0  501 -0.24754608745E+02 -0.39663621885E+01  0.20585570135E+02  0.32707197693E+02  0.41800000000E+01 0. -1.
</event>
<event>
11    1  0.1078607E-008  0.1456505E+03  0.7561462E-02  0.1101408E+00
         22   -1    0    0    0    0  0.00000000000E+00  0.00000000000E+00  0.12310294563E+03  0.12310294563E+03  0.00000000000E+00 0. -1.
         22   -1    0    0    0    0 -0.00000000000E+00 -0.00000000000E+00 -0.83782814911E+03  0.83782814911E+03  0.00000000000E+00 0.  1.
         24    2    1    2    0    0 -0.14023045245E+02  0.76263908553E+02 -0.50806320367E+03  0.52024535568E+03  0.80710480360E+02 0.  0.
         25    2    1    2    0    0  0.62274064539E+02 -0.50777963767E+02 -0.28039183318E+03  0.31736789439E+03  0.12508532912E+03 0.  0.
        -24    2    1    2    0    0 -0.48251019294E+02 -0.25485944786E+02  0.73729833359E+02  0.12331784466E+03  0.82422741042E+02 0.  0.
        -11    1    3    3    0    0  0.23779842232E+02  0.63356958851E+02 -0.24531193961E+03  0.25447501419E+03  0.00000000000E+00 0.  1.
         12    1    3    3    0    0 -0.37802887477E+02  0.12906949702E+02 -0.26275126406E+03  0.26577034149E+03  0.00000000000E+00 0. -1.
         11    1    5    5    0    0 -0.72842756631E+01  0.10818380686E+02  0.66894988754E+02  0.68154512345E+02  0.00000000000E+00 0. -1.
        -12    1    5    5    0    0 -0.40966743631E+02 -0.36304325472E+02  0.68348446049E+01  0.55163332319E+02  0.00000000000E+00 0.  1.
          5    1    4    4  501    0  0.42368619069E+02 -0.17387352109E+02 -0.13927790145E+02  0.48050761009E+02  0.41800000000E+01 0.  1.
         -5    1    4    4    0  501  0.19905445470E+02 -0.33390611657E+02 -0.26646404303E+03  0.26931713338E+03  0.41800000000E+01 0.  1.
</event>
<event>
11    1  0.1336236E-008  0.2205696E+03  0.7561462E-02  0.1040861E+00
         22   -1    0    0    0    0  0.00000000000E+00  0.00000000000E+00  0.72985938475E+03  0.72985938475E+03  0.00000000000E+00 0. -1.
         22   -1    0    0    0    0 -0.00000000000E+00 -0.00000000000E+00 -0.71857142594E+03  0.71857142594E+03  0.00000000000E+00 0.  1.
        -24    2    1    2    0    0 -0.32569537130E+02  0.17537974716E+03 -0.55381220621E+03  0.58729386550E+03  0.79920549565E+02 0.  0.
         25    2    1    2    0    0 -0.57267585203E+02 -0.21523229619E+03 -0.26140175330E+02  0.25677719461E+03  0.12508677495E+03 0.  0.
         24    2    1    2    0    0  0.89837122333E+02  0.39852549035E+02  0.59124034035E+03  0.60435975058E+03  0.77631397272E+02 0.  0.
        -13    1    5    5    0    0 -0.59554438397E+01  0.25401541544E+02  0.17887359162E+03  0.18076633371E+03  0.00000000000E+00 0.  1.
         14    1    5    5    0    0  0.95792566172E+02  0.14451007491E+02  0.41236674873E+03  0.42359341687E+03  0.00000000000E+00 0. -1.
         11    1    3    3    0    0 -0.56646240972E+01  0.23727478052E+02 -0.19513692272E+02  0.31238843880E+02  0.00000000000E+00 0. -1.
        -12    1    3    3    0    0 -0.26904913033E+02  0.15165226910E+03 -0.53429851394E+03  0.55605502162E+03  0.00000000000E+00 0.  1.
          5    1    4    4  501    0 -0.26165437270E+02 -0.37426658451E+02 -0.57472333424E+02  0.73525005131E+02  0.41800000000E+01 0.  1.
         -5    1    4    4    0  501 -0.31102147933E+02 -0.17780563774E+03  0.31332158094E+02  0.18325218948E+03  0.41800000000E+01 0.  1.
</event>
<event>
11    1  0.1078607E-008  0.1460865E+03  0.7561462E-02  0.1100946E+00
         22   -1    0    0    0    0  0.00000000000E+00  0.00000000000E+00  0.12494025573E+04  0.12494025573E+04  0.00000000000E+00 0.  1.
         22   -1    0    0    0    0 -0.00000000000E+00 -0.00000000000E+00 -0.10120333304E+04  0.10120333304E+04  0.00000000000E+00 0. -1.
         24    2    1    2    0    0  0.32198803358E+02  0.32187426925E+02 -0.66044618555E+03  0.66697818713E+03  0.81227733594E+02 0.  0.
         25    2    1    2    0    0  0.42226504914E+02 -0.18233641149E+02 -0.33300457535E+03  0.35868563299E+03  0.12509113767E+03 0.  0.
        -24    2    1    2    0    0 -0.74425308272E+02 -0.13953785776E+02  0.12308199879E+04  0.12357720676E+04  0.80504197058E+02 0.  0.
        -13    1    3    3    0    0 -0.17732127258E+02  0.20818724494E+01 -0.40062831311E+02  0.43861064541E+02  0.00000000000E+00 0.  1.
         14    1    3    3    0    0  0.49930930616E+02  0.30105554475E+02 -0.62038335424E+03  0.62311712259E+03  0.00000000000E+00 0. -1.
         13    1    5    5    0    0 -0.58703164842E+02 -0.88280563437E+01  0.36513373342E+03  0.36992788408E+03  0.00000000000E+00 0. -1.
        -14    1    5    5    0    0 -0.15722143429E+02 -0.51257294320E+01  0.86568625446E+03  0.86584418348E+03  0.00000000000E+00 0.  1.
          5    1    4    4  501    0  0.73757285214E+02 -0.46794699552E+02 -0.18493114022E+03  0.20456509979E+03  0.41800000000E+01 0.  1.
         -5    1    4    4    0  501 -0.31530780300E+02  0.28561058403E+02 -0.14807343513E+03  0.15412053320E+03  0.41800000000E+01 0.  1.
</event>
<event>
11    1  0.1078607E-008  0.1261564E+03  0.7561462E-02  0.1124084E+00
         22   -1    0    0    0    0  0.00000000000E+00  0.00000000000E+00  0.16772570676E+03  0.16772570676E+03  0.00000000000E+00 0.  1.
         22   -1    0    0    0    0 -0.00000000000E+00 -0.00000000000E+00 -0.25931534198E+03  0.25931534198E+03  0.00000000000E+00 0. -1.
         24    2    1    2    0    0  0.31406003430E+01  0.14374779228E+02 -0.13814087847E+03  0.15958057483E+03  0.78527446861E+02 0.  0.
         25    2    1    2    0    0 -0.83408869089E+01 -0.27926354879E+02 -0.53571040088E+02  0.13916420186E+03  0.12508943622E+03 0.  0.
        -24    2    1    2    0    0  0.52002865659E+01  0.13551575651E+02  0.10012228333E+03  0.12829627205E+03  0.78897234548E+02 0.  0.
        -11    1    3    3    0    0 -0.27775997742E+02  0.33287582242E+02 -0.68344786836E+02  0.80935647707E+02  0.00000000000E+00 0.  1.
         12    1    3    3    0    0  0.30916598085E+02 -0.18912803013E+02 -0.69796091632E+02  0.78644927123E+02  0.00000000000E+00 0. -1.
         11    1    5    5    0    0  0.40584537689E+02  0.18367780999E+01  0.36783638329E+02  0.54804329226E+02  0.00000000000E+00 0. -1.
        -12    1    5    5    0    0 -0.35384251123E+02  0.11714797551E+02  0.63338645001E+02  0.73491942822E+02  0.00000000000E+00 0.  1.
          5    1    4    4  501    0 -0.42252252593E+01  0.21459149087E+02  0.32713856262E+02  0.39572925082E+02  0.41800000000E+01 0. -1.
         -5    1    4    4    0  501 -0.41156616496E+01 -0.49385503966E+02 -0.86284896350E+02  0.99591276781E+02  0.41800000000E+01 0. -1.
</event>
<event>
11    1  0.1078607E-008  0.2701939E+03  0.7561462E-02  0.1013660E+00
         22   -1    0    0    0    0  0.00000000000E+00  0.00000000000E+00  0.30633364119E+03  0.30633364119E+03  0.00000000000E+00 0. -1.
         22   -1    0    0    0    0 -0.00000000000E+00 -0.00000000000E+00 -0.82022367139E+03  0.82022367139E+03  0.00000000000E+00 0.  1.
         24    2    1    2    0    0  0.69652349691E+02  0.21053180257E+03 -0.48430275038E+03  0.53870843475E+03  0.80514184636E+02 0.  0.
         25    2    1    2    0    0 -0.86395969645E+02 -0.28482716289E+03 -0.20349201890E+03  0.38163800733E+03  0.12509112914E+03 0.  0.
        -24    2    1    2    0    0  0.16743619954E+02  0.74295360316E+02  0.17390473908E+03  0.20621087050E+03  0.80497922109E+02 0.  0.
        -11    1    3    3    0    0  0.41254587101E+02  0.18003269740E+03 -0.44333583422E+03  0.48027114736E+03  0.00000000000E+00 0.  1.
         12    1    3    3    0    0  0.28397762590E+02  0.30499105177E+02 -0.40966916165E+02  0.58437287384E+02  0.00000000000E+00 0. -1.
         13    1    5    5    0    0  0.19539904592E+02  0.90708700024E+02  0.15772379419E+03  0.18299363755E+03  0.00000000000E+00 0. -1.
        -14    1    5    5    0    0 -0.27962846382E+01 -0.16413339708E+02  0.16180944894E+02  0.23217232948E+02  0.00000000000E+00 0.  1.
          5    1    4    4  501    0 -0.79511667674E+02 -0.13997066312E+03 -0.45926881349E+02  0.16745340445E+03  0.41800000000E+01 0. -1.
         -5    1    4    4    0  501 -0.68843019707E+01 -0.14485649977E+03 -0.15756513755E+03  0.21418460288E+03  0.41800000000E+01 0. -1.
</event>
<event>
11    1  0.1078607E-008  0.1616242E+03  0.7561462E-02  0.1085560E+00
         22   -1    0    0    0    0  0.00000000000E+00  0.00000000000E+00  0.36706944059E+03  0.36706944059E+03  0.00000000000E+00 0.  1.
         22   -1    0    0    0    0 -0.00000000000E+00 -0.00000000000E+00 -0.48273900197E+03  0.48273900197E+03  0.00000000000E+00 0.  1.
        -24    2    1    2    0    0  0.13994050080E+02 -0.79123748947E+02 -0.33073168998E+03  0.34904007332E+03  0.77389411022E+02 0.  0.
         25    2    1    2    0    0  0.89706573020E+02  0.74506742886E+02 -0.71550367835E+02  0.18537976182E+03  0.12509067502E+03 0.  0.
         24    2    1    2    0    0 -0.10370062310E+03  0.46170060608E+01  0.28661249644E+03  0.31538860741E+03  0.80920421387E+02 0.  0.
        -11    1    5    5    0    0 -0.90936809799E+02 -0.14822208251E+02  0.27369358821E+03  0.28878604790E+03  0.00000000000E+00 0.  1.
         12    1    5    5    0    0 -0.12763813301E+02  0.19439214311E+02  0.12918908225E+02  0.26602559515E+02  0.00000000000E+00 0. -1.
         13    1    3    3    0    0  0.28747447550E+02 -0.43808878818E+02 -0.81528676614E+02  0.96915214050E+02  0.00000000000E+00 0. -1.
        -14    1    3    3    0    0 -0.14753397470E+02 -0.35314870129E+02 -0.24920301337E+03  0.25212485927E+03  0.00000000000E+00 0.  1.
          5    1    4    4  501    0 -0.22256872808E+02  0.26649624250E+02  0.12750257679E+02  0.37223814027E+02  0.41800000000E+01 0. -1.
         -5    1    4    4    0  501  0.11196344583E+03  0.47857118636E+02 -0.84300625514E+02  0.14815594780E+03  0.41800000000E+01 0. -1.
</event>
<event>
11    1  0.1078607E-008  0.1840830E+03  0.7561462E-02  0.1066387E+00
         22   -1    0    0    0    0  0.00000000000E+00  0.00000000000E+00  0.20385531430E+04  0.20385531430E+04  0.00000000000E+00 0. -1.
         22   -1    0    0    0    0 -0.00000000000E+00 -0.00000000000E+00 -0.23003536562E+03  0.23003536562E+03  0.00000000000E+00 0. -1.
         24    2    1    2    0    0 -0.36223485931E+02 -0.11794719985E+03 -0.85471864847E+02  0.16987577136E+03  0.79552844901E+02 0.  0.
         25    2    1    2    0    0  0.13239894436E+03  0.20525990528E+02 -0.14254891165E+02  0.18385202112E+03  0.12509023541E+03 0.  0.
        -24    2    1    2    0    0 -0.96175458429E+02  0.97421209318E+02  0.19082445334E+04  0.19148607161E+04  0.80955247556E+02 0.  0.
        -11    1    3    3    0    0 -0.23230325476E+02 -0.74566599012E+02 -0.59043901878E+01  0.78324246140E+02  0.00000000000E+00 0.  1.
         12    1    3    3    0    0 -0.12993160455E+02 -0.43380600834E+02 -0.79567474659E+02  0.91551525225E+02  0.00000000000E+00 0. -1.
         13    1    5    5    0    0 -0.93040052814E+02  0.54834699621E+02  0.16043414044E+04  0.16079722129E+04  0.00000000000E+00 0. -1.
        -14    1    5    5    0    0 -0.31354056148E+01  0.42586509696E+02  0.30390312898E+03  0.30688850318E+03  0.00000000000E+00 0.  1.
          5    1    4    4  501    0  0.46806174910E+02  0.22527548188E+02  0.53427513463E+02  0.74634308679E+02  0.41800000000E+01 0. -1.
         -5    1    4    4    0  501  0.85592769450E+02 -0.20015576591E+01 -0.67682404628E+02  0.10921771244E+03  0.41800000000E+01 0. -1.
</event>
<event>
11    1  0.1078607E-008  0.3906885E+03  0.7561462E-02  0.9677639E-01
         22   -1    0    0    0    0  0.00000000000E+00  0.00000000000E+00  0.68246438870E+03  0.68246438870E+03  0.00000000000E+00 0.  1.
         22   -1    0    0    0    0 -0.00000000000E+00 -0.00000000000E+00 -0.96203394862E+03  0.96203394862E+03  0.00000000000E+00 0. -1.
        -24    2    1    2    0    0 -0.13760926192E+03  0.87227629014E+00 -0.27872634894E+03  0.32139764466E+03  0.81676181159E+02 0.  0.
         25    2    1    2    0    0 -0.11751483470E+03 -0.28042306486E+03 -0.55623344042E+03  0.64613186912E+03  0.12507565860E+03 0.  0.
         24    2    1    2    0    0  0.25512409662E+03  0.27955078857E+03  0.55539022943E+03  0.67696882353E+03  0.81188256664E+02 0.  0.
        -13    1    5    5    0    0  0.13176941213E+03  0.13705129404E+03  0.20838422309E+03  0.28208193774E+03  0.00000000000E+00 0.  1.
         14    1    5    5    0    0  0.12335468450E+03  0.14249949453E+03  0.34700600635E+03  0.39488688579E+03  0.00000000000E+00 0. -1.
         13    1    3    3    0    0 -0.14184387849E+03 -0.15673773923E+02 -0.24317287955E+03  0.28195461054E+03  0.00000000000E+00 0. -1.
        -14    1    3    3    0    0  0.42346165740E+01  0.16546050214E+02 -0.35553469394E+02  0.39443034127E+02  0.00000000000E+00 0.  1.
          5    1    4    4  501    0 -0.74301483890E+02 -0.24731320194E+03 -0.36414463611E+03  0.44643400271E+03  0.41800000000E+01 0.  1.
         -5    1    4    4    0  501 -0.43213350812E+02 -0.33109862916E+02 -0.19208880430E+03  0.19969786641E+03  0.41800000000E+01 0.  1.
</event>
<event>
11    1  0.1078607E-008  0.1878233E+03  0.7561462E-02  0.1063485E+00
         22   -1    0    0    0    0  0.00000000000E+00  0.00000000000E+00  0.45270656309E+03  0.45270656309E+03  0.00000000000E+00 0.  1.
         22   -1    0    0    0    0 -0.00000000000E+00 -0.00000000000E+00 -0.21345714580E+04  0.21345714580E+04  0.00000000000E+00 0. -1.
         24    2    1    2    0    0  0.96782035555E+02  0.95737695513E+02 -0.18223584799E+04  0.18291528276E+04  0.79228585694E+02 0.  0.
         25    2    1    2    0    0 -0.75437089696E+02 -0.21564167823E+03 -0.23788870134E+03  0.35274702886E+03  0.12508934507E+03 0.  0.
        -24    2    1    2    0    0 -0.21344945859E+02  0.11990398272E+03  0.37838228635E+03  0.40537816460E+03  0.79534457477E+02 0.  0.
        -13    1    3    3    0    0  0.47721065845E+02  0.17654871567E+02 -0.32515354401E+03  0.32911065282E+03  0.00000000000E+00 0.  1.
         14    1    3    3    0    0  0.49060969710E+02  0.78082823945E+02 -0.14972049359E+04  0.15000421748E+04  0.00000000000E+00 0. -1.
         11    1    5    5    0    0 -0.17811841751E+02  0.19644234519E+02  0.19985341608E+02  0.33204992631E+02  0.00000000000E+00 0. -1.
        -12    1    5    5    0    0 -0.35331041076E+01  0.10025974820E+03  0.35839694474E+03  0.37217317197E+03  0.00000000000E+00 0.  1.
          5    1    4    4  501    0 -0.90599508430E+02 -0.90567523156E+02 -0.15822486802E+03  0.20362546117E+03  0.41800000000E+01 0. -1.
         -5    1    4    4    0  501  0.15162418734E+02 -0.12507415507E+03 -0.79663833323E+02  0.14912156768E+03  0.41800000000E+01 0. -1.
</event>
<event>
11    1  0.1078607E-008  0.1754164E+03  0.7561462E-02  0.1073412E+00
         22   -1    0    0    0    0  0.00000000000E+00  0.00000000000E+00  0.17953375344E+03  0.17953375344E+03  0.00000000000E+00 0.  1.
         22   -1    0    0    0    0 -0.00000000000E+00 -0.00000000000E+00 -0.46409231120E+03  0.46409231120E+03  0.00000000000E+00 0. -1.
        -24    2    1    2    0    0  0.10849247192E+03  0.76082872486E+01 -0.23537641870E+03  0.27198471395E+03  0.82128701722E+02 0.  0.
         25    2    1    2    0    0 -0.16795837320E+03 -0.45828749263E+02 -0.11980828265E+03  0.24558660546E+03  0.12509383199E+03 0.  0.
         24    2    1    2    0    0  0.59465901280E+02  0.38220462015E+02  0.70626143595E+02  0.12605474523E+03  0.76842367900E+02 0.  0.
        -11    1    5    5    0    0  0.32844627266E+02  0.44027051147E+02  0.80171949219E+02  0.97183806339E+02  0.00000000000E+00 0.  1.
         12    1    5    5    0    0  0.26621274014E+02 -0.58065891323E+01 -0.95458056243E+01  0.28870938892E+02  0.00000000000E+00 0. -1.
         11    1    3    3    0    0  0.11734385000E+03  0.57262832682E+01 -0.23522765235E+03  0.26293424632E+03  0.00000000000E+00 0. -1.
        -12    1    3    3    0    0 -0.88513780871E+01  0.18820039804E+01 -0.14876634606E+00  0.90504676370E+01  0.00000000000E+00 0.  1.
          5    1    4    4  501    0 -0.16744037319E+03 -0.75979250263E+02 -0.10172097533E+03  0.21017553204E+03  0.41800000000E+01 0.  1.
         -5    1    4    4    0  501 -0.51800000112E+00  0.30150500999E+02 -0.18087307325E+02  0.35411073420E+02  0.41800000000E+01 0.  1.
</event>
<event>
11    1  0.1078607E-008  0.1458896E+03  0.7561462E-02  0.1101154E+00
         22   -1    0    0    0    0  0.00000000000E+00  0.00000000000E+00  0.33003241694E+03  0.33003241694E+03  0.00000000000E+00 0. -1.
         22   -1    0    0    0    0 -0.00000000000E+00 -0.00000000000E+00 -0.11853952579E+04  0.11853952579E+04  0.00000000000E+00 0. -1.
         24    2    1    2    0    0  0.42424615248E+02  0.53496824348E+02 -0.82499903826E+03  0.83162716915E+03  0.79489478174E+02 0.  0.
         25    2    1    2    0    0 -0.96400638882E+02 -0.10288622328E+03 -0.32139029401E+03  0.37258401478E+03  0.12509384026E+03 0.  0.
        -24    2    1    2    0    0  0.53976023634E+02  0.49389398933E+02  0.29102649128E+03  0.31121649095E+03  0.82501889423E+02 0.  0.
        -11    1    3    3    0    0 -0.38786328065E+01  0.19224760446E+02 -0.40324246850E+02  0.44840607608E+02  0.00000000000E+00 0.  1.
         12    1    3    3    0    0  0.46303248054E+02  0.34272063902E+02 -0.78467479141E+03  0.78678656154E+03  0.00000000000E+00 0. -1.
         13    1    5    5    0    0  0.51783386154E+02  0.21375501139E+02  0.27095195590E+03  0.27668283925E+03  0.00000000000E+00 0. -1.
        -14    1    5    5    0    0  0.21926374802E+01  0.28013897794E+02  0.20074535374E+02  0.34533651693E+02  0.00000000000E+00 0.  1.
          5    1    4    4  501    0 -0.18772944732E+01 -0.46930565044E+02 -0.19006554614E+02  0.50840177893E+02  0.41800000000E+01 0. -1.
         -5    1    4    4    0  501 -0.94523344408E+02 -0.55955658237E+02 -0.30238373939E+03  0.32174383689E+03  0.41800000000E+01 0. -1.
</event>
<event>
11    1  0.1078607E-008  0.1274805E+03  0.7561462E-02  0.1122404E+00
         22   -1    0    0    0    0  0.00000000000E+00  0.00000000000E+00  0.23905394460E+03  0.23905394460E+03  0.00000000000E+00 0.  1.
         22   -1    0    0    0    0 -0.00000000000E+00 -0.00000000000E+00 -0.85488539880E+03  0.85488539880E+03  0.00000000000E+00 0.  1.
         24    2    1    2    0    0  0.31789240354E+02 -0.80236155917E+01 -0.62596318247E+03  0.63628518690E+03  0.10933434530E+03 0.  0.
         25    2    1    2    0    0  0.32481946339E+01 -0.63909131369E+01 -0.19598261100E+03  0.23261153347E+03  0.12509015609E+03 0.  0.
        -24    2    1    2    0    0 -0.35037434988E+02  0.14414528729E+02  0.20611433927E+03  0.22504262302E+03  0.82010126416E+02 0.  0.
        -13    1    3    3    0    0  0.47324856935E+02 -0.44127241766E+02 -0.24868296427E+03  0.25696317298E+03  0.00000000000E+00 0.  1.
         14    1    3    3    0    0 -0.15535616581E+02  0.36103626174E+02 -0.37728021820E+03  0.37932201393E+03  0.00000000000E+00 0. -1.
         13    1    5    5    0    0  0.11901674443E+02 -0.19137063102E+02  0.19798768281E+02  0.29997804323E+02  0.00000000000E+00 0. -1.
        -14    1    5    5    0    0 -0.46939109431E+02  0.33551591830E+02  0.18631557099E+03  0.19504481870E+03  0.00000000000E+00 0.  1.
          5    1    4    4  501    0 -0.32423317600E+02 -0.18751639019E+02 -0.51528789493E+01  0.38038402327E+02  0.41800000000E+01 0. -1.
         -5    1    4    4    0  501  0.35671512234E+02  0.12360725882E+02 -0.19082973205E+03  0.19457313115E+03  0.41800000000E+01 0. -1.
</event>
<event>
11    1  0.1078607E-008  0.1599457E+03  0.7561462E-02  0.1087128E+00
         22   -1    0    0    0    0  0.00000000000E+00  0.00000000000E+00  0.14362760652E+04  0.14362760652E+04  0.00000000000E+00 0.  1.
         22   -1    0    0    0    0 -0.00000000000E+00 -0.00000000000E+00 -0.87428549352E+03  0.87428549352E+03  0.00000000000E+00 0. -1.
        -24    2    1    2    0    0  0.48325660841E+02 -0.58655851004E+02 -0.65420899839E+03  0.66334927334E+03  0.79164174423E+02 0.  0.
         25    2    1    2    0    0 -0.12010452194E+03  0.12632204132E+03 -0.15842617921E+03  0.26669956027E+03  0.12508975528E+03 0.  0.
         24    2    1    2    0    0  0.71778861098E+02 -0.67666190312E+02  0.13746257493E+04  0.13805127252E+04  0.80551321576E+02 0.  0.
        -11    1    5    5    0    0  0.57859962806E+02 -0.18764473378E+00  0.69447498996E+03  0.69688113921E+03  0.00000000000E+00 0.  1.
         12    1    5    5    0    0  0.13918898292E+02 -0.67478545579E+02  0.68015075936E+03  0.68363158595E+03  0.00000000000E+00 0. -1.
         13    1    3    3    0    0  0.40834639719E+01 -0.20565236453E+02 -0.46186404076E+03  0.46233969738E+03  0.00000000000E+00 0. -1.
        -14    1    3    3    0    0  0.44242196869E+02 -0.38090614551E+02 -0.19234495763E+03  0.20100957596E+03  0.00000000000E+00 0.  1.
          5    1    4    4  501    0 -0.44999773073E+02  0.27668286300E+01  0.82326702800E+01  0.46020475630E+02  0.41800000000E+01 0.  1.
         -5    1    4    4    0  501 -0.75104748866E+02  0.12355521269E+03 -0.16665884949E+03  0.22067908464E+03  0.41800000000E+01 0.  1.
</event>
<event>
11    1  0.1078607E-008  0.1420551E+03  0.7561462E-02  0.1105285E+00
         22   -1    0    0    0    0  0.00000000000E+00  0.00000000000E+00  0.42080164927E+03  0.42080164927E+03  0.00000000000E+00 0. -1.
         22   -1    0    0    0    0 -0.00000000000E+00 -0.00000000000E+00 -0.39716510324E+03  0.39716510324E+03  0.00000000000E+00 0.  1.
        -24    2    1    2    0    0 -0.11936695230E+02  0.21791596781E+02 -0.33045200623E+03  0.34069300229E+03  0.79093836701E+02 0.  0.
         25    2    1    2    0    0  0.71199991866E+01  0.48758437139E+02  0.34165900432E+02  0.13871871081E+03  0.12508993723E+03 0.  0.
         24    2    1    2    0    0  0.48166960434E+01 -0.70550033921E+02  0.31992265183E+03  0.33855503941E+03  0.85255520101E+02 0.  0.
        -11    1    5    5    0    0  0.50184231269E+00 -0.25372358428E+02  0.13413346244E+02  0.28704116000E+02  0.00000000000E+00 0.  1.
         12    1    5    5    0    0  0.43148537307E+01 -0.45177675493E+02  0.30650930558E+03  0.30985092340E+03  0.00000000000E+00 0. -1.
         11    1    3    3    0    0 -0.34932564528E+02  0.29537513837E+00 -0.68866132336E+02  0.77219916433E+02  0.00000000000E+00 0. -1.
        -12    1    3    3    0    0  0.22995869298E+02  0.21496221643E+02 -0.26158587390E+03  0.26347308586E+03  0.00000000000E+00 0.  1.
          5    1    4    4  501    0 -0.29437232507E+01 -0.16650015969E+02 -0.37337883839E+02  0.41200467326E+02  0.41800000000E+01 0.  1.
         -5    1    4    4    0  501  0.10063722437E+02  0.65408453108E+02  0.71503784270E+02  0.97518243485E+02  0.41800000000E+01 0.  1.
</event>
<event>
11    1  0.1078607E-008  0.1706663E+03  0.7561462E-02  0.1077453E+00
         22   -1    0    0    0    0  0.00000000000E+00  0.00000000000E+00  0.39573124511E+03  0.39573124511E+03  0.00000000000E+00 0.  1.
         22   -1    0    0    0    0 -0.00000000000E+00 -0.00000000000E+00 -0.25958863058E+04  0.25958863058E+04  0.00000000000E+00 0.  1.
         24    2    1    2    0    0  0.60732514385E+02 -0.16368676748E+02 -0.13857925871E+04  0.13896108269E+04  0.81491004287E+02 0.  0.
         25    2    1    2    0    0  0.26256347909E+02  0.93827366118E+02 -0.11899806715E+04  0.12004968271E+04  0.12508262375E+03 0.  0.
        -24    2    1    2    0    0 -0.86988862294E+02 -0.77458689370E+02  0.37561819789E+03  0.40150989703E+03  0.80958360277E+02 0.  0.
        -13    1    3    3    0    0  0.25244671327E+02 -0.35321834011E+01 -0.11866668523E+04  0.11869406001E+04  0.00000000000E+00 0.  1.
         14    1    3    3    0    0  0.35487843058E+02 -0.12836493347E+02 -0.19912573479E+03  0.20267022677E+03  0.00000000000E+00 0. -1.
         13    1    5    5    0    0 -0.68108126928E+02 -0.10077110717E+02  0.14512693363E+03  0.16063029596E+03  0.00000000000E+00 0. -1.
        -14    1    5    5    0    0 -0.18880735366E+02 -0.67381578653E+02  0.23049126426E+03  0.24087960107E+03  0.00000000000E+00 0.  1.
          5    1    4    4  501    0  0.27426540576E+02  0.73222153773E+01 -0.53399588174E+02  0.60620280296E+02  0.41800000000E+01 0.  1.
         -5    1    4    4    0  501 -0.11701926670E+01  0.86505150741E+02 -0.11365810833E+04  0.11398765468E+04  0.41800000000E+01 0.  1.
</event>
<event>
11    1  0.1078607E-008  0.1344775E+03  0.7561462E-02  0.1113887E+00
         22   -1    0    0    0    0  0.00000000000E+00  0.00000000000E+00  0.11926820826E+04  0.11926820826E+04  0.00000000000E+00 0. -1.
         22   -1    0    0    0    0 -0.00000000000E+00 -0.00000000000E+00 -0.69168577582E+03  0.69168577582E+03  0.00000000000E+00 0.  1.
         24    2    1    2    0    0  0.28254690121E+02  0.70072758886E+01 -0.36524456161E+03  0.37533678533E+03  0.81404442177E+02 0.  0.
         25    2    1    2    0    0  0.17330292389E+02 -0.26310095115E+02 -0.30651909723E+03  0.33255590717E+03  0.12508762643E+03 0.  0.
        -24    2    1    2    0    0 -0.45584982509E+02  0.19302819226E+02  0.11727599656E+04  0.11764751659E+04  0.79229347947E+02 0.  0.
        -11    1    3    3    0    0 -0.27077545664E+02 -0.53976042110E+00 -0.17436836190E+03  0.17645909003E+03  0.00000000000E+00 0.  1.
         12    1    3    3    0    0  0.55332235784E+02  0.75470363097E+01 -0.19087619971E+03  0.19887769530E+03  0.00000000000E+00 0. -1.
         13    1    5    5    0    0 -0.30825964447E+02  0.24638828169E+02  0.11336106308E+04  0.11342973042E+04  0.00000000000E+00 0. -1.
        -14    1    5    5    0    0 -0.14759018063E+02 -0.53360089433E+01  0.39149334813E+02  0.42177861751E+02  0.00000000000E+00 0.  1.
          5    1    4    4  501    0 -0.10282623868E+02 -0.66129772650E+01 -0.29672379201E+03  0.29700495781E+03  0.41800000000E+01 0.  1.
         -5    1    4    4    0  501  0.27612916257E+02 -0.19697117850E+02 -0.97953052272E+01  0.35550949358E+02  0.41800000000E+01 0.  1.
</event>
<event>
11    1  0.1078607E-008  0.1805315E+03  0.7561462E-02  0.1069214E+00
         22   -1    0    0    0    0  0.00000000000E+00  0.00000000000E+00  0.17757135430E+04  0.17757135430E+04  0.00000000000E+00 0.  1.
         22   -1    0    0    0    0 -0.00000000000E+00 -0.00000000000E+00 -0.39680655338E+03  0.39680655338E+03  0.00000000000E+00 0. -1.
        -24    2    1    2    0    0  0.12841343269E+03  0.41306280240E+02 -0.32053958548E+03  0.35909703677E+03  0.89492108448E+02 0.  0.
         25    2    1    2    0    0 -0.10327567163E+03 -0.88219475246E+01  0.62577942981E+02  0.17407600422E+03  0.12507104056E+03 0.  0.
         24    2    1    2    0    0 -0.25137761057E+02 -0.32484332715E+02  0.16368686321E+04  0.16393470554E+04  0.80204179207E+02 0.  0.
        -11    1    5    5    0    0 -0.34382857567E+02 -0.31378581891E+02  0.16137866986E+04  0.16144578982E+04  0.00000000000E+00 0.  1.
         12    1    5    5    0    0  0.92450965100E+01 -0.11057508243E+01  0.23081933481E+02  0.24889157229E+02  0.00000000000E+00 0. -1.
         11    1    3    3    0    0  0.13806425515E+03  0.22932769816E+02 -0.29201228445E+03  0.32381912351E+03  0.00000000000E+00 0. -1.
        -12    1    3    3    0    0 -0.96508224674E+01  0.18373510424E+02 -0.28527301027E+02  0.35277913253E+02  0.00000000000E+00 0.  1.
          5    1    4    4  501    0 -0.79053543641E+02  0.52969820296E+02  0.28933148905E+02  0.99548300487E+02  0.41800000000E+01 0. -1.
         -5    1    4    4    0  501 -0.24222127990E+02 -0.61791767820E+02  0.33644794075E+02  0.74527703729E+02  0.41800000000E+01 0. -1.
</event>
<event>
11    1  0.1078607E-008  0.1315492E+03  0.7561462E-02  0.1117380E+00
         22   -1    0    0    0    0  0.00000000000E+00  0.00000000000E+00  0.66480294588E+03  0.66480294588E+03  0.00000000000E+00 0.  1.
         22   -1    0    0    0    0 -0.00000000000E+00 -0.00000000000E+00 -0.91942210898E+03  0.91942210898E+03  0.00000000000E+00 0. -1.
        -24    2    1    2    0    0 -0.21719278252E+02  0.35830576509E+02 -0.86097478050E+03  0.86595532333E+03  0.82737488955E+02 0.  0.
         25    2    1    2    0    0 -0.53731105614E+01 -0.95529639498E+01  0.22333005456E+02  0.12753612956E+03  0.12508625733E+03 0.  0.
         24    2    1    2    0    0  0.27092388814E+02 -0.26277612559E+02  0.58402261194E+03  0.59073360197E+03  0.80369563813E+02 0.  0.
        -13    1    5    5    0    0  0.42636355728E+02  0.98191916862E+01  0.41002077301E+03  0.41234852935E+03  0.00000000000E+00 0.  1.
         14    1    5    5    0    0 -0.15543966914E+02 -0.36096804245E+02  0.17400183893E+03  0.17838507263E+03  0.00000000000E+00 0. -1.
         11    1    3    3    0    0 -0.30458099498E+02  0.93553412375E+01 -0.77326200619E+03  0.77391817943E+03  0.00000000000E+00 0. -1.
        -12    1    3    3    0    0  0.87388212458E+01  0.26475235271E+02 -0.87712774312E+02  0.92037143898E+02  0.00000000000E+00 0.  1.
          5    1    4    4  501    0 -0.49140599535E+01 -0.63625435522E+02  0.33451961746E+02  0.72172364345E+02  0.41800000000E+01 0. -1.
         -5    1    4    4    0  501 -0.45905060791E+00  0.54072471572E+02 -0.11118956290E+02  0.55363765211E+02  0.41800000000E+01 0. -1.
</event>
<event>
11    1  0.1078607E-008  0.2619171E+03  0.7561462E-02  0.1017736E+00
         22   -1    0    0    0    0  0.00000000000E+00  0.00000000000E+00  0.31345774817E+04  0.31345774817E+04  0.00000000000E+00 0. -1.
         22   -1    0    0    0    0 -0.00000000000E+00 -0.00000000000E+00 -0.31795875659E+03  0.31795875659E+03  0.00000000000E+00 0.  1.
        -24    2    1    2    0    0  0.16942712038E+03  0.13027075564E+03 -0.15646238924E+03  0.27746809079E+03  0.82656174989E+02 0.  0.
         25    2    1    2    0    0 -0.23649090594E+03 -0.18991233289E+03  0.17017105942E+03  0.36959447020E+03  0.12508892902E+03 0.  0.
         24    2    1    2    0    0  0.67063785555E+02  0.59641577255E+02  0.28029100550E+04  0.28054736773E+04  0.79517978797E+02 0.  0.
        -13    1    5    5    0    0  0.44176081361E+02 -0.10161054886E+02  0.12615680783E+04  0.12623821884E+04  0.00000000000E+00 0.  1.
         14    1    5    5    0    0  0.22887704194E+02  0.69802632141E+02  0.15413419766E+04  0.15430914890E+04  0.00000000000E+00 0. -1.
         11    1    3    3    0    0  0.94159022165E+02  0.33473955472E+02 -0.37821394767E+02  0.10684982476E+03  0.00000000000E+00 0. -1.
        -12    1    3    3    0    0  0.75268098218E+02  0.96796800165E+02 -0.11864099448E+03  0.17061826603E+03  0.00000000000E+00 0.  1.
          5    1    4    4  501    0 -0.25909151045E+02 -0.44696098451E+02  0.85742652282E+02  0.10019131771E+03  0.41800000000E+01 0. -1.
         -5    1    4    4    0  501 -0.21058175489E+03 -0.14521623444E+03  0.84428407142E+02  0.26940315249E+03  0.41800000000E+01 0. -1.
</event>
<event>
11    1  0.1078607E-008  0.1558263E+03  0.7561462E-02  0.1091070E+00
         22   -1    0    0    0    0  0.00000000000E+00  0.00000000000E+00  0.13465727899E+04  0.13465727899E+04  0.00000000000E+00 0.  1.
         22   -1    0    0    0    0 -0.00000000000E+00 -0.00000000000E+00 -0.11594867463E+03  0.11594867463E+03  0.00000000000E+00 0.  1.
         24    2    1    2    0    0  0.56412000077E+02  0.44241164467E+01 -0.35732882907E+02  0.10228519175E+03  0.77353312610E+02 0.  0.
         25    2    1    2    0    0 -0.13170084352E+03 -0.52789552745E+02  0.16083853245E+03  0.24829317200E+03  0.12509443105E+03 0.  0.
        -24    2    1    2    0    0  0.75288843443E+02  0.48365436299E+02  0.11055184658E+04  0.11119431008E+04  0.78985795861E+02 0.  0.
        -13    1    3    3    0    0  0.76074319815E+02  0.35380147581E+01 -0.28142144484E+02  0.81189900726E+02  0.00000000000E+00 0.  1.
         14    1    3    3    0    0 -0.19662319737E+02  0.88610168857E+00 -0.75907384230E+01  0.21095291026E+02  0.00000000000E+00 0. -1.
         13    1    5    5    0    0  0.20630302833E+02 -0.10699418984E+02  0.80973834887E+02  0.84242797306E+02  0.00000000000E+00 0. -1.
        -14    1    5    5    0    0  0.54658540610E+02  0.59064855283E+02  0.10245446309E+04  0.10277003035E+04  0.00000000000E+00 0.  1.
          5    1    4    4  501    0 -0.57717430254E+02  0.37166363551E+02  0.36456066371E+02  0.77840590375E+02  0.41800000000E+01 0. -1.
         -5    1    4    4    0  501 -0.73983413267E+02 -0.89955916297E+02  0.12438246608E+03  0.17045258163E+03  0.41800000000E+01 0. -1.
</event>
<event>
11    1  0.1078607E-008  0.1783947E+03  0.7561462E-02  0.1070949E+00
         22   -1    0    0    0    0  0.00000000000E+00  0.00000000000E+00  0.24327589765E+03  0.24327589765E+03  0.00000000000E+00 0. -1.
         22   -1    0    0    0    0 -0.00000000000E+00 -0.00000000000E+00 -0.35474828316E+03  0.35474828316E+03  0.00000000000E+00 0. -1.
        -24    2    1    2    0    0 -0.26199303151E+02  0.11441069880E+03 -0.18837784235E+03  0.23564223602E+03  0.79150744926E+02 0.  0.
         25    2    1    2    0    0  0.53257715181E+02 -0.15312972282E+03 -0.44592655406E+02  0.20957762196E+03  0.12509667651E+03 0.  0.
         24    2    1    2    0    0 -0.27058412030E+02  0.38719024016E+02  0.12149811225E+03  0.15280432283E+03  0.79724834994E+02 0.  0.
        -13    1    5    5    0    0  0.10152303336E+01  0.24370441572E+02 -0.28168623126E+01  0.24553692763E+02  0.00000000000E+00 0.  1.
         14    1    5    5    0    0 -0.28073642364E+02  0.14348582444E+02  0.12431497456E+03  0.12825063007E+03  0.00000000000E+00 0. -1.
         13    1    3    3    0    0 -0.24104825049E+02  0.11776113676E+03 -0.19432798297E+03  0.22849965621E+03  0.00000000000E+00 0. -1.
        -14    1    3    3    0    0 -0.20944781016E+01 -0.33504379548E+01  0.59501406203E+01  0.71425798146E+01  0.00000000000E+00 0.  1.
          5    1    4    4  501    0  0.16373878365E+02 -0.14726469324E+03  0.38328343442E+01  0.14828066896E+03  0.41800000000E+01 0.  1.
         -5    1    4    4    0  501  0.36883836815E+02 -0.58650295828E+01 -0.48425489750E+02  0.61296953006E+02  0.41800000000E+01 0.  1.
</event>
<event>
11    1  0.1078607E-008  0.1384157E+03  0.7561462E-02  0.1109341E+00
         22   -1    0    0    0    0  0.00000000000E+00  0.00000000000E+00  0.52118384458E+03  0.52118384458E+03  0.00000000000E+00 0. -1.
         22   -1    0    0    0    0 -0.00000000000E+00 -0.00000000000E+00 -0.25593245538E+03  0.25593245538E+03  0.00000000000E+00 0.  1.
        -24    2    1    2    0    0 -0.12351695270E+02  0.45154195990E+02 -0.12448867974E+03  0.15503951460E+03  0.79676558105E+02 0.  0.
         25    2    1    2    0    0  0.46443049738E+02 -0.91012957721E+02 -0.51581834010E+02  0.16955636430E+03  0.12509340404E+03 0.  0.
         24    2    1    2    0    0 -0.34091354467E+02  0.45858761731E+02  0.44132190295E+03  0.45252042106E+03  0.82124679495E+02 0.  0.
        -13    1    5    5    0    0 -0.38970105097E+02  0.26428030370E+01  0.84889262303E+02  0.93444316860E+02  0.00000000000E+00 0.  1.
         14    1    5    5    0    0  0.48787506296E+01  0.43215958694E+02  0.35643264064E+03  0.35907610420E+03  0.00000000000E+00 0. -1.
         11    1    3    3    0    0  0.22813507492E+02 -0.69384053314E+01 -0.61926846714E+02  0.66359113440E+02  0.00000000000E+00 0. -1.
        -12    1    3    3    0    0 -0.35165202762E+02  0.52092601321E+02 -0.62561833025E+02  0.88680401156E+02  0.00000000000E+00 0.  1.
          5    1    4    4  501    0 -0.37170674805E+02 -0.60326955847E+02 -0.33872317842E+02  0.78649901355E+02  0.41800000000E+01 0. -1.
         -5    1    4    4    0  501  0.83613724543E+02 -0.30686001874E+02 -0.17709516169E+02  0.90906462949E+02  0.41800000000E+01 0. -1.
</event>
<event>
11    1  0.1098846E-008  0.1864243E+03  0.7561462E-02  0.1064562E+00
         22   -1    0    0    0    0  0.00000000000E+00  0.00000000000E+00  0.57731306002E+03  0.57731306002E+03  0.00000000000E+00 0. -1.
         22   -1    0    0    0    0 -0.00000000000E+00 -0.00000000000E+00 -0.70406702732E+03  0.70406702732E+03  0.00000000000E+00 0. -1.
         24    2    1    2    0    0 -0.13331549436E+02  0.42890902020E+02 -0.38007174259E+03  0.39068286324E+03  0.78493378256E+02 0.  0.
         25    2    1    2    0    0  0.66385523632E+01  0.96778672040E+02 -0.28661736779E+03  0.32742010332E+03  0.12507688356E+03 0.  0.
        -24    2    1    2    0    0  0.66929970726E+01 -0.13966957406E+03  0.53993514308E+03  0.56327712077E+03  0.78732267387E+02 0.  0.
        -11    1    3    3    0    0  0.30889108160E+02  0.32444011516E+02 -0.20170006798E+03  0.20661478241E+03  0.00000000000E+00 0.  1.
         12    1    3    3    0    0 -0.44220657596E+02  0.10446890504E+02 -0.17837167461E+03  0.18406808083E+03  0.00000000000E+00 0. -1.
         11    1    5    5    0    0  0.11349639112E+02 -0.14836593428E+03  0.52216392601E+03  0.54295159120E+03  0.00000000000E+00 0. -1.
        -12    1    5    5    0    0 -0.46566420394E+01  0.86963602233E+01  0.17771217065E+02  0.20325529567E+02  0.00000000000E+00 0.  1.
          5    1    4    4  501    0  0.48796469330E+02  0.43959598186E+02 -0.22977525855E+03  0.23901398188E+03  0.41800000000E+01 0. -1.
         -5    1    4    4    0  501 -0.42157916967E+02  0.52819073854E+02 -0.56842109235E+02  0.88406121440E+02  0.41800000000E+01 0. -1.
</event>
<event>
11    1  0.2529661E-008  0.2086879E+03  0.7561462E-02  0.1048545E+00
         22   -1    0    0    0    0  0.00000000000E+00  0.00000000000E+00  0.21392766203E+04  0.21392766203E+04  0.00000000000E+00 0.  1.
         22   -1    0    0    0    0 -0.00000000000E+00 -0.00000000000E+00 -0.60986817458E+03  0.60986817458E+03  0.00000000000E+00 0. -1.
        -24    2    1    2    0    0 -0.28411122362E+02 -0.32389914959E+02 -0.25676972768E+03  0.27282117396E+03  0.81513197993E+02 0.  0.
         25    2    1    2    0    0  0.19509384022E+03  0.29519527014E+02 -0.30095279470E+03  0.38099114523E+03  0.12509460075E+03 0.  0.
         24    2    1    2    0    0 -0.16668271785E+03  0.28703879444E+01  0.20871309681E+04  0.20953324757E+04  0.80691623569E+02 0.  0.
        -11    1    5    5    0    0 -0.16007787915E+03 -0.19889163655E+02  0.18508332385E+04  0.18578493435E+04  0.00000000000E+00 0.  1.
         12    1    5    5    0    0 -0.66048387050E+01  0.22759551599E+02  0.23629772957E+03  0.23748313221E+03  0.00000000000E+00 0. -1.
         13    1    3    3    0    0 -0.44013844247E+02 -0.12755646126E+02 -0.23556041736E+03  0.23997632221E+03  0.00000000000E+00 0. -1.
        -14    1    3    3    0    0  0.15602721885E+02 -0.19634268833E+02 -0.21209310317E+02  0.32844851757E+02  0.00000000000E+00 0.  1.
          5    1    4    4  501    0  0.17645966871E+03  0.27978583057E+01 -0.16677600174E+03  0.24285293872E+03  0.41800000000E+01 0. -1.
         -5    1    4    4    0  501  0.18634171511E+02  0.26721668709E+02 -0.13417679296E+03  0.13813820650E+03  0.41800000000E+01 0. -1.
</event>
<event>
11    1  0.1078607E-008  0.2583692E+03  0.7561462E-02  0.1019533E+00
         22   -1    0    0    0    0  0.00000000000E+00  0.00000000000E+00  0.17431823989E+03  0.17431823989E+03  0.00000000000E+00 0.  1.
         22   -1    0    0    0    0 -0.00000000000E+00 -0.00000000000E+00 -0.94564526551E+03  0.94564526551E+03  0.00000000000E+00 0.  1.
        -24    2    1    2    0    0  0.12299706615E+02 -0.27828692762E+02 -0.42438357833E+03  0.43234264190E+03  0.76766005049E+02 0.  0.
         25    2    1    2    0    0 -0.99469604227E+02 -0.18564478942E+03 -0.36838782584E+03  0.44239769712E+03  0.12509173508E+03 0.  0.
         24    2    1    2    0    0  0.87169897613E+02  0.21347348218E+03  0.21444378550E+02  0.24522316638E+03  0.80653712336E+02 0.  0.
        -11    1    5    5    0    0  0.90760887234E+02  0.13449060767E+03 -0.35889956955E+01  0.16229030499E+03  0.00000000000E+00 0.  1.
         12    1    5    5    0    0 -0.35909896212E+01  0.78982874515E+02  0.25033374245E+02  0.82932861395E+02  0.00000000000E+00 0. -1.
         13    1    3    3    0    0 -0.12356090295E+02  0.20531607506E+02 -0.20262071253E+03  0.20403277438E+03  0.00000000000E+00 0. -1.
        -14    1    3    3    0    0  0.24655796910E+02 -0.48360300268E+02 -0.22176286580E+03  0.22830986753E+03  0.00000000000E+00 0.  1.
          5    1    4    4  501    0  0.29562199683E+02 -0.27100727145E+02 -0.54536103631E+02  0.67823536189E+02  0.41800000000E+01 0. -1.
         -5    1    4    4    0  501 -0.12903180391E+03 -0.15854406227E+03 -0.31385172221E+03  0.37457416093E+03  0.41800000000E+01 0. -1.
</event>
<event>
11    1  0.1078607E-008  0.1492598E+03  0.7561462E-02  0.1097638E+00
         22   -1    0    0    0    0  0.00000000000E+00  0.00000000000E+00  0.10611839503E+04  0.10611839503E+04  0.00000000000E+00 0. -1.
         22   -1    0    0    0    0 -0.00000000000E+00 -0.00000000000E+00 -0.12215012269E+04  0.12215012269E+04  0.00000000000E+00 0.  1.
        -24    2    1    2    0    0  0.44432929913E+02  0.58843529866E+02 -0.11789007950E+04  0.11838845712E+04  0.79616248343E+02 0.  0.
         25    2    1    2    0    0  0.13232371380E+02 -0.11472392773E+03  0.16292335497E+03  0.23564405327E+03  0.12508966785E+03 0.  0.
         24    2    1    2    0    0 -0.57665301294E+02  0.55880397868E+02  0.85566016356E+03  0.86315655277E+03  0.80230999289E+02 0.  0.
        -11    1    5    5    0    0 -0.47974133590E+01 -0.12389129352E+02  0.27864073861E+02  0.30869277821E+02  0.00000000000E+00 0.  1.
         12    1    5    5    0    0 -0.52867887934E+02  0.68269527219E+02  0.82779608970E+03  0.83228727495E+03  0.00000000000E+00 0. -1.
         13    1    3    3    0    0  0.42596374070E+02  0.87233233632E+01 -0.25955119364E+03  0.26316794937E+03  0.00000000000E+00 0. -1.
        -14    1    3    3    0    0  0.18365558429E+01  0.50120206503E+02 -0.91934960140E+03  0.92071662179E+03  0.00000000000E+00 0.  1.
          5    1    4    4  501    0  0.35615052234E+02 -0.12759570066E+03  0.95603685653E+02  0.16342163835E+03  0.41800000000E+01 0.  1.
         -5    1    4    4    0  501 -0.22382680854E+02  0.12871772925E+02  0.67319669313E+02  0.72222414920E+02  0.41800000000E+01 0.  1.
</event>
<event>
11    1  0.1078607E-008  0.1353308E+03  0.7561462E-02  0.1112887E+00
         22   -1    0    0    0    0  0.00000000000E+00  0.00000000000E+00  0.83133797681E+02  0.83133797681E+02  0.00000000000E+00 0. -1.
         22   -1    0    0    0    0 -0.00000000000E+00 -0.00000000000E+00 -0.10093666921E+04  0.10093666921E+04  0.00000000000E+00 0.  1.
        -24    2    1    2    0    0 -0.19480412937E+02  0.28109339936E+02 -0.82641670273E+03  0.83099398647E+03  0.80105040537E+02 0.  0.
         25    2    1    2    0    0  0.55869485485E+02 -0.49122861914E+02 -0.83374597238E+02  0.16772834571E+03  0.12508804707E+03 0.  0.
         24    2    1    2    0    0 -0.36389072547E+02  0.21013521978E+02 -0.16441594469E+02  0.93778157617E+02  0.82208783658E+02 0.  0.
        -13    1    5    5    0    0  0.17433790984E+02  0.32086494773E+02 -0.34309796435E+00  0.36518460142E+02  0.00000000000E+00 0.  1.
         14    1    5    5    0    0 -0.53822863532E+02 -0.11072972795E+02 -0.16098496504E+02  0.57259697475E+02  0.00000000000E+00 0. -1.
         11    1    3    3    0    0 -0.12838494145E+02  0.13120426912E+02 -0.36025527472E+02  0.40432798121E+02  0.00000000000E+00 0. -1.
        -12    1    3    3    0    0 -0.66419187920E+01  0.14988913025E+02 -0.79039117526E+03  0.79056118835E+03  0.00000000000E+00 0.  1.
          5    1    4    4  501    0  0.17483551265E+02 -0.87561109642E+02 -0.39280288939E+02  0.97637267402E+02  0.41800000000E+01 0.  1.
         -5    1    4    4    0  501  0.38385934219E+02  0.38438247728E+02 -0.44094308299E+02  0.70091078310E+02  0.41800000000E+01 0.  1.
</event>
<event>
11    1  0.1078607E-008  0.1308086E+03  0.7561462E-02  0.1118279E+00
         22   -1    0    0    0    0  0.00000000000E+00  0.00000000000E+00  0.24555103304E+03  0.24555103304E+03  0.00000000000E+00 0. -1.
         22   -1    0    0    0    0 -0.00000000000E+00 -0.00000000000E+00 -0.59045154883E+03  0.59045154883E+03  0.00000000000E+00 0. -1.
        -24    2    1    2    0    0 -0.30847429959E+02 -0.20165880032E+02 -0.46575143032E+03  0.47388355660E+03  0.79265400489E+02 0.  0.
         25    2    1    2    0    0  0.36648132721E+02  0.38842963871E+02 -0.72869502400E+02  0.15430634161E+03  0.12509444915E+03 0.  0.
         24    2    1    2    0    0 -0.58007027624E+01 -0.18677083839E+02  0.19372041694E+03  0.20781268366E+03  0.72636285267E+02 0.  0.
        -13    1    5    5    0    0 -0.38860039936E+01  0.22712006300E+02  0.24663280109E+02  0.33752239080E+02  0.00000000000E+00 0.  1.
         14    1    5    5    0    0 -0.19146987688E+01 -0.41389090139E+02  0.16905713683E+03  0.17406044458E+03  0.00000000000E+00 0. -1.
         11    1    3    3    0    0  0.69028567783E+01 -0.18387229562E+02 -0.37583542513E+03  0.37634825152E+03  0.00000000000E+00 0. -1.
        -12    1    3    3    0    0 -0.37750286737E+02 -0.17786504700E+01 -0.89916005193E+02  0.97535305075E+02  0.00000000000E+00 0.  1.
          5    1    4    4  501    0  0.15193246807E+01 -0.13405264281E+02 -0.88239861889E+02  0.89363052120E+02  0.41800000000E+01 0.  1.
         -5    1    4    4    0  501  0.35128808040E+02  0.52248228152E+02  0.15370359489E+02  0.64943289493E+02  0.41800000000E+01 0.  1.
</event>
<event>
11    1  0.1078607E-008  0.1438747E+03  0.7561462E-02  0.1103307E+00
         22   -1    0    0    0    0  0.00000000000E+00  0.00000000000E+00  0.13117939939E+04  0.13117939939E+04  0.00000000000E+00 0. -1.
         22   -1    0    0    0    0 -0.00000000000E+00 -0.00000000000E+00 -0.13253595146E+03  0.13253595146E+03  0.00000000000E+00 0.  1.
        -24    2    1    2    0    0 -0.61774630321E+02 -0.20405683642E+02 -0.53334713923E+02  0.11835074477E+03  0.83245481578E+02 0.  0.
         25    2    1    2    0    0  0.96379312080E+02 -0.40787331058E+02  0.10648347609E+03  0.19478118819E+03  0.12509357465E+03 0.  0.
         24    2    1    2    0    0 -0.34604681759E+02  0.61193014701E+02  0.11261092802E+04  0.11311980124E+04  0.80899710028E+02 0.  0.
        -13    1    5    5    0    0 -0.12503232773E+02  0.36305538525E+02  0.16102551507E+03  0.16554044661E+03  0.00000000000E+00 0.  1.
         14    1    5    5    0    0 -0.22101448986E+02  0.24887476176E+02  0.96508376517E+03  0.96565756576E+03  0.00000000000E+00 0. -1.
         13    1    3    3    0    0 -0.29054773965E+01  0.95426674609E+01  0.18344243705E+02  0.20880986046E+02  0.00000000000E+00 0. -1.
        -14    1    3    3    0    0 -0.58869152924E+02 -0.29948351103E+02 -0.71678957627E+02  0.97469758727E+02  0.00000000000E+00 0.  1.
          5    1    4    4  501    0 -0.32686803871E+01  0.53120663034E+01  0.81831681253E+02  0.82175414673E+02  0.41800000000E+01 0.  1.
         -5    1    4    4    0  501  0.99647992467E+02 -0.46099397362E+02  0.24651794835E+02  0.11260577351E+03  0.41800000000E+01 0.  1.
</event>
<event>
11    1  0.1078607E-008  0.1345197E+03  0.7561462E-02  0.1113837E+00
         22   -1    0    0    0    0  0.00000000000E+00  0.00000000000E+00  0.36152180175E+03  0.36152180175E+03  0.00000000000E+00 0.  1.
         22   -1    0    0    0    0 -0.00000000000E+00 -0.00000000000E+00 -0.32787873882E+03  0.32787873882E+03  0.00000000000E+00 0. -1.
         24    2    1    2    0    0 -0.18821479946E+02 -0.54077054528E+02 -0.26796351843E+03  0.28442472129E+03  0.76252206105E+02 0.  0.
         25    2    1    2    0    0  0.26726372455E+02 -0.45215529282E+01  0.56675825869E+02  0.13998208196E+03  0.12509232833E+03 0.  0.
        -24    2    1    2    0    0 -0.79048925084E+01  0.58598607456E+02  0.24493075549E+03  0.26499373733E+03  0.82062913169E+02 0.  0.
        -11    1    3    3    0    0  0.37497592522E+01 -0.11180073945E+02  0.32089794507E+00  0.11796513187E+02  0.00000000000E+00 0.  1.
         12    1    3    3    0    0 -0.22571239199E+02 -0.42896980582E+02 -0.26828441637E+03  0.27262820810E+03  0.00000000000E+00 0. -1.
         11    1    5    5    0    0 -0.40845369789E+02  0.95043945207E+01  0.10714279015E+03  0.11505761700E+03  0.00000000000E+00 0. -1.
        -12    1    5    5    0    0  0.32940477281E+02  0.49094212935E+02  0.13778796533E+03  0.14993612032E+03  0.00000000000E+00 0.  1.
          5    1    4    4  501    0  0.57092674817E+02 -0.19618214002E+02 -0.13435986222E+02  0.61987466186E+02  0.41800000000E+01 0. -1.
         -5    1    4    4    0  501 -0.30366302362E+02  0.15096661074E+02  0.70111812091E+02  0.77994615772E+02  0.41800000000E+01 0. -1.
</event>
<event>
11    1  0.1078607E-008  0.1453134E+03  0.7561462E-02  0.1101766E+00
         22   -1    0    0    0    0  0.00000000000E+00  0.00000000000E+00  0.18437370259E+03  0.18437370259E+03  0.00000000000E+00 0.  1.
         22   -1    0    0    0    0 -0.00000000000E+00 -0.00000000000E+00 -0.19656769293E+04  0.19656769293E+04  0.00000000000E+00 0.  1.
         24    2    1    2    0    0  0.37179764872E+02  0.52721029580E+02 -0.13198480805E+04  0.13238051814E+04  0.79368513034E+02 0.  0.
         25    2    1    2    0    0 -0.86724047651E+02  0.26625784477E+01 -0.61773342176E+03  0.63621566834E+03  0.12509055326E+03 0.  0.
        -24    2    1    2    0    0  0.49544282779E+02 -0.55383608027E+02  0.15627827552E+03  0.19002978217E+03  0.78526675213E+02 0.  0.
        -13    1    3    3    0    0 -0.19004524391E+01  0.58122829398E+01 -0.84816376715E+03  0.84818581116E+03  0.00000000000E+00 0.  1.
         14    1    3    3    0    0  0.39080217312E+02  0.46908746640E+02 -0.47168431331E+03  0.47561937021E+03  0.00000000000E+00 0. -1.
         13    1    5    5    0    0 -0.80367096866E+01 -0.12286137647E+02 -0.32509332155E+01  0.15036836357E+02  0.00000000000E+00 0. -1.
        -14    1    5    5    0    0  0.57580992465E+02 -0.43097470381E+02  0.15952920873E+03  0.17499294582E+03  0.00000000000E+00 0.  1.
          5    1    4    4  501    0 -0.19580323252E+01  0.45871286639E+02 -0.10445274612E+03  0.11417467933E+03  0.41800000000E+01 0.  1.
         -5    1    4    4    0  501 -0.84766015326E+02 -0.43208708191E+02 -0.51328067564E+03  0.52204098901E+03  0.41800000000E+01 0.  1.
</event>
<event>
11    1  0.1078607E-008  0.1691718E+03  0.7561462E-02  0.1078755E+00
         22   -1    0    0    0    0  0.00000000000E+00  0.00000000000E+00  0.51234544882E+03  0.51234544882E+03  0.00000000000E+00 0.  1.
         22   -1    0    0    0    0 -0.00000000000E+00 -0.00000000000E+00 -0.60267263677E+03  0.60267263677E+03  0.00000000000E+00 0. -1.
         24    2    1    2    0    0  0.41652975591E+02  0.10815701340E+03 -0.51283239882E+03  0.53157224659E+03  0.78352244063E+02 0.  0.
         25    2    1    2    0    0  0.52149856037E+02 -0.11383934143E+03  0.39570574427E+02  0.18136129656E+03  0.12508831435E+03 0.  0.
        -24    2    1    2    0    0 -0.93802831628E+02  0.56823280286E+01  0.38293463644E+03  0.40208454244E+03  0.78751402593E+02 0.  0.
        -13    1    3    3    0    0  0.33286326076E+02  0.10128067730E+03 -0.29850817875E+03  0.31697458554E+03  0.00000000000E+00 0.  1.
         14    1    3    3    0    0  0.83666495145E+01  0.68763361001E+01 -0.21432422007E+03  0.21459766106E+03  0.00000000000E+00 0. -1.
         13    1    5    5    0    0 -0.27663024583E+01  0.14724193195E+02  0.98089344638E+01  0.17907246853E+02  0.00000000000E+00 0. -1.
        -14    1    5    5    0    0 -0.91036529170E+02 -0.90418651669E+01  0.37312570198E+03  0.38417729559E+03  0.00000000000E+00 0.  1.
          5    1    4    4  501    0 -0.17492717333E+02 -0.99990539859E+02  0.36115097480E+01  0.10165932630E+03  0.41800000000E+01 0.  1.
         -5    1    4    4    0  501  0.69642573370E+02 -0.13848801571E+02  0.35959064679E+02  0.79701970259E+02  0.41800000000E+01 0.  1.
</event>
<event>
11    1  0.1078607E-008  0.1542829E+03  0.7561462E-02  0.1092581E+00
         22   -1    0    0    0    0  0.00000000000E+00  0.00000000000E+00  0.10905692794E+04  0.10905692794E+04  0.00000000000E+00 0.  1.
         22   -1    0    0    0    0 -0.00000000000E+00 -0.00000000000E+00 -0.23770448706E+03  0.23770448706E+03  0.00000000000E+00 0.  1.
        -24    2    1    2    0    0  0.87590442824E+02  0.19075604452E+02 -0.20194153943E+03  0.22707233320E+03  0.52397469406E+02 0.  0.
         25    2    1    2    0    0 -0.11309365524E+03  0.97463747153E+01  0.32881557569E+03  0.36966651786E+03  0.12509390445E+03 0.  0.
         24    2    1    2    0    0  0.25503212421E+02 -0.28821979168E+02  0.72599075606E+03  0.73153491539E+03  0.81238132849E+02 0.  0.
        -11    1    5    5    0    0 -0.86535114556E+01 -0.43003941791E+02  0.54740662807E+03  0.54916139588E+03  0.00000000000E+00 0.  1.
         12    1    5    5    0    0  0.34156723877E+02  0.14181962623E+02  0.17858412799E+03  0.18237351951E+03  0.00000000000E+00 0. -1.
         13    1    3    3    0    0  0.38686300650E+02  0.10301656783E+02 -0.35957909385E+02  0.53811943264E+02  0.00000000000E+00 0. -1.
        -14    1    3    3    0    0  0.48904142173E+02  0.87739476690E+01 -0.16598363004E+03  0.17326038994E+03  0.00000000000E+00 0.  1.
          5    1    4    4  501    0 -0.67054598102E+02 -0.51827960337E+02  0.22459137210E+03  0.24008584594E+03  0.41800000000E+01 0.  1.
         -5    1    4    4    0  501 -0.46039057142E+02  0.61574335053E+02  0.10422420360E+03  0.12958067192E+03  0.41800000000E+01 0.  1.
</event>
<event>
11    1  0.1078607E-008  0.1633230E+03  0.7561462E-02  0.1083993E+00
         22   -1    0    0    0    0  0.00000000000E+00  0.00000000000E+00  0.94778897767E+02  0.94778897767E+02  0.00000000000E+00 0.  1.
         22   -1    0    0    0    0 -0.00000000000E+00 -0.00000000000E+00 -0.13003848607E+04  0.13003848607E+04  0.00000000000E+00 0. -1.
         24    2    1    2    0    0  0.25969996310E+01  0.23176204239E+01 -0.30050915219E+03  0.31029138872E+03  0.77219683978E+02 0.  0.
         25    2    1    2    0    0  0.93944018911E+02 -0.43833294443E+02 -0.93497158917E+03  0.94898145849E+03  0.12508836720E+03 0.  0.
        -24    2    1    2    0    0 -0.96541018542E+02  0.41515674019E+02  0.29874778462E+02  0.13589091122E+03  0.80809144993E+02 0.  0.
        -13    1    3    3    0    0  0.19293323119E+02  0.30901964941E+02 -0.88364784905E+02  0.95579804172E+02  0.00000000000E+00 0.  1.
         14    1    3    3    0    0 -0.16696323488E+02 -0.28584344517E+02 -0.21214436728E+03  0.21471158455E+03  0.00000000000E+00 0. -1.
         11    1    5    5    0    0 -0.53385667611E+02  0.34237356664E+02 -0.22811334443E+02  0.67398687499E+02  0.00000000000E+00 0. -1.
        -12    1    5    5    0    0 -0.43155350932E+02  0.72783173548E+01  0.52686112905E+02  0.68492223724E+02  0.00000000000E+00 0.  1.
          5    1    4    4  501    0  0.45926614139E+02 -0.82622292439E+02 -0.43341416749E+03  0.44362259870E+03  0.41800000000E+01 0. -1.
         -5    1    4    4    0  501  0.48017404773E+02  0.38788997996E+02 -0.50155742168E+03  0.50535885979E+03  0.41800000000E+01 0. -1.
</event>
<event>
11    1  0.1078607E-008  0.1704233E+03  0.7561462E-02  0.1077664E+00
         22   -1    0    0    0    0  0.00000000000E+00  0.00000000000E+00  0.19264711740E+03  0.19264711740E+03  0.00000000000E+00 0. -1.
         22   -1    0    0    0    0 -0.00000000000E+00 -0.00000000000E+00 -0.57674899134E+03  0.57674899134E+03  0.00000000000E+00 0.  1.
         24    2    1    2    0    0  0.41447155923E+02  0.52967851950E+02 -0.40154002025E+03  0.41487470469E+03  0.79769496991E+02 0.  0.
         25    2    1    2    0    0  0.47358697970E+02 -0.12511447343E+03 -0.64353020073E+02  0.19410965835E+03  0.12506306624E+03 0.  0.
        -24    2    1    2    0    0 -0.88805853893E+02  0.72146621484E+02  0.81791166377E+02  0.16041174570E+03  0.77139604509E+02 0.  0.
        -13    1    3    3    0    0  0.26321840471E+02  0.35627872676E+01 -0.29777600219E+03  0.29895832522E+03  0.00000000000E+00 0.  1.
         14    1    3    3    0    0  0.15125315452E+02  0.49405064682E+02 -0.10376401806E+03  0.11591637946E+03  0.00000000000E+00 0. -1.
         13    1    5    5    0    0 -0.94541106891E+02  0.82649437321E+02  0.70771971282E+02  0.14414444943E+03  0.00000000000E+00 0. -1.
        -14    1    5    5    0    0  0.57352529973E+01 -0.10502815837E+02  0.11019195095E+02  0.16267296272E+02  0.00000000000E+00 0.  1.
          5    1    4    4  501    0  0.58637091144E+02 -0.14519933091E+03 -0.67339809709E+02  0.17050887521E+03  0.41800000000E+01 0.  1.
         -5    1    4    4    0  501 -0.11278393174E+02  0.20084857477E+02  0.29867896368E+01  0.23600783139E+02  0.41800000000E+01 0.  1.
</event>
<event>
11    1  0.1078607E-008  0.1753392E+03  0.7561462E-02  0.1073477E+00
         22   -1    0    0    0    0  0.00000000000E+00  0.00000000000E+00  0.10908101453E+04  0.10908101453E+04  0.00000000000E+00 0. -1.
         22   -1    0    0    0    0 -0.00000000000E+00 -0.00000000000E+00 -0.24168919624E+03  0.24168919624E+03  0.00000000000E+00 0.  1.
         24    2    1    2    0    0 -0.93548738820E+02  0.65211996380E+02 -0.13232430652E+03  0.19223933701E+03  0.80263750173E+02 0.  0.
         25    2    1    2    0    0  0.10075126997E+03 -0.14619986788E+03  0.79786675643E+02  0.23137757441E+03  0.12507777004E+03 0.  0.
        -24    2    1    2    0    0 -0.72025311520E+01  0.80987871505E+02  0.90165857991E+03  0.90888243010E+03  0.80424904333E+02 0.  0.
        -13    1    3    3    0    0 -0.10547933889E+03  0.65622906682E+02 -0.13048170447E+03  0.18016029534E+03  0.00000000000E+00 0.  1.
         14    1    3    3    0    0  0.11930600072E+02 -0.41091030287E+00 -0.18426020441E+01  0.12079041670E+02  0.00000000000E+00 0. -1.
         11    1    5    5    0    0 -0.41274223378E+02  0.60062079586E+02  0.64910741927E+03  0.65318562191E+03  0.00000000000E+00 0. -1.
        -12    1    5    5    0    0  0.34071692226E+02  0.20925791920E+02  0.25255116064E+03  0.25569680819E+03  0.00000000000E+00 0.  1.
          5    1    4    4  501    0  0.75366438684E+02 -0.88887829720E+01  0.15376419964E+02  0.77543647281E+02  0.41800000000E+01 0.  1.
         -5    1    4    4    0  501  0.25384831288E+02 -0.13731108491E+03  0.64410255679E+02  0.15383392713E+03  0.41800000000E+01 0.  1.
</event>
<event>
11    1  0.1078607E-008  0.1450068E+03  0.7561462E-02  0.1102093E+00
         22   -1    0    0    0    0  0.00000000000E+00  0.00000000000E+00  0.12625256524E+04  0.12625256524E+04  0.00000000000E+00 0.  1.
         22   -1    0    0    0    0 -0.00000000000E+00 -0.00000000000E+00 -0.11226553114E+04  0.11226553114E+04  0.00000000000E+00 0. -1.
        -24    2    1    2    0    0  0.55574705577E+02 -0.47151276718E+02 -0.10767415104E+04  0.10821059745E+04  0.79178715410E+02 0.  0.
         25    2    1    2    0    0 -0.48752065451E+02  0.10282484320E+03  0.13507380562E+03  0.21642922225E+03  0.12508782122E+03 0.  0.
         24    2    1    2    0    0 -0.68226401259E+01 -0.55673566478E+02  0.10815380458E+04  0.10866457671E+04  0.89041475177E+02 0.  0.
        -11    1    5    5    0    0 -0.13990211667E+02  0.15651879789E+02  0.53692374891E+03  0.53733399251E+03  0.00000000000E+00 0.  1.
         12    1    5    5    0    0  0.71675715412E+01 -0.71325446266E+02  0.54461429689E+03  0.54931177463E+03  0.00000000000E+00 0. -1.
         13    1    3    3    0    0  0.49543532686E+02 -0.52482093565E+02 -0.10671353447E+04  0.10695731746E+04  0.00000000000E+00 0. -1.
        -14    1    3    3    0    0  0.60311728909E+01  0.53308168466E+01 -0.96061656774E+01  0.12532799915E+02  0.00000000000E+00 0.  1.
          5    1    4    4  501    0 -0.44400510201E+02  0.12357880216E+03  0.72129308341E+02  0.14987740047E+03  0.41800000000E+01 0. -1.
         -5    1    4    4    0  501 -0.43515552496E+01 -0.20753958963E+02  0.62944497278E+02  0.66551821788E+02  0.41800000000E+01 0. -1.
</event>
<event>
11    1  0.1078607E-008  0.1516080E+03  0.7561462E-02  0.1095247E+00
         22   -1    0    0    0    0  0.00000000000E+00  0.00000000000E+00  0.70359845346E+03  0.70359845346E+03  0.00000000000E+00 0. -1.
         22   -1    0    0    0    0 -0.00000000000E+00 -0.00000000000E+00 -0.41200873330E+03  0.41200873330E+03  0.00000000000E+00 0. -1.
         24    2    1    2    0    0  0.51740837613E+02 -0.66017350166E+02 -0.34781367201E+03  0.36635702170E+03  0.78789035496E+02 0.  0.
         25    2    1    2    0    0 -0.86774728127E+02  0.74850689682E+02  0.89542080704E+02  0.19182958992E+03  0.12509327786E+03 0.  0.
        -24    2    1    2    0    0  0.35033890514E+02 -0.88333395156E+01  0.54986131146E+03  0.55742057513E+03  0.84052569077E+02 0.  0.
        -13    1    3    3    0    0  0.32577355321E+02 -0.68431033616E+02 -0.15457562965E+03  0.17215607954E+03  0.00000000000E+00 0.  1.
         14    1    3    3    0    0  0.19163482292E+02  0.24136834497E+01 -0.19323804236E+03  0.19420094216E+03  0.00000000000E+00 0. -1.
         13    1    5    5    0    0  0.28932836097E+02 -0.11779740344E+02  0.54975769175E+03  0.55064452319E+03  0.00000000000E+00 0. -1.
        -14    1    5    5    0    0  0.61010544172E+01  0.29464008285E+01  0.10361971342E+00  0.67760519397E+01  0.00000000000E+00 0.  1.
          5    1    4    4  501    0  0.16206151023E+02 -0.10082205617E+02  0.48224479810E+02  0.52032327010E+02  0.41800000000E+01 0. -1.
         -5    1    4    4    0  501 -0.10298087915E+03  0.84932895299E+02  0.41317600894E+02  0.13979726291E+03  0.41800000000E+01 0. -1.
</event>
<event>
11    1  0.1078607E-008  0.1566661E+03  0.7561462E-02  0.1090256E+00
         22   -1    0    0    0    0  0.00000000000E+00  0.00000000000E+00  0.89516449686E+03  0.89516449686E+03  0.00000000000E+00 0. -1.
         22   -1    0    0    0    0 -0.00000000000E+00 -0.00000000000E+00 -0.53359428995E+03  0.53359428995E+03  0.00000000000E+00 0. -1.
         24    2    1    2    0    0  0.34827744446E+02 -0.14504856769E+02 -0.50074169031E+03  0.50874873821E+03  0.81606835268E+02 0.  0.
         25    2    1    2    0    0 -0.12097648693E+03  0.20090337858E+02  0.31972455467E+03  0.36456911007E+03  0.12509161879E+03 0.  0.
        -24    2    1    2    0    0  0.86148742484E+02 -0.55854810889E+01  0.54258734256E+03  0.55544093853E+03  0.81613776144E+02 0.  0.
        -11    1    3    3    0    0  0.33069470036E+02 -0.16119396558E+01 -0.66252226063E+02  0.74064469594E+02  0.00000000000E+00 0.  1.
         12    1    3    3    0    0  0.17582744105E+01 -0.12892917114E+02 -0.43448946425E+03  0.43468426862E+03  0.00000000000E+00 0. -1.
         13    1    5    5    0    0  0.61997133634E+02  0.10719739787E+02  0.49936454278E+03  0.50331253112E+03  0.00000000000E+00 0. -1.
        -14    1    5    5    0    0  0.24151608850E+02 -0.16305220876E+02  0.43222799785E+02  0.52128407410E+02  0.00000000000E+00 0.  1.
          5    1    4    4  501    0 -0.13343962770E+03 -0.12895061978E+02  0.28460662321E+03  0.31462806492E+03  0.41800000000E+01 0. -1.
         -5    1    4    4    0  501  0.12463140766E+02  0.32985399837E+02  0.35117931460E+02  0.49941045145E+02  0.41800000000E+01 0. -1.
</event>
<event>
11    1  0.1078607E-008  0.3528190E+03  0.7561462E-02  0.9800239E-01
         22   -1    0    0    0    0  0.00000000000E+00  0.00000000000E+00  0.18482487077E+04  0.18482487077E+04  0.00000000000E+00 0. -1.
         22   -1    0    0    0    0 -0.00000000000E+00 -0.00000000000E+00 -0.11257362773E+03  0.11257362773E+03  0.00000000000E+00 0. -1.
        -24    2    1    2    0    0  0.14053018002E+03  0.29430428578E+03  0.28502247097E+03  0.44100318720E+03  0.82959375824E+02 0.  0.
         25    2    1    2    0    0 -0.13276601322E+03 -0.31675629996E+03  0.12505837053E+04  0.13029076256E+04  0.12508920484E+03 0.  0.
         24    2    1    2    0    0 -0.77641667991E+01  0.22452014185E+02  0.20006890369E+03  0.21691152257E+03  0.80365833380E+02 0.  0.
        -13    1    5    5    0    0 -0.42163847773E+02 -0.98763583301E+00  0.99978166475E+02  0.10850990395E+03  0.00000000000E+00 0.  1.
         14    1    5    5    0    0  0.34399680974E+02  0.23439650018E+02  0.10009073721E+03  0.10840161862E+03  0.00000000000E+00 0. -1.
         13    1    3    3    0    0  0.11703641170E+03  0.18166613449E+03  0.14724260414E+03  0.26149663584E+03  0.00000000000E+00 0. -1.
        -14    1    3    3    0    0  0.23493768322E+02  0.11263815129E+03  0.13777986683E+03  0.17950655136E+03  0.00000000000E+00 0.  1.
          5    1    4    4  501    0 -0.73050671483E+02 -0.45025242699E+02  0.34533435891E+03  0.35586087861E+03  0.41800000000E+01 0. -1.
         -5    1    4    4    0  501 -0.59715341737E+02 -0.27173105726E+03  0.90524934640E+03  0.94704674704E+03  0.41800000000E+01 0. -1.
</event>
<event>
11    1  0.1078607E-008  0.1611168E+03  0.7561462E-02  0.1086032E+00
         22   -1    0    0    0    0  0.00000000000E+00  0.00000000000E+00  0.47113992316E+03  0.47113992316E+03  0.00000000000E+00 0.  1.
         22   -1    0    0    0    0 -0.00000000000E+00 -0.00000000000E+00 -0.66087185827E+03  0.66087185827E+03  0.00000000000E+00 0. -1.
        -24    2    1    2    0    0  0.54387037304E+02 -0.32284230347E+02 -0.58437095193E+03  0.59333846429E+03  0.80999397467E+02 0.  0.
         25    2    1    2    0    0  0.29006714932E+02 -0.42348232611E+02  0.16267224141E+02  0.13618687647E+03  0.12508988938E+03 0.  0.
         24    2    1    2    0    0 -0.83393752236E+02  0.74632462958E+02  0.37837179269E+03  0.40248644067E+03  0.79407801787E+02 0.  0.
        -13    1    5    5    0    0 -0.87887740614E+02  0.60730446537E+02  0.37109221403E+03  0.38616301402E+03  0.00000000000E+00 0.  1.
         14    1    5    5    0    0  0.44939883781E+01  0.13902016421E+02  0.72795786574E+01  0.16323426648E+02  0.00000000000E+00 0. -1.
         11    1    3    3    0    0  0.59822881054E+02 -0.43865150809E+02 -0.56663402708E+03  0.57146920232E+03  0.00000000000E+00 0. -1.
        -12    1    3    3    0    0 -0.54358437502E+01  0.11580920462E+02 -0.17736924848E+02  0.21869261970E+02  0.00000000000E+00 0.  1.
          5    1    4    4  501    0  0.61926983456E+02 -0.52138054594E+02  0.43647830480E+02  0.92064833256E+02  0.41800000000E+01 0. -1.
         -5    1    4    4    0  501 -0.32920268524E+02  0.97898219829E+01 -0.27380606338E+02  0.44122043217E+02  0.41800000000E+01 0. -1.
</event>
<event>
11    1  0.1078607E-008  0.1401031E+03  0.7561462E-02  0.1107443E+00
         22   -1    0    0    0    0  0.00000000000E+00  0.00000000000E+00  0.80488278323E+03  0.80488278323E+03  0.00000000000E+00 0. -1.
         22   -1    0    0    0    0 -0.00000000000E+00 -0.00000000000E+00 -0.83072088496E+03  0.83072088496E+03  0.00000000000E+00 0. -1.
         24    2    1    2    0    0  0.49829356459E+01 -0.56473944643E+02 -0.71396669051E+03  0.72069854373E+03  0.80273405894E+02 0.  0.
         25    2    1    2    0    0  0.52927495778E+02  0.28864571109E+02 -0.64956880012E+02  0.15330083052E+03  0.12508902870E+03 0.  0.
        -24    2    1    2    0    0 -0.57910431424E+02  0.27609373534E+02  0.75308546880E+03  0.76160429395E+03  0.93741568569E+02 0.  0.
        -11    1    3    3    0    0 -0.32889297677E+01 -0.39763415140E+02 -0.12039671312E+03  0.12683577875E+03  0.00000000000E+00 0.  1.
         12    1    3    3    0    0  0.82718654137E+01 -0.16710529503E+02 -0.59356997740E+03  0.59386276497E+03  0.00000000000E+00 0. -1.
         13    1    5    5    0    0 -0.48047957425E+02  0.17492577053E+02  0.74169635855E+03  0.74345684795E+03  0.00000000000E+00 0. -1.
        -14    1    5    5    0    0 -0.98624739994E+01  0.10116796480E+02  0.11389110242E+02  0.18147446005E+02  0.00000000000E+00 0.  1.
          5    1    4    4  501    0  0.43219708126E+02 -0.31276191505E+02 -0.74261493858E+02  0.91533519519E+02  0.41800000000E+01 0.  1.
         -5    1    4    4    0  501  0.97077876518E+01  0.60140762614E+02  0.93046138454E+01  0.61767310997E+02  0.41800000000E+01 0.  1.
</event>
<event>
11    1  0.1078607E-008  0.2084654E+03  0.7561462E-02  0.1048694E+00
         22   -1    0    0    0    0  0.00000000000E+00  0.00000000000E+00  0.41939338205E+02  0.41939338205E+02  0.00000000000E+00 0. -1.
         22   -1    0    0    0    0 -0.00000000000E+00 -0.00000000000E+00 -0.33813180700E+04  0.33813180700E+04  0.00000000000E+00 0.  1.
         24    2    1    2    0    0 -0.14067019119E+03  0.88140560195E+02 -0.25870142292E+04  0.25934610865E+04  0.76425938218E+02 0.  0.
         25    2    1    2    0    0  0.13591637717E+03 -0.10389260990E+03 -0.70241612695E+03  0.73369095131E+03  0.12508821154E+03 0.  0.
        -24    2    1    2    0    0  0.47538140196E+01  0.15752049707E+02 -0.49948375609E+02  0.96105370361E+02  0.80440513230E+02 0.  0.
        -11    1    3    3    0    0 -0.78224615000E+02  0.91187451907E+02 -0.17393813549E+04  0.17435256636E+04  0.00000000000E+00 0.  1.
         12    1    3    3    0    0 -0.62445576187E+02 -0.30468917121E+01 -0.84763287432E+03  0.84993542293E+03  0.00000000000E+00 0. -1.
         11    1    5    5    0    0  0.38505711117E+02  0.26410492294E+02 -0.27397591011E+02  0.54137158081E+02  0.00000000000E+00 0. -1.
        -12    1    5    5    0    0 -0.33751897097E+02 -0.10658442587E+02 -0.22550784597E+02  0.41968212280E+02  0.00000000000E+00 0.  1.
          5    1    4    4  501    0 -0.56047346362E+01 -0.64282889520E+02 -0.19853594093E+03  0.20880061105E+03  0.41800000000E+01 0.  1.
         -5    1    4    4    0  501  0.14152111180E+03 -0.39609720382E+02 -0.50388018602E+03  0.52489034026E+03  0.41800000000E+01 0.  1.
</event>
<event>
11    1  0.1078607E-008  0.1952342E+03  0.7561462E-02  0.1057946E+00
         22   -1    0    0    0    0  0.00000000000E+00  0.00000000000E+00  0.95953052205E+03  0.95953052205E+03  0.00000000000E+00 0. -1.
         22   -1    0    0    0    0 -0.00000000000E+00 -0.00000000000E+00 -0.16393807455E+03  0.16393807455E+03  0.00000000000E+00 0. -1.
        -24    2    1    2    0    0  0.15249919766E+03  0.77067208118E+01 -0.74962084303E+02  0.18816598038E+03  0.80447021416E+02 0.  0.
         25    2    1    2    0    0 -0.12579437037E+03 -0.82296529860E+02  0.32590246957E+03  0.38007522766E+03  0.12509123296E+03 0.  0.
         24    2    1    2    0    0 -0.26704827288E+02  0.74589809048E+02  0.54465206224E+03  0.55522738856E+03  0.73176476398E+02 0.  0.
        -13    1    5    5    0    0 -0.34091892818E+02  0.23283241904E+02  0.10994091990E+03  0.11743667391E+03  0.00000000000E+00 0.  1.
         14    1    5    5    0    0  0.73870655298E+01  0.51306567144E+02  0.43471114234E+03  0.43779071466E+03  0.00000000000E+00 0. -1.
         13    1    3    3    0    0  0.84174410694E+02 -0.81197977812E+01 -0.81857294109E+02  0.11769400635E+03  0.00000000000E+00 0. -1.
        -14    1    3    3    0    0  0.68324786967E+02  0.15826518593E+02  0.68952098060E+01  0.70471974026E+02  0.00000000000E+00 0.  1.
          5    1    4    4  501    0 -0.12070310524E+03 -0.53459900906E+02  0.32462805459E+03  0.35046832502E+03  0.41800000000E+01 0. -1.
         -5    1    4    4    0  501 -0.50912651354E+01 -0.28836628953E+02  0.12744149808E+01  0.29606902635E+02  0.41800000000E+01 0. -1.
</event>
<event>
11    1  0.1078607E-008  0.1359544E+03  0.7561462E-02  0.1112162E+00
         22   -1    0    0    0    0  0.00000000000E+00  0.00000000000E+00  0.35567168262E+03  0.35567168262E+03  0.00000000000E+00 0. -1.
         22   -1    0    0    0    0 -0.00000000000E+00 -0.00000000000E+00 -0.24766941734E+03  0.24766941734E+03  0.00000000000E+00 0.  1.
         24    2    1    2    0    0 -0.34380344590E+02 -0.41855835256E+02 -0.11201852011E+03  0.15247288486E+03  0.88124416201E+02 0.  0.
         25    2    1    2    0    0  0.46699451214E+02  0.26115765522E+02 -0.63052856464E+02  0.14999121212E+03  0.12513524305E+03 0.  0.
        -24    2    1    2    0    0 -0.12319106624E+02  0.15740069734E+02  0.28307364185E+03  0.30087700299E+03  0.99983868857E+02 0.  0.
        -11    1    3    3    0    0 -0.60507579401E+02 -0.30122569221E+02 -0.10153221104E+03  0.12197264537E+03  0.00000000000E+00 0.  1.
         12    1    3    3    0    0  0.26127234811E+02 -0.11733266035E+02 -0.10486309074E+02  0.30500239486E+02  0.00000000000E+00 0. -1.
         13    1    5    5    0    0 -0.18605708497E+02 -0.35490393410E+02  0.19252157605E+03  0.19664764850E+03  0.00000000000E+00 0. -1.
        -14    1    5    5    0    0  0.62866018733E+01  0.51230463144E+02  0.90552065798E+02  0.10422935449E+03  0.00000000000E+00 0.  1.
          5    1    4    4  501    0  0.82773561634E+01  0.19982237948E+02  0.36718665684E+02  0.42819823307E+02  0.41800000000E+01 0. -1.
         -5    1    4    4    0  501  0.38422095050E+02  0.61335275736E+01 -0.99771522147E+02  0.10717138881E+03  0.41800000000E+01 0. -1.
</event>
<event>
11    1  0.1078607E-008  0.1535854E+03  0.7561462E-02  0.1093271E+00
         22   -1    0    0    0    0  0.00000000000E+00  0.00000000000E+00  0.64605446567E+03  0.64605446567E+03  0.00000000000E+00 0. -1.
         22   -1    0    0    0    0 -0.00000000000E+00 -0.00000000000E+00 -0.90524483065E+03  0.90524483065E+03  0.00000000000E+00 0.  1.
        -24    2    1    2    0    0 -0.11710832883E+02 -0.33450872023E+02 -0.87197150026E+03  0.87566566878E+03  0.72110760422E+02 0.  0.
         25    2    1    2    0    0  0.20067195757E+02  0.11097370425E+03  0.31130617292E+03  0.35394556445E+03  0.12509226161E+03 0.  0.
         24    2    1    2    0    0 -0.83563628748E+01 -0.77522832223E+02  0.30147496236E+03  0.32168806309E+03  0.80724461521E+02 0.  0.
        -13    1    5    5    0    0 -0.17757455949E+02 -0.18395330156E+02  0.16357832162E+02  0.30352826662E+02  0.00000000000E+00 0.  1.
         14    1    5    5    0    0  0.94010930746E+01 -0.59127502067E+02  0.28511713020E+03  0.29133523643E+03  0.00000000000E+00 0. -1.
         13    1    3    3    0    0 -0.41519161813E+02 -0.13753021481E+02 -0.41454838633E+03  0.41684931451E+03  0.00000000000E+00 0. -1.
        -14    1    3    3    0    0  0.29808328931E+02 -0.19697850542E+02 -0.45742311393E+03  0.45881635427E+03  0.00000000000E+00 0.  1.
          5    1    4    4  501    0  0.64184617607E+02  0.10470490498E+03  0.24261757675E+03  0.27196239301E+03  0.41800000000E+01 0. -1.
         -5    1    4    4    0  501 -0.44117421850E+02  0.62687992681E+01  0.68688596169E+02  0.81983171435E+02  0.41800000000E+01 0. -1.
</event>
<event>
11    1  0.1078607E-008  0.2481296E+03  0.7561462E-02  0.1024900E+00
         22   -1    0    0    0    0  0.00000000000E+00  0.00000000000E+00  0.10682943838E+03  0.10682943838E+03  0.00000000000E+00 0.  1.
         22   -1    0    0    0    0 -0.00000000000E+00 -0.00000000000E+00 -0.10675904667E+04  0.10675904667E+04  0.00000000000E+00 0.  1.
         24    2    1    2    0    0  0.37321375323E+02 -0.20823895104E+03 -0.66758193591E+03  0.70418639611E+03  0.73868081910E+02 0.  0.
         25    2    1    2    0    0 -0.27227677661E+01  0.22386920728E+03 -0.28254233153E+03  0.38157857542E+03  0.12508878718E+03 0.  0.
        -24    2    1    2    0    0 -0.34598607557E+02 -0.15630256242E+02 -0.10636760869E+02  0.88654933537E+02  0.79405213957E+02 0.  0.
        -11    1    3    3    0    0  0.46827292566E+02 -0.16294498025E+03 -0.58973311910E+03  0.61361960015E+03  0.00000000000E+00 0.  1.
         12    1    3    3    0    0 -0.95059172436E+01 -0.45293970789E+02 -0.77848816810E+02  0.90566795964E+02  0.00000000000E+00 0. -1.
         11    1    5    5    0    0 -0.30735730944E+02 -0.99204174232E+01 -0.44003240322E+02  0.54583742977E+02  0.00000000000E+00 0. -1.
        -12    1    5    5    0    0 -0.38628766127E+01 -0.57098388189E+01  0.33366479453E+02  0.34071190560E+02  0.00000000000E+00 0.  1.
          5    1    4    4  501    0 -0.56071441010E+02  0.16625884239E+03 -0.17043434619E+03  0.24464535134E+03  0.41800000000E+01 0.  1.
         -5    1    4    4    0  501  0.53348673244E+02  0.57610364887E+02 -0.11210798533E+03  0.13693322407E+03  0.41800000000E+01 0.  1.
</event>
<event>
11    1  0.1078607E-008  0.1608320E+03  0.7561462E-02  0.1086297E+00
         22   -1    0    0    0    0  0.00000000000E+00  0.00000000000E+00  0.30141766686E+03  0.30141766686E+03  0.00000000000E+00 0. -1.
         22   -1    0    0    0    0 -0.00000000000E+00 -0.00000000000E+00 -0.26832573744E+03  0.26832573744E+03  0.00000000000E+00 0. -1.
         24    2    1    2    0    0  0.93208801248E+01 -0.45877873908E+02 -0.11033362055E+03  0.14430376585E+03  0.80364238906E+02 0.  0.
         25    2    1    2    0    0  0.92895476824E+02  0.36157879395E+02 -0.70864054159E+02  0.17494551217E+03  0.12508899313E+03 0.  0.
        -24    2    1    2    0    0 -0.10221635695E+03  0.97199945123E+01  0.21428960413E+03  0.25049412627E+03  0.79275538088E+02 0.  0.
        -11    1    3    3    0    0  0.22480092588E+02 -0.24714003945E+01  0.24436741563E+01  0.22747174024E+02  0.00000000000E+00 0.  1.
         12    1    3    3    0    0 -0.13159212464E+02 -0.43406473513E+02 -0.11277729471E+03  0.12155659183E+03  0.00000000000E+00 0. -1.
         13    1    5    5    0    0 -0.70175855393E+02 -0.27952875251E+02  0.16071975985E+03  0.17758619069E+03  0.00000000000E+00 0. -1.
        -14    1    5    5    0    0 -0.32040501555E+02  0.37672869763E+02  0.53569844275E+02  0.72907935588E+02  0.00000000000E+00 0.  1.
          5    1    4    4  501    0  0.40217109887E+02  0.67234900226E+02  0.35432210192E+01  0.78536453646E+02  0.41800000000E+01 0.  1.
         -5    1    4    4    0  501  0.52678366937E+02 -0.31077020831E+02 -0.74407275178E+02  0.96409058528E+02  0.41800000000E+01 0.  1.
</event>
<event>
11    1  0.1078607E-008  0.1431902E+03  0.7561462E-02  0.1104047E+00
         22   -1    0    0    0    0  0.00000000000E+00  0.00000000000E+00  0.27377261236E+03  0.27377261236E+03  0.00000000000E+00 0.  1.
         22   -1    0    0    0    0 -0.00000000000E+00 -0.00000000000E+00 -0.15446338119E+04  0.15446338119E+04  0.00000000000E+00 0. -1.
        -24    2    1    2    0    0  0.66544680794E+02 -0.18934509139E+02 -0.14657908841E+04  0.14696597480E+04  0.81056454529E+02 0.  0.
         25    2    1    2    0    0 -0.83041418911E+02  0.57498057545E+02  0.34486795982E+02  0.16443105060E+03  0.12508528062E+03 0.  0.
         24    2    1    2    0    0  0.16496738117E+02 -0.38563548406E+02  0.16044288857E+03  0.18431562567E+03  0.80442773075E+02 0.  0.
        -11    1    5    5    0    0 -0.21633989762E+02 -0.27210762731E+02  0.12901122272E+03  0.13361268917E+03  0.00000000000E+00 0.  1.
         12    1    5    5    0    0  0.38130727878E+02 -0.11352785674E+02  0.31431665849E+02  0.50702936495E+02  0.00000000000E+00 0. -1.
         13    1    3    3    0    0  0.55734192406E+02 -0.18041171050E+02 -0.14451962640E+04  0.14463830840E+04  0.00000000000E+00 0. -1.
        -14    1    3    3    0    0  0.10810488388E+02 -0.89333808881E+00 -0.20594620023E+02  0.23276663980E+02  0.00000000000E+00 0.  1.
          5    1    4    4  501    0 -0.68136575469E+02  0.63849641827E+02  0.75488122838E+02  0.12014698818E+03  0.41800000000E+01 0.  1.
         -5    1    4    4    0  501 -0.14904843441E+02 -0.63515842819E+01 -0.41001326856E+02  0.44284062425E+02  0.41800000000E+01 0.  1.
</event>
<event>
11    1  0.1078607E-008  0.1878174E+03  0.7561462E-02  0.1063489E+00
         22   -1    0    0    0    0  0.00000000000E+00  0.00000000000E+00  0.35454037263E+03  0.35454037263E+03  0.00000000000E+00 0.  1.
         22   -1    0    0    0    0 -0.00000000000E+00 -0.00000000000E+00 -0.11971842781E+04  0.11971842781E+04  0.00000000000E+00 0.  1.
        -24    2    1    2    0    0 -0.11664942627E+03  0.91086751581E+02 -0.10279717550E+04  0.10417211925E+04  0.80952015457E+02 0.  0.
         25    2    1    2    0    0  0.82472311357E+02 -0.47311307983E+02 -0.11470085405E+03  0.19453622028E+03  0.12509201844E+03 0.  0.
         24    2    1    2    0    0  0.34177114911E+02 -0.43775443598E+02  0.30002870358E+03  0.31546723798E+03  0.80112362494E+02 0.  0.
        -11    1    5    5    0    0 -0.20822460991E+02 -0.14461085082E+02  0.16263076226E+03  0.16459484408E+03  0.00000000000E+00 0.  1.
         12    1    5    5    0    0  0.54999575902E+02 -0.29314358515E+02  0.13739794131E+03  0.15087239390E+03  0.00000000000E+00 0. -1.
         11    1    3    3    0    0 -0.96885340791E+01  0.53235751538E+02 -0.27822779474E+03  0.28344067933E+03  0.00000000000E+00 0. -1.
        -12    1    3    3    0    0 -0.10696089219E+03  0.37851000043E+02 -0.74974396024E+03  0.75828051312E+03  0.00000000000E+00 0.  1.
          5    1    4    4  501    0 -0.68070864756E+01  0.34422716574E+02 -0.33706927356E+02  0.48835327319E+02  0.41800000000E+01 0. -1.
         -5    1    4    4    0  501  0.89279397832E+02 -0.81734024557E+02 -0.80993926692E+02  0.14570089296E+03  0.41800000000E+01 0. -1.
</event>
<event>
11    1  0.1078607E-008  0.2223796E+03  0.7561462E-02  0.1039737E+00
         22   -1    0    0    0    0  0.00000000000E+00  0.00000000000E+00  0.56248468833E+03  0.56248468833E+03  0.00000000000E+00 0. -1.
         22   -1    0    0    0    0 -0.00000000000E+00 -0.00000000000E+00 -0.59236008015E+03  0.59236008015E+03  0.00000000000E+00 0.  1.
         24    2    1    2    0    0 -0.64514378604E+02 -0.17436514433E+03 -0.48488671324E+03  0.52570148224E+03  0.81741147174E+02 0.  0.
         25    2    1    2    0    0  0.46605825289E+02  0.16427706556E+03  0.53207612606E+02  0.21824780010E+03  0.12506796147E+03 0.  0.
        -24    2    1    2    0    0  0.17908553315E+02  0.10088078769E+02  0.40180370883E+03  0.41089548614E+03  0.83464929704E+02 0.  0.
        -13    1    3    3    0    0  0.13337153884E+02 -0.35406272753E+02 -0.15247069246E+03  0.15709486269E+03  0.00000000000E+00 0.  1.
         14    1    3    3    0    0 -0.77851532488E+02 -0.13895887158E+03 -0.33241602079E+03  0.36860661955E+03  0.00000000000E+00 0. -1.
         11    1    5    5    0    0  0.10450292207E+02 -0.23936027124E+02  0.42336001873E+02  0.49744135899E+02  0.00000000000E+00 0. -1.
        -12    1    5    5    0    0  0.74582611080E+01  0.34024105893E+02  0.35946770695E+03  0.36115135024E+03  0.00000000000E+00 0.  1.
          5    1    4    4  501    0  0.36155040834E+02  0.31241227865E+02 -0.33986861968E+02  0.58785886764E+02  0.41800000000E+01 0. -1.
         -5    1    4    4    0  501  0.10450784456E+02  0.13303583770E+03  0.87194474574E+02  0.15946191333E+03  0.41800000000E+01 0. -1.
</event>
<event>
11    1  0.1078607E-008  0.1336792E+03  0.7561462E-02  0.1114829E+00
         22   -1    0    0    0    0  0.00000000000E+00  0.00000000000E+00  0.48030897963E+03  0.48030897963E+03  0.00000000000E+00 0.  1.
         22   -1    0    0    0    0 -0.00000000000E+00 -0.00000000000E+00 -0.35472824660E+03  0.35472824660E+03  0.00000000000E+00 0.  1.
         24    2    1    2    0    0 -0.91838871830E+01  0.47502595190E+02 -0.31266218731E+03  0.32612284269E+03  0.79105150383E+02 0.  0.
         25    2    1    2    0    0 -0.12363084392E+02 -0.24567319440E+02  0.10756163202E+03  0.16725208577E+03  0.12508939392E+03 0.  0.
        -24    2    1    2    0    0  0.21546971575E+02 -0.22935275750E+02  0.33068128832E+03  0.34166229777E+03  0.79954439624E+02 0.  0.
        -13    1    3    3    0    0 -0.35926519647E+02  0.46136838219E+02 -0.26574070092E+03  0.27209822267E+03  0.00000000000E+00 0.  1.
         14    1    3    3    0    0  0.26742632464E+02  0.13657569706E+01 -0.46921486386E+02  0.54024620016E+02  0.00000000000E+00 0. -1.
         11    1    5    5    0    0  0.39873745923E+02 -0.14846491126E+02  0.83926104436E+02  0.94095297005E+02  0.00000000000E+00 0. -1.
        -12    1    5    5    0    0 -0.18326774348E+02 -0.80887846237E+01  0.24675518388E+03  0.24756700077E+03  0.00000000000E+00 0.  1.
          5    1    4    4  501    0  0.26448553749E+02  0.19463746016E+02  0.10304937155E+03  0.10823589414E+03  0.41800000000E+01 0. -1.
         -5    1    4    4    0  501 -0.38811638141E+02 -0.44031065456E+02  0.45122604790E+01  0.59016191634E+02  0.41800000000E+01 0. -1.
</event>
<event>
11    1  0.1078607E-008  0.1539162E+03  0.7561462E-02  0.1092943E+00
         22   -1    0    0    0    0  0.00000000000E+00  0.00000000000E+00  0.39689424374E+03  0.39689424374E+03  0.00000000000E+00 0.  1.
         22   -1    0    0    0    0 -0.00000000000E+00 -0.00000000000E+00 -0.14556732683E+03  0.14556732683E+03  0.00000000000E+00 0. -1.
        -24    2    1    2    0    0 -0.28175433479E+01 -0.13559148660E+02 -0.84075611019E+02  0.10434677534E+03  0.60230823444E+02 0.  0.
         25    2    1    2    0    0  0.11776641422E+02 -0.79985809298E+02  0.12538994258E+03  0.19469638434E+03  0.12509046888E+03 0.  0.
         24    2    1    2    0    0 -0.89590980737E+01  0.93544957958E+02  0.21001258535E+03  0.24341841089E+03  0.79475229839E+02 0.  0.
        -13    1    5    5    0    0 -0.32712709662E+02  0.88615950374E+02  0.13643038319E+03  0.16594022264E+03  0.00000000000E+00 0.  1.
         14    1    5    5    0    0  0.23753611588E+02  0.49290075842E+01  0.73582202161E+02  0.77478188247E+02  0.00000000000E+00 0. -1.
         11    1    3    3    0    0 -0.72835352776E+01 -0.26632218567E+02 -0.86068724438E+02  0.90388883600E+02  0.00000000000E+00 0. -1.
        -12    1    3    3    0    0  0.44659919297E+01  0.13073069908E+02  0.19931134195E+01  0.13957891740E+02  0.00000000000E+00 0.  1.
          5    1    4    4  501    0  0.60398302349E+02 -0.84138627240E+01  0.39934836098E+02  0.73013776418E+02  0.41800000000E+01 0.  1.
         -5    1    4    4    0  501 -0.48621660928E+02 -0.71571946574E+02  0.85455106479E+02  0.12168260792E+03  0.41800000000E+01 0.  1.
</event>
<event>
11    1  0.1078607E-008  0.1424555E+03  0.7561462E-02  0.1104847E+00
         22   -1    0    0    0    0  0.00000000000E+00  0.00000000000E+00  0.43960013393E+03  0.43960013393E+03  0.00000000000E+00 0.  1.
         22   -1    0    0    0    0 -0.00000000000E+00 -0.00000000000E+00 -0.14049219798E+04  0.14049219798E+04  0.00000000000E+00 0.  1.
        -24    2    1    2    0    0 -0.41349140489E+02 -0.47055599628E+02 -0.92057555648E+03  0.92626316178E+03  0.81117869850E+02 0.  0.
         25    2    1    2    0    0  0.59361642754E+02  0.71205967302E+02 -0.46421469020E+03  0.48963319837E+03  0.12510513954E+03 0.  0.
         24    2    1    2    0    0 -0.18012502265E+02 -0.24150367674E+02  0.41946840082E+03  0.42862575356E+03  0.82816706245E+02 0.  0.
        -13    1    5    5    0    0 -0.34888434496E+02 -0.22897817481E+01  0.37251936229E+03  0.37415654644E+03  0.00000000000E+00 0.  1.
         14    1    5    5    0    0  0.16875932231E+02 -0.21860585926E+02  0.46949038529E+02  0.54469207122E+02  0.00000000000E+00 0. -1.
         13    1    3    3    0    0 -0.15966305414E+02 -0.86587729681E+01 -0.34466229033E+02  0.38959186357E+02  0.00000000000E+00 0. -1.
        -14    1    3    3    0    0 -0.25382835075E+02 -0.38396826660E+02 -0.88610932744E+03  0.88730397542E+03  0.00000000000E+00 0.  1.
          5    1    4    4  501    0 -0.29691433907E+02 -0.12923058434E+02 -0.82792499097E+02  0.88998072976E+02  0.41800000000E+01 0.  1.
         -5    1    4    4    0  501  0.89053076660E+02  0.84129025736E+02 -0.38142219110E+03  0.40063512540E+03  0.41800000000E+01 0.  1.
</event>
<event>
11    1  0.1078607E-008  0.1542375E+03  0.7561462E-02  0.1092626E+00
         22   -1    0    0    0    0  0.00000000000E+00  0.00000000000E+00  0.17922124122E+03  0.17922124122E+03  0.00000000000E+00 0.  1.
         22   -1    0    0    0    0 -0.00000000000E+00 -0.00000000000E+00 -0.72549915721E+03  0.72549915721E+03  0.00000000000E+00 0. -1.
         24    2    1    2    0    0 -0.27913161266E+02 -0.64389105027E+02 -0.49941551842E+03  0.51128499979E+03  0.84091554571E+02 0.  0.
         25    2    1    2    0    0  0.69137380601E+02 -0.21813940711E+02 -0.16665557935E+03  0.22062828945E+03  0.12508770753E+03 0.  0.
        -24    2    1    2    0    0 -0.41224219335E+02  0.86203045739E+02  0.11979318177E+03  0.17280710919E+03  0.79884223935E+02 0.  0.
        -11    1    3    3    0    0  0.20729408322E+02 -0.12890307291E+02 -0.43347126665E+02  0.49747781674E+02  0.00000000000E+00 0.  1.
         12    1    3    3    0    0 -0.48642569588E+02 -0.51498797736E+02 -0.45606839176E+03  0.46153721811E+03  0.00000000000E+00 0. -1.
         11    1    5    5    0    0 -0.18727355413E+02  0.97510424714E+02  0.93098660533E+02  0.13611156219E+03  0.00000000000E+00 0. -1.
        -12    1    5    5    0    0 -0.22496863921E+02 -0.11307378975E+02  0.26694521240E+02  0.36695547003E+02  0.00000000000E+00 0.  1.
          5    1    4    4  501    0  0.84809494906E+02  0.24900241927E+02 -0.13661334593E+03  0.16276778293E+03  0.41800000000E+01 0. -1.
         -5    1    4    4    0  501 -0.15672114305E+02 -0.46714182638E+02 -0.30042233420E+02  0.57860506524E+02  0.41800000000E+01 0. -1.
</event>
<event>
11    1  0.1078607E-008  0.1547062E+03  0.7561462E-02  0.1092165E+00
         22   -1    0    0    0    0  0.00000000000E+00  0.00000000000E+00  0.18543390317E+03  0.18543390317E+03  0.00000000000E+00 0. -1.
         22   -1    0    0    0    0 -0.00000000000E+00 -0.00000000000E+00 -0.31329643178E+03  0.31329643178E+03  0.00000000000E+00 0.  1.
         24    2    1    2    0    0  0.23842158805E+02 -0.12627832968E+02 -0.18825261757E+03  0.20832448306E+03  0.85041939770E+02 0.  0.
         25    2    1    2    0    0 -0.10687232870E+03  0.76434961999E+01  0.12224034033E+02  0.16516178538E+03  0.12509544623E+03 0.  0.
        -24    2    1    2    0    0  0.83030169894E+02  0.49843367684E+01  0.48166054928E+02  0.12524406651E+03  0.80294798236E+02 0.  0.
        -11    1    3    3    0    0  0.55012294478E+02 -0.17035340234E+02 -0.12738572063E+03  0.13979870236E+03  0.00000000000E+00 0.  1.
         12    1    3    3    0    0 -0.31170135673E+02  0.44075072654E+01 -0.60866896933E+02  0.68525780700E+02  0.00000000000E+00 0. -1.
         11    1    5    5    0    0  0.80443074090E+02  0.10454327071E+00  0.67578206596E+02  0.10506147298E+03  0.00000000000E+00 0. -1.
        -12    1    5    5    0    0  0.25870958045E+01  0.48797934977E+01 -0.19412151668E+02  0.20182593532E+02  0.00000000000E+00 0.  1.
          5    1    4    4  501    0 -0.98529723214E+02  0.46332585711E+02  0.40605289809E+02  0.11628016519E+03  0.41800000000E+01 0. -1.
         -5    1    4    4    0  501 -0.83426054848E+01 -0.38689089512E+02 -0.28381255776E+02  0.48881620195E+02  0.41800000000E+01 0. -1.
</event>
<event>
11    1  0.1078607E-008  0.1625851E+03  0.7561462E-02  0.1084671E+00
         22   -1    0    0    0    0  0.00000000000E+00  0.00000000000E+00  0.10860504188E+04  0.10860504188E+04  0.00000000000E+00 0. -1.
         22   -1    0    0    0    0 -0.00000000000E+00 -0.00000000000E+00 -0.16888459759E+04  0.16888459759E+04  0.00000000000E+00 0. -1.
        -24    2    1    2    0    0  0.34300621842E+02  0.99192472435E+02 -0.16288056798E+04  0.16337604123E+04  0.71759759159E+02 0.  0.
         25    2    1    2    0    0 -0.77212996566E+02 -0.33697326958E+02  0.50144345132E+02  0.15893211174E+03  0.12509038377E+03 0.  0.
         24    2    1    2    0    0  0.42912374724E+02 -0.65495145477E+02  0.97586577755E+03  0.98220387070E+03  0.79242298333E+02 0.  0.
        -11    1    5    5    0    0 -0.27500620644E+01  0.12881088287E+01  0.46937092195E-01  0.30371481365E+01  0.00000000000E+00 0.  1.
         12    1    5    5    0    0  0.45662436789E+02 -0.66783254306E+02  0.97581884046E+03  0.97916672256E+03  0.00000000000E+00 0. -1.
         11    1    3    3    0    0 -0.45463445577E+01  0.53728231208E+02 -0.11456282337E+04  0.11468964390E+04  0.00000000000E+00 0. -1.
        -12    1    3    3    0    0  0.38846966399E+02  0.45464241227E+02 -0.48317744610E+03  0.48686397325E+03  0.00000000000E+00 0.  1.
          5    1    4    4  501    0 -0.70085000548E+02  0.34422404560E+02  0.44768618786E+02  0.90102779455E+02  0.41800000000E+01 0.  1.
         -5    1    4    4    0  501 -0.71279960179E+01 -0.68119731518E+02  0.53757263455E+01  0.68829332287E+02  0.41800000000E+01 0.  1.
</event>
<event>
11    1  0.1078607E-008  0.1336374E+03  0.7561462E-02  0.1114879E+00
         22   -1    0    0    0    0  0.00000000000E+00  0.00000000000E+00  0.58333829501E+03  0.58333829501E+03  0.00000000000E+00 0.  1.
         22   -1    0    0    0    0 -0.00000000000E+00 -0.00000000000E+00 -0.35716304539E+03  0.35716304539E+03  0.00000000000E+00 0.  1.
         24    2    1    2    0    0 -0.12591649420E+02  0.20416254955E+02 -0.32653329224E+03  0.33706753698E+03  0.80094696726E+02 0.  0.
         25    2    1    2    0    0 -0.28519702102E+02  0.12342764925E+02  0.19862316975E+03  0.23678079253E+03  0.12509301698E+03 0.  0.
        -24    2    1    2    0    0  0.41111351522E+02 -0.32759019879E+02  0.35408537211E+03  0.36665301089E+03  0.79339038574E+02 0.  0.
        -11    1    3    3    0    0 -0.39838274062E+02  0.34061595770E+02 -0.22707498818E+03  0.23304576942E+03  0.00000000000E+00 0.  1.
         12    1    3    3    0    0  0.27246624642E+02 -0.13645340815E+02 -0.99458304062E+02  0.10402176756E+03  0.00000000000E+00 0. -1.
         13    1    5    5    0    0  0.46715154113E+02 -0.50219273528E+02  0.32581625543E+03  0.33295722452E+03  0.00000000000E+00 0. -1.
        -14    1    5    5    0    0 -0.56038025917E+01  0.17460253648E+02  0.28269116680E+02  0.33695786366E+02  0.00000000000E+00 0.  1.
          5    1    4    4  501    0 -0.58927024522E+02  0.88187798075E+01  0.32877690587E+02  0.68180495999E+02  0.41800000000E+01 0.  1.
         -5    1    4    4    0  501  0.30407322420E+02  0.35239851170E+01  0.16574547917E+03  0.16860029654E+03  0.41800000000E+01 0.  1.
</event>
<event>
11    1  0.1078607E-008  0.1872747E+03  0.7561462E-02  0.1063906E+00
         22   -1    0    0    0    0  0.00000000000E+00  0.00000000000E+00  0.89510349446E+03  0.89510349446E+03  0.00000000000E+00 0. -1.
         22   -1    0    0    0    0 -0.00000000000E+00 -0.00000000000E+00 -0.60098005904E+03  0.60098005904E+03  0.00000000000E+00 0.  1.
        -24    2    1    2    0    0  0.13745539978E+03 -0.51259199846E+02 -0.49990100872E+03  0.52780314776E+03  0.84579263207E+02 0.  0.
         25    2    1    2    0    0 -0.24828512728E+01 -0.23236218374E+02 -0.23622226640E+02  0.12942754123E+03  0.12508953771E+03 0.  0.
         24    2    1    2    0    0 -0.13497254851E+03  0.74495418220E+02  0.81764667079E+03  0.83885286450E+03  0.10658749387E+03 0.  0.
        -13    1    5    5    0    0 -0.62308367700E+01 -0.19025239975E+02  0.36173867748E+02  0.41344065968E+02  0.00000000000E+00 0.  1.
         14    1    5    5    0    0 -0.12874171174E+03  0.93520658195E+02  0.78147280304E+03  0.79750879853E+03  0.00000000000E+00 0. -1.
         13    1    3    3    0    0  0.13389562772E+02 -0.36494603098E+02 -0.69483616932E+02  0.79618524656E+02  0.00000000000E+00 0. -1.
        -14    1    3    3    0    0  0.12406583701E+03 -0.14764596748E+02 -0.43041739179E+03  0.44818462310E+03  0.00000000000E+00 0.  1.
          5    1    4    4  501    0 -0.35827613704E+02  0.39560656484E+02 -0.22826569119E+02  0.58199554147E+02  0.41800000000E+01 0.  1.
         -5    1    4    4    0  501  0.33344762432E+02 -0.62796874858E+02 -0.79565752105E+00  0.71227987087E+02  0.41800000000E+01 0.  1.
</event>
<event>
11    1  0.1078607E-008  0.1265953E+03  0.7561462E-02  0.1123524E+00
         22   -1    0    0    0    0  0.00000000000E+00  0.00000000000E+00  0.10774071076E+04  0.10774071076E+04  0.00000000000E+00 0.  1.
         22   -1    0    0    0    0 -0.00000000000E+00 -0.00000000000E+00 -0.14306694381E+03  0.14306694381E+03  0.00000000000E+00 0.  1.
        -24    2    1    2    0    0  0.20969058904E+01 -0.19606901988E+02 -0.10679950260E+03  0.13460492730E+03  0.79520595306E+02 0.  0.
         25    2    1    2    0    0  0.10387999312E+01  0.37129651463E+02  0.18827406455E+03  0.22907216373E+03  0.12508893912E+03 0.  0.
         24    2    1    2    0    0 -0.31357058215E+01 -0.17522749474E+02  0.85286560188E+03  0.85679696041E+03  0.80027602112E+02 0.  0.
        -13    1    5    5    0    0  0.93683300971E+01 -0.28812218968E+02  0.81239932802E+03  0.81296406916E+03  0.00000000000E+00 0.  1.
         14    1    5    5    0    0 -0.12504035919E+02  0.11289469494E+02  0.40466273859E+02  0.43832891255E+02  0.00000000000E+00 0. -1.
         13    1    3    3    0    0  0.28641445097E+02  0.27249099166E+01 -0.79551626447E+01  0.29850328709E+02  0.00000000000E+00 0. -1.
        -14    1    3    3    0    0 -0.26544539207E+02 -0.22331811905E+02 -0.98844339956E+02  0.10475459859E+03  0.00000000000E+00 0.  1.
          5    1    4    4  501    0 -0.12557050349E+02 -0.31131132222E+02  0.65844314627E+01  0.34462356922E+02  0.41800000000E+01 0. -1.
         -5    1    4    4    0  501  0.13595850280E+02  0.68260783685E+02  0.18168963309E+03  0.19460980681E+03  0.41800000000E+01 0. -1.
</event>
<event>
11    1  0.1078607E-008  0.1736709E+03  0.7561462E-02  0.1074881E+00
         22   -1    0    0    0    0  0.00000000000E+00  0.00000000000E+00  0.13535392785E+04  0.13535392785E+04  0.00000000000E+00 0.  1.
         22   -1    0    0    0    0 -0.00000000000E+00 -0.00000000000E+00 -0.16498452958E+03  0.16498452958E+03  0.00000000000E+00 0.  1.
         24    2    1    2    0    0 -0.90295837636E+02 -0.81191310345E+02 -0.10618199181E+03  0.18111015472E+03  0.82346254236E+02 0.  0.
         25    2    1    2    0    0  0.70586778769E+02  0.87629059201E+02  0.34272041926E+03  0.38179403531E+03  0.12509218309E+03 0.  0.
        -24    2    1    2    0    0  0.19709058867E+02 -0.64377488565E+01  0.95201632143E+03  0.95561961800E+03  0.80273821585E+02 0.  0.
        -13    1    3    3    0    0 -0.71887549557E+02 -0.91168394063E+02 -0.10987363611E+03  0.15984902805E+03  0.00000000000E+00 0.  1.
         14    1    3    3    0    0 -0.18408288080E+02  0.99770837181E+01  0.36916442959E+01  0.21261126667E+02  0.00000000000E+00 0. -1.
         13    1    5    5    0    0  0.39916645197E+02 -0.31047280026E+02  0.53205374942E+03  0.53445155481E+03  0.00000000000E+00 0. -1.
        -14    1    5    5    0    0 -0.20207586329E+02  0.24609531169E+02  0.41996257200E+03  0.42116806319E+03  0.00000000000E+00 0.  1.
          5    1    4    4  501    0 -0.31441094658E+02  0.34976749355E+02  0.15177444235E+03  0.15894926605E+03  0.41800000000E+01 0. -1.
         -5    1    4    4    0  501  0.10202787343E+03  0.52652309846E+02  0.19094597691E+03  0.22284476926E+03  0.41800000000E+01 0. -1.
</event>
<event>
11    1  0.1078607E-008  0.1628582E+03  0.7561462E-02  0.1084419E+00
         22   -1    0    0    0    0  0.00000000000E+00  0.00000000000E+00  0.56814747820E+02  0.56814747820E+02  0.00000000000E+00 0.  1.
         22   -1    0    0    0    0 -0.00000000000E+00 -0.00000000000E+00 -0.71579155864E+03  0.71579155864E+03  0.00000000000E+00 0.  1.
        -24    2    1    2    0    0  0.10553745344E+02  0.29880179066E+02 -0.26350996553E+03  0.27759016430E+03  0.81330134277E+02 0.  0.
         25    2    1    2    0    0  0.55912424038E+02  0.69394890720E+02 -0.19771921753E+03  0.25036136597E+03  0.12508426987E+03 0.  0.
         24    2    1    2    0    0 -0.66466169382E+02 -0.99275069786E+02 -0.19774762777E+03  0.24465477619E+03  0.80489403492E+02 0.  0.
        -13    1    5    5    0    0 -0.63914295491E+02 -0.10393880246E+03 -0.13613910314E+03  0.18281730560E+03  0.00000000000E+00 0.  1.
         14    1    5    5    0    0 -0.25518738908E+01  0.46637326694E+01 -0.61608524623E+02  0.61837470590E+02  0.00000000000E+00 0. -1.
         11    1    3    3    0    0  0.42335780406E+02  0.28749401528E+02 -0.20154937007E+03  0.20794469208E+03  0.00000000000E+00 0. -1.
        -12    1    3    3    0    0 -0.31782035062E+02  0.11307775377E+01 -0.61960595464E+02  0.69645472220E+02  0.00000000000E+00 0.  1.
          5    1    4    4  501    0 -0.24472364234E+02 -0.21010648287E+02 -0.40571276260E+02  0.51998507767E+02  0.41800000000E+01 0. -1.
         -5    1    4    4    0  501  0.80384788272E+02  0.90405539007E+02 -0.15714794127E+03  0.19836285820E+03  0.41800000000E+01 0. -1.
</event>
<event>
11    1  0.1078607E-008  0.1464299E+03  0.7561462E-02  0.1100584E+00
         22   -1    0    0    0    0  0.00000000000E+00  0.00000000000E+00  0.29577269735E+03  0.29577269735E+03  0.00000000000E+00 0. -1.
         22   -1    0    0    0    0 -0.00000000000E+00 -0.00000000000E+00 -0.10076874099E+04  0.10076874099E+04  0.00000000000E+00 0. -1.
         24    2    1    2    0    0 -0.13834851175E+02 -0.75980251044E+02 -0.90510227989E+03  0.91107236673E+03  0.69844961910E+02 0.  0.
         25    2    1    2    0    0  0.14388381594E+02  0.54504339625E+02 -0.39836997427E+02  0.14289343746E+03  0.12511514513E+03 0.  0.
        -24    2    1    2    0    0 -0.55353041986E+00  0.21475911419E+02  0.23302456482E+03  0.24949430301E+03  0.86518427284E+02 0.  0.
        -11    1    3    3    0    0 -0.14645329505E+02  0.10254323483E+02 -0.16061711770E+03  0.16160908182E+03  0.00000000000E+00 0.  1.
         12    1    3    3    0    0  0.81047833077E+00 -0.86234574526E+02 -0.74448516219E+03  0.74946328491E+03  0.00000000000E+00 0. -1.
         11    1    5    5    0    0  0.21886033019E+02 -0.26413562565E+02  0.11818117569E+03  0.12305878683E+03  0.00000000000E+00 0. -1.
        -12    1    5    5    0    0 -0.22439563439E+02  0.47889473983E+02  0.11484338913E+03  0.12643551618E+03  0.00000000000E+00 0.  1.
          5    1    4    4  501    0 -0.54523892156E+02  0.24805900560E+02 -0.56026503541E+01  0.60307956435E+02  0.41800000000E+01 0.  1.
         -5    1    4    4    0  501  0.68912273750E+02  0.29698439065E+02 -0.34234347073E+02  0.82585481023E+02  0.41800000000E+01 0.  1.
</event>
<event>
11    1  0.1536312E-008  0.1519157E+03  0.7561462E-02  0.1094937E+00
         22   -1    0    0    0    0  0.00000000000E+00  0.00000000000E+00  0.50533929575E+03  0.50533929575E+03  0.00000000000E+00 0. -1.
         22   -1    0    0    0    0 -0.00000000000E+00 -0.00000000000E+00 -0.16499176641E+04  0.16499176641E+04  0.00000000000E+00 0.  1.
        -24    2    1    2    0    0  0.27713003951E+02 -0.37380404042E+02 -0.10932566487E+04  0.10969691124E+04  0.77238776196E+02 0.  0.
         25    2    1    2    0    0 -0.60734890471E+02 -0.42575339215E+02 -0.53794370288E+03  0.55725516491E+03  0.12509398431E+03 0.  0.
         24    2    1    2    0    0  0.33021886520E+02  0.79955743257E+02  0.48662198323E+03  0.50103268250E+03  0.82154905519E+02 0.  0.
        -11    1    5    5    0    0 -0.22701180358E+02  0.20087707399E+02  0.67338606575E+02  0.73846784044E+02  0.00000000000E+00 0.  1.
         12    1    5    5    0    0  0.55723066879E+02  0.59868035858E+02  0.41928337666E+03  0.42718589846E+03  0.00000000000E+00 0. -1.
         11    1    3    3    0    0  0.19751775721E+02 -0.12973211209E+02 -0.80743714524E+02  0.84130757089E+02  0.00000000000E+00 0. -1.
        -12    1    3    3    0    0  0.79612282297E+01 -0.24407192833E+02 -0.10125129342E+04  0.10128383553E+04  0.00000000000E+00 0.  1.
          5    1    4    4  501    0 -0.95022538407E+02 -0.63531123552E+01 -0.34559529263E+03  0.35850135778E+03  0.41800000000E+01 0.  1.
         -5    1    4    4    0  501  0.34287647936E+02 -0.36222226860E+02 -0.19234841025E+03  0.19875380713E+03  0.41800000000E+01 0.  1.
</event>
<event>
11    1  0.1078607E-008  0.1867444E+03  0.7561462E-02  0.1064314E+00
         22   -1    0    0    0    0  0.00000000000E+00  0.00000000000E+00  0.22583863191E+03  0.22583863191E+03  0.00000000000E+00 0.  1.
         22   -1    0    0    0    0 -0.00000000000E+00 -0.00000000000E+00 -0.63521879531E+03  0.63521879531E+03  0.00000000000E+00 0. -1.
         24    2    1    2    0    0 -0.62726437638E+02  0.12739782812E+03 -0.53708115660E+03  0.56174740532E+03  0.83301656768E+02 0.  0.
         25    2    1    2    0    0  0.85808338074E+01 -0.11452467418E+03  0.54544297796E+02  0.17835223367E+03  0.12507960317E+03 0.  0.
        -24    2    1    2    0    0  0.54145603830E+02 -0.12873153943E+02  0.73156695411E+02  0.12095778822E+03  0.78622006723E+02 0.  0.
        -11    1    3    3    0    0 -0.47468275662E+01  0.34381132651E+02 -0.41074446184E+02  0.53774573765E+02  0.00000000000E+00 0.  1.
         12    1    3    3    0    0 -0.57979610072E+02  0.93016695472E+02 -0.49600671042E+03  0.50797283156E+03  0.00000000000E+00 0. -1.
         11    1    5    5    0    0  0.57640746163E+02  0.95322877626E+01  0.17703132951E+02  0.61046875796E+02  0.00000000000E+00 0. -1.
        -12    1    5    5    0    0 -0.34951423324E+01 -0.22405441706E+02  0.55453562461E+02  0.59910912424E+02  0.00000000000E+00 0.  1.
          5    1    4    4  501    0  0.23074280907E+02 -0.65046128099E+02  0.91567560508E+02  0.11474106395E+03  0.41800000000E+01 0.  1.
         -5    1    4    4    0  501 -0.14493447100E+02 -0.49478546081E+02 -0.37023262713E+02  0.63611169719E+02  0.41800000000E+01 0.  1.
</event>
<event>
11    1  0.1078607E-008  0.1662725E+03  0.7561462E-02  0.1081322E+00
         22   -1    0    0    0    0  0.00000000000E+00  0.00000000000E+00  0.57023428442E+03  0.57023428442E+03  0.00000000000E+00 0. -1.
         22   -1    0    0    0    0 -0.00000000000E+00 -0.00000000000E+00 -0.36759766969E+03  0.36759766969E+03  0.00000000000E+00 0. -1.
        -24    2    1    2    0    0  0.42751077789E+02 -0.97405150481E+02 -0.30228477531E+03  0.33069054787E+03  0.81637828699E+02 0.  0.
         25    2    1    2    0    0 -0.50540724547E+02  0.15936342974E+03  0.21308796169E+03  0.29834160686E+03  0.12510062906E+03 0.  0.
         24    2    1    2    0    0  0.77896467581E+01 -0.61958279259E+02  0.29183342836E+03  0.30879979937E+03  0.79316197716E+02 0.  0.
        -11    1    5    5    0    0  0.96840079478E+01 -0.53117878626E+02  0.78507102141E+02  0.95281971674E+02  0.00000000000E+00 0.  1.
         12    1    5    5    0    0 -0.18943611896E+01 -0.88404006331E+01  0.21332632622E+03  0.21351782770E+03  0.00000000000E+00 0. -1.
         13    1    3    3    0    0  0.26033995346E+02 -0.10504400295E+03 -0.28719917196E+03  0.30691265182E+03  0.00000000000E+00 0. -1.
        -14    1    3    3    0    0  0.16717082443E+02  0.76388524699E+01 -0.15085603354E+02  0.23777896060E+02  0.00000000000E+00 0.  1.
          5    1    4    4  501    0 -0.77251251634E+02  0.73614554590E+02  0.16455216717E+03  0.19616764934E+03  0.41800000000E+01 0. -1.
         -5    1    4    4    0  501  0.26710527086E+02  0.85748875150E+02  0.48535794519E+02  0.10217395753E+03  0.41800000000E+01 0. -1.
</event>
<event>
11    1  0.1078607E-008  0.1425476E+03  0.7561462E-02  0.1104746E+00
         22   -1    0    0    0    0  0.00000000000E+00  0.00000000000E+00  0.31710640597E+03  0.31710640597E+03  0.00000000000E+00 0. -1.
         22   -1    0    0    0    0 -0.00000000000E+00 -0.00000000000E+00 -0.28695850283E+03  0.28695850283E+03  0.00000000000E+00 0.  1.
         24    2    1    2    0    0 -0.69080517188E+02  0.70395258385E+01 -0.17639795003E+03  0.20146449331E+03  0.68191146868E+02 0.  0.
         25    2    1    2    0    0  0.59731108980E+01  0.33941504396E+02 -0.38518834199E+02  0.13534937512E+03  0.12509216196E+03 0.  0.
        -24    2    1    2    0    0  0.63107406290E+02 -0.40981030235E+02  0.24506468737E+03  0.26725104038E+03  0.75527663939E+02 0.  0.
        -13    1    3    3    0    0 -0.36367718215E+02 -0.26605437422E+01 -0.15906991223E+03  0.16319597543E+03  0.00000000000E+00 0.  1.
         14    1    3    3    0    0 -0.32712798973E+02  0.97000695807E+01 -0.17328037801E+02  0.38268517877E+02  0.00000000000E+00 0. -1.
         13    1    5    5    0    0  0.68082723091E+02 -0.45597443964E+01  0.18032081015E+03  0.19279948917E+03  0.00000000000E+00 0. -1.
        -14    1    5    5    0    0 -0.49753168015E+01 -0.36421285838E+02  0.64743877220E+02  0.74451551205E+02  0.00000000000E+00 0.  1.
          5    1    4    4  501    0  0.18681852021E+02 -0.45213333120E+02 -0.96474974051E+01  0.50038022472E+02  0.41800000000E+01 0. -1.
         -5    1    4    4    0  501 -0.12708741123E+02  0.79154837516E+02 -0.28871336794E+02  0.85311352652E+02  0.41800000000E+01 0. -1.
</event>
<event>
11    1  0.1078607E-008  0.1471009E+03  0.7561462E-02  0.1099878E+00
         22   -1    0    0    0    0  0.00000000000E+00  0.00000000000E+00  0.13937437975E+04  0.13937437975E+04  0.00000000000E+00 0. -1.
         22   -1    0    0    0    0 -0.00000000000E+00 -0.00000000000E+00 -0.95080738793E+02  0.95080738793E+02  0.00000000000E+00 0. -1.
        -24    2    1    2    0    0  0.25240385863E+02 -0.28698781454E+02  0.32286394152E+02  0.93840165665E+02  0.79390605926E+02 0.  0.
         25    2    1    2    0    0 -0.99101736392E+02  0.78096566974E+01  0.41390286478E+02  0.16505362889E+03  0.12508956672E+03 0.  0.
         24    2    1    2    0    0  0.73861350529E+02  0.20889124756E+02  0.12249863781E+04  0.12299307417E+04  0.79032577782E+02 0.  0.
        -11    1    5    5    0    0  0.15292594695E+02 -0.23729115511E+02  0.16561036785E+03  0.16799919141E+03  0.00000000000E+00 0.  1.
         12    1    5    5    0    0  0.58568755834E+02  0.44618240267E+02  0.10593760102E+04  0.10619315503E+04  0.00000000000E+00 0. -1.
         13    1    3    3    0    0  0.39256000844E+02  0.42707345796E+01  0.41049467006E+02  0.56959033679E+02  0.00000000000E+00 0. -1.
        -14    1    3    3    0    0 -0.14015614981E+02 -0.32969516033E+02 -0.87630728543E+01  0.36881131986E+02  0.00000000000E+00 0.  1.
          5    1    4    4  501    0 -0.42413426152E+01  0.29702518767E+02 -0.31243073446E+02  0.43518164559E+02  0.41800000000E+01 0. -1.
         -5    1    4    4    0  501 -0.94860393777E+02 -0.21892862069E+02  0.72633359924E+02  0.12153546433E+03  0.41800000000E+01 0. -1.
</event>
<event>
11    1  0.1078607E-008  0.1411497E+03  0.7561462E-02  0.1106281E+00
         22   -1    0    0    0    0  0.00000000000E+00  0.00000000000E+00  0.10638383029E+04  0.10638383029E+04  0.00000000000E+00 0. -1.
         22   -1    0    0    0    0 -0.00000000000E+00 -0.00000000000E+00 -0.28395022355E+03  0.28395022355E+03  0.00000000000E+00 0. -1.
         24    2    1    2    0    0 -0.52242166795E+02 -0.38512680829E+02 -0.25925078891E+03  0.27954596547E+03  0.81990881713E+02 0.  0.
         25    2    1    2    0    0  0.67549907630E+02  0.66987557434E+02  0.58573587830E+03  0.60645182985E+03  0.12508788879E+03 0.  0.
        -24    2    1    2    0    0 -0.15307740835E+02 -0.28474876605E+02  0.45340298996E+03  0.46179073114E+03  0.81432564348E+02 0.  0.
        -13    1    3    3    0    0 -0.47151191513E+02  0.14652063143E+02 -0.15042393031E+03  0.15832017125E+03  0.00000000000E+00 0.  1.
         14    1    3    3    0    0 -0.50909752821E+01 -0.53164743973E+02 -0.10882685860E+03  0.12122579422E+03  0.00000000000E+00 0. -1.
         11    1    5    5    0    0 -0.38608967743E+02 -0.30314943523E+02  0.40580681899E+03  0.40876499670E+03  0.00000000000E+00 0. -1.
        -12    1    5    5    0    0  0.23301226908E+02  0.18400669181E+01  0.47596170969E+02  0.53025734437E+02  0.00000000000E+00 0.  1.
          5    1    4    4  501    0 -0.12110201450E+02  0.74358519247E+02  0.32728753844E+03  0.33587267168E+03  0.41800000000E+01 0. -1.
         -5    1    4    4    0  501  0.79660109080E+02 -0.73709618128E+01  0.25844833986E+03  0.27057915817E+03  0.41800000000E+01 0. -1.
</event>
<event>
11    1  0.1078607E-008  0.1833914E+03  0.7561462E-02  0.1066932E+00
         22   -1    0    0    0    0  0.00000000000E+00  0.00000000000E+00  0.95144618137E+03  0.95144618137E+03  0.00000000000E+00 0. -1.
         22   -1    0    0    0    0 -0.00000000000E+00 -0.00000000000E+00 -0.60366777328E+03  0.60366777328E+03  0.00000000000E+00 0.  1.
         24    2    1    2    0    0 -0.12130005021E+02 -0.63864360978E+02 -0.54336247803E+03  0.55306333198E+03  0.80065429672E+02 0.  0.
         25    2    1    2    0    0  0.10515481840E+03  0.14936868596E+03  0.21154920336E+03  0.30621719063E+03  0.12508941689E+03 0.  0.
        -24    2    1    2    0    0 -0.93024813380E+02 -0.85504324985E+02  0.67959168276E+03  0.69583343204E+03  0.79841745839E+02 0.  0.
        -13    1    3    3    0    0  0.17398446752E+02 -0.33759549823E+01 -0.30117376086E+03  0.30169477498E+03  0.00000000000E+00 0.  1.
         14    1    3    3    0    0 -0.29528451773E+02 -0.60488405996E+02 -0.24218871717E+03  0.25136855700E+03  0.00000000000E+00 0. -1.
         11    1    5    5    0    0 -0.20870078301E+02  0.11716008534E+01  0.27571175041E+03  0.27650298756E+03  0.00000000000E+00 0. -1.
        -12    1    5    5    0    0 -0.72154735080E+02 -0.86675925839E+02  0.40387993235E+03  0.41933044448E+03  0.00000000000E+00 0.  1.
          5    1    4    4  501    0  0.53914867383E+02  0.43114155082E+02  0.16575916753E+03  0.17960851125E+03  0.41800000000E+01 0. -1.
         -5    1    4    4    0  501  0.51239951018E+02  0.10625453088E+03  0.45790035824E+02  0.12660867938E+03  0.41800000000E+01 0. -1.
</event>
<event>
11    1  0.1078607E-008  0.1314959E+03  0.7561462E-02  0.1117445E+00
         22   -1    0    0    0    0  0.00000000000E+00  0.00000000000E+00  0.28312920883E+03  0.28312920883E+03  0.00000000000E+00 0. -1.
         22   -1    0    0    0    0 -0.00000000000E+00 -0.00000000000E+00 -0.21016351335E+03  0.21016351335E+03  0.00000000000E+00 0.  1.
        -24    2    1    2    0    0  0.45037242204E+02 -0.70832375139E+01 -0.97406062065E+02  0.13451389089E+03  0.80793071959E+02 0.  0.
         25    2    1    2    0    0 -0.28719041244E+02 -0.11937233956E+02 -0.37874062702E+02  0.13434679619E+03  0.12508931264E+03 0.  0.
         24    2    1    2    0    0 -0.16318200961E+02  0.19020471469E+02  0.20824582025E+03  0.22443203509E+03  0.79845818348E+02 0.  0.
        -11    1    5    5    0    0 -0.25235328232E+02  0.13444079409E+02  0.17767885166E+02  0.33663968949E+02  0.00000000000E+00 0.  1.
         12    1    5    5    0    0  0.89171272710E+01  0.55763920602E+01  0.19047793508E+03  0.19076806614E+03  0.00000000000E+00 0. -1.
         13    1    3    3    0    0  0.28649673417E+02  0.88538771279E+01  0.42796547377E+01  0.30290433668E+02  0.00000000000E+00 0. -1.
        -14    1    3    3    0    0  0.16387568787E+02 -0.15937114642E+02 -0.10168571680E+03  0.10422345722E+03  0.00000000000E+00 0.  1.
          5    1    4    4  501    0 -0.41415159101E+00 -0.66666601469E+02 -0.24560460374E+02  0.71170892131E+02  0.41800000000E+01 0. -1.
         -5    1    4    4    0  501 -0.28304889653E+02  0.54729367514E+02 -0.13313602328E+02  0.63175904059E+02  0.41800000000E+01 0. -1.
</event>
<event>
11    1  0.1078607E-008  0.1864875E+03  0.7561462E-02  0.1064513E+00
         22   -1    0    0    0    0  0.00000000000E+00  0.00000000000E+00  0.71734328514E+03  0.71734328514E+03  0.00000000000E+00 0. -1.
         22   -1    0    0    0    0 -0.00000000000E+00 -0.00000000000E+00 -0.18807342103E+03  0.18807342103E+03  0.00000000000E+00 0.  1.
         24    2    1    2    0    0  0.56390274567E+02 -0.12489616002E+03 -0.90123671278E+02  0.18223245019E+03  0.79419619269E+02 0.  0.
         25    2    1    2    0    0 -0.87437911203E+02  0.11751158224E+03  0.14902929068E+03  0.24353866886E+03  0.12508794297E+03 0.  0.
        -24    2    1    2    0    0  0.31047636635E+02  0.73845777810E+01  0.47036424471E+03  0.47964558711E+03  0.88311260939E+02 0.  0.
        -11    1    3    3    0    0  0.74488305255E+02 -0.11547949136E+03 -0.83423321996E+02  0.16075904702E+03  0.00000000000E+00 0.  1.
         12    1    3    3    0    0 -0.18098030688E+02 -0.94166686577E+01 -0.67003492822E+01  0.21473403174E+02  0.00000000000E+00 0. -1.
         13    1    5    5    0    0  0.46548956571E+01  0.43042827585E+02  0.31866808487E+03  0.32159555559E+03  0.00000000000E+00 0. -1.
        -14    1    5    5    0    0  0.26392740978E+02 -0.35658249804E+02  0.15169615984E+03  0.15805003153E+03  0.00000000000E+00 0.  1.
          5    1    4    4  501    0  0.11768973967E+02  0.35644349567E+01  0.73384858749E+02  0.74525323471E+02  0.41800000000E+01 0. -1.
         -5    1    4    4    0  501 -0.99206885169E+02  0.11394714728E+03  0.75644431929E+02  0.16901334539E+03  0.41800000000E+01 0. -1.
</event>
<event>
11    1  0.1078607E-008  0.1714500E+03  0.7561462E-02  0.1076777E+00
         22   -1    0    0    0    0  0.00000000000E+00  0.00000000000E+00  0.26534500247E+03  0.26534500247E+03  0.00000000000E+00 0. -1.
         22   -1    0    0    0    0 -0.00000000000E+00 -0.00000000000E+00 -0.18375329525E+04  0.18375329525E+04  0.00000000000E+00 0. -1.
        -24    2    1    2    0    0 -0.11274733944E+03 -0.44829888304E+02 -0.17150584261E+04  0.17211328286E+04  0.78429123225E+02 0.  0.
         25    2    1    2    0    0  0.52000899713E+02  0.25765165344E+02 -0.63192695777E+02  0.15168267899E+03  0.12508549472E+03 0.  0.
         24    2    1    2    0    0  0.60746439732E+02  0.19064722960E+02  0.20606317180E+03  0.23006244740E+03  0.80081866425E+02 0.  0.
        -11    1    5    5    0    0  0.14752374540E+02  0.31007331851E+02  0.23984008353E+02  0.41884601463E+02  0.00000000000E+00 0.  1.
         12    1    5    5    0    0  0.45994065192E+02 -0.11942608891E+02  0.18207916345E+03  0.18817784594E+03  0.00000000000E+00 0. -1.
         13    1    3    3    0    0 -0.11828789569E+03 -0.56238543662E+02 -0.15032963806E+04  0.15089913214E+04  0.00000000000E+00 0. -1.
        -14    1    3    3    0    0  0.55405562472E+01  0.11408655358E+02 -0.21176204543E+03  0.21214150717E+03  0.00000000000E+00 0.  1.
          5    1    4    4  501    0  0.34313914299E+02 -0.36263031329E+02 -0.70658274096E+02  0.86617066759E+02  0.41800000000E+01 0.  1.
         -5    1    4    4    0  501  0.17686985414E+02  0.62028196673E+02  0.74655783186E+01  0.65065612233E+02  0.41800000000E+01 0.  1.
</event>
<event>
11    1  0.1078607E-008  0.1526883E+03  0.7561462E-02  0.1094163E+00
         22   -1    0    0    0    0  0.00000000000E+00  0.00000000000E+00  0.21296803000E+03  0.21296803000E+03  0.00000000000E+00 0. -1.
         22   -1    0    0    0    0 -0.00000000000E+00 -0.00000000000E+00 -0.20616635852E+04  0.20616635852E+04  0.00000000000E+00 0. -1.
        -24    2    1    2    0    0 -0.48881826204E+01  0.86117896536E+02 -0.17714403272E+04  0.17753875840E+04  0.80994160812E+02 0.  0.
         25    2    1    2    0    0  0.16619727290E+02 -0.10231918590E+03 -0.25537612188E+03  0.30267103350E+03  0.12508940706E+03 0.  0.
         24    2    1    2    0    0 -0.11731544670E+02  0.16201289362E+02  0.17812089392E+03  0.19657299767E+03  0.80707989959E+02 0.  0.
        -11    1    5    5    0    0 -0.21503482173E+02  0.73930358395E+01  0.54254457391E+01  0.23377172326E+02  0.00000000000E+00 0.  1.
         12    1    5    5    0    0  0.97719375034E+01  0.88082535229E+01  0.17269544819E+03  0.17319582534E+03  0.00000000000E+00 0. -1.
         11    1    3    3    0    0  0.20817669813E+02  0.43520051090E+02 -0.13737970350E+04  0.13746438315E+04  0.00000000000E+00 0. -1.
        -12    1    3    3    0    0 -0.25705852433E+02  0.42597845446E+02 -0.39764329225E+03  0.40074375249E+03  0.00000000000E+00 0.  1.
          5    1    4    4  501    0 -0.53452894990E+01 -0.88576523410E+02 -0.63963841258E+02  0.10946788574E+03  0.41800000000E+01 0.  1.
         -5    1    4    4    0  501  0.21965016789E+02 -0.13742662488E+02 -0.19141228062E+03  0.19320314777E+03  0.41800000000E+01 0.  1.
</event>
<event>
11    1  0.1078607E-008  0.1287149E+03  0.7561462E-02  0.1120858E+00
         22   -1    0    0    0    0  0.00000000000E+00  0.00000000000E+00  0.39265864135E+03  0.39265864135E+03  0.00000000000E+00 0.  1.
         22   -1    0    0    0    0 -0.00000000000E+00 -0.00000000000E+00 -0.32076858985E+03  0.32076858985E+03  0.00000000000E+00 0. -1.
        -24    2    1    2    0    0 -0.38859365916E+02 -0.10392885391E+00 -0.21772917095E+03  0.23514650462E+03  0.79861289948E+02 0.  0.
         25    2    1    2    0    0  0.57264516301E+02  0.22070176375E+02 -0.33313571271E+02  0.14326285465E+03  0.12509250169E+03 0.  0.
         24    2    1    2    0    0 -0.18405150385E+02 -0.21966247521E+02  0.32293279372E+03  0.33501787193E+03  0.84440035905E+02 0.  0.
        -11    1    5    5    0    0 -0.34397732644E+02 -0.19811443796E+02  0.31414528480E+03  0.31664326501E+03  0.00000000000E+00 0.  1.
         12    1    5    5    0    0  0.15992582259E+02 -0.21548037244E+01  0.87875089196E+01  0.18374606919E+02  0.00000000000E+00 0. -1.
         11    1    3    3    0    0 -0.21285952735E+02 -0.31545864640E+02 -0.17579233815E+03  0.17986433641E+03  0.00000000000E+00 0. -1.
        -12    1    3    3    0    0 -0.17573413181E+02  0.31441935786E+02 -0.41936832797E+02  0.55282168208E+02  0.00000000000E+00 0.  1.
          5    1    4    4  501    0  0.43557713018E+02 -0.42498543407E+02  0.13192669877E+02  0.62409290122E+02  0.41800000000E+01 0.  1.
         -5    1    4    4    0  501  0.13706803283E+02  0.64568719782E+02 -0.46506241148E+02  0.80853564524E+02  0.41800000000E+01 0.  1.
</event>
<event>
11    1  0.1078607E-008  0.1391091E+03  0.7561462E-02  0.1108557E+00
         22   -1    0    0    0    0  0.00000000000E+00  0.00000000000E+00  0.26017090652E+03  0.26017090652E+03  0.00000000000E+00 0. -1.
         22   -1    0    0    0    0 -0.00000000000E+00 -0.00000000000E+00 -0.39092580499E+04  0.39092580499E+04  0.00000000000E+00 0. -1.
         24    2    1    2    0    0  0.60143643459E+02  0.10244249020E+01 -0.38321236849E+04  0.38335597366E+04  0.85965169693E+02 0.  0.
         25    2    1    2    0    0 -0.38730842920E+01  0.41636878569E+02  0.11745977210E+02  0.13241645056E+03  0.12509003941E+03 0.  0.
        -24    2    1    2    0    0 -0.56270559167E+02 -0.42661303471E+02  0.17129056430E+03  0.20345276927E+03  0.84060747441E+02 0.  0.
        -13    1    3    3    0    0  0.55844294005E+02  0.19341879987E+02 -0.12770284952E+04  0.12783952719E+04  0.00000000000E+00 0.  1.
         14    1    3    3    0    0  0.42993494548E+01 -0.18317455085E+02 -0.25550951897E+04  0.25551644648E+04  0.00000000000E+00 0. -1.
         11    1    5    5    0    0 -0.22013807600E+02 -0.26317463741E+02  0.16030989940E+03  0.16394047844E+03  0.00000000000E+00 0. -1.
        -12    1    5    5    0    0 -0.34256751567E+02 -0.16343839731E+02  0.10980664897E+02  0.39512290830E+02  0.00000000000E+00 0.  1.
          5    1    4    4  501    0  0.55494196165E+02 -0.38287975951E+01 -0.38515149955E+01  0.55915758662E+02  0.41800000000E+01 0. -1.
         -5    1    4    4    0  501 -0.59367280457E+02  0.45465676165E+02  0.15597492205E+02  0.76500691899E+02  0.41800000000E+01 0. -1.
</event>
<event>
11    1  0.1078607E-008  0.1285183E+03  0.7561462E-02  0.1121103E+00
         22   -1    0    0    0    0  0.00000000000E+00  0.00000000000E+00  0.36224608418E+03  0.36224608418E+03  0.00000000000E+00 0. -1.
         22   -1    0    0    0    0 -0.00000000000E+00 -0.00000000000E+00 -0.52736681651E+03  0.52736681651E+03  0.00000000000E+00 0. -1.
        -24    2    1    2    0    0  0.10518269815E+02  0.28150802668E+02 -0.45924922731E+03  0.46733226409E+03  0.81157196711E+02 0.  0.
         25    2    1    2    0    0 -0.32304949348E+02 -0.80292528735E+01  0.15186069174E+02  0.13032888888E+03  0.12508766496E+03 0.  0.
         24    2    1    2    0    0  0.21786679534E+02 -0.20121549795E+02  0.27894242581E+03  0.29195174772E+03  0.80916067076E+02 0.  0.
        -13    1    5    5    0    0 -0.19934218449E+02 -0.45603640385E+01  0.18016889993E+02  0.27253959535E+02  0.00000000000E+00 0.  1.
         14    1    5    5    0    0  0.41720897982E+02 -0.15561185756E+02  0.26092553582E+03  0.26469778819E+03  0.00000000000E+00 0. -1.
         13    1    3    3    0    0  0.26901241132E+02  0.49623547695E+02 -0.36311211811E+03  0.36747324199E+03  0.00000000000E+00 0. -1.
        -14    1    3    3    0    0 -0.16382971318E+02 -0.21472745027E+02 -0.96137109200E+02  0.99859022094E+02  0.00000000000E+00 0.  1.
          5    1    4    4  501    0 -0.78870810335E+02 -0.18163276702E+02  0.15380785691E+02  0.82489698217E+02  0.41800000000E+01 0.  1.
         -5    1    4    4    0  501  0.46565860987E+02  0.10134023828E+02 -0.19471651709E+00  0.47839190659E+02  0.41800000000E+01 0.  1.
</event>
<event>
11    1  0.1078607E-008  0.1726197E+03  0.7561462E-02  0.1075774E+00
         22   -1    0    0    0    0  0.00000000000E+00  0.00000000000E+00  0.29803623857E+04  0.29803623857E+04  0.00000000000E+00 0. -1.
         22   -1    0    0    0    0 -0.00000000000E+00 -0.00000000000E+00 -0.27427720399E+03  0.27427720399E+03  0.00000000000E+00 0.  1.
        -24    2    1    2    0    0  0.18419412950E+01 -0.10328709001E+02 -0.21440002372E+03  0.22949265876E+03  0.81175336600E+02 0.  0.
         25    2    1    2    0    0  0.29827276513E+02  0.12468089279E+03  0.10817342527E+03  0.20923002189E+03  0.12506286689E+03 0.  0.
         24    2    1    2    0    0 -0.31669217808E+02 -0.11435218379E+03  0.28123117802E+04  0.28159169091E+04  0.78810712871E+02 0.  0.
        -11    1    5    5    0    0 -0.29524693055E+02 -0.25022348483E+02  0.38030869313E+03  0.38227284430E+03  0.00000000000E+00 0.  1.
         12    1    5    5    0    0 -0.21445247532E+01 -0.89329835304E+02  0.24320030871E+04  0.24336440648E+04  0.00000000000E+00 0. -1.
         11    1    3    3    0    0 -0.18362287125E+01  0.33364346892E+02 -0.56733100871E+02  0.65842206174E+02  0.00000000000E+00 0. -1.
        -12    1    3    3    0    0  0.36781700076E+01 -0.43693055893E+02 -0.15766692285E+03  0.16365045258E+03  0.00000000000E+00 0.  1.
          5    1    4    4  501    0 -0.35598922079E+02  0.63985918216E+02  0.93273241238E+02  0.11865433374E+03  0.41800000000E+01 0. -1.
         -5    1    4    4    0  501  0.65426198592E+02  0.60694974572E+02  0.14900184034E+02  0.90575688155E+02  0.41800000000E+01 0. -1.
</event>
<event>
11    1  0.1078607E-008  0.2575526E+03  0.7561462E-02  0.1019951E+00
         22   -1    0    0    0    0  0.00000000000E+00  0.00000000000E+00  0.11245979021E+04  0.11245979021E+04  0.00000000000E+00 0. -1.
         22   -1    0    0    0    0 -0.00000000000E+00 -0.00000000000E+00 -0.39270473718E+03  0.39270473718E+03  0.00000000000E+00 0. -1.
         24    2    1    2    0    0 -0.73156430112E+02  0.21073802540E+03 -0.26656848087E+03  0.35479966531E+03  0.71145406705E+02 0.  0.
         25    2    1    2    0    0  0.72285323140E+02 -0.22412289012E+03  0.14018359672E+03  0.30125591843E+03  0.12508976689E+03 0.  0.
        -24    2    1    2    0    0  0.87110697191E+00  0.13384864720E+02  0.85827804903E+03  0.86124705550E+03  0.70180964161E+02 0.  0.
        -11    1    3    3    0    0 -0.14794388743E+02  0.14127138214E+03 -0.18103679294E+03  0.23011040339E+03  0.00000000000E+00 0.  1.
         12    1    3    3    0    0 -0.58362041368E+02  0.69466643257E+02 -0.85531687937E+02  0.12468926192E+03  0.00000000000E+00 0. -1.
         11    1    5    5    0    0 -0.64139456524E+01 -0.27067476179E+02  0.46378967511E+03  0.46462312652E+03  0.00000000000E+00 0. -1.
        -12    1    5    5    0    0  0.72850526243E+01  0.40452340899E+02  0.39448837392E+03  0.39662392898E+03  0.00000000000E+00 0.  1.
          5    1    4    4  501    0  0.43404275290E+02 -0.60354825713E+02  0.10900995450E+03  0.13201241866E+03  0.41800000000E+01 0.  1.
         -5    1    4    4    0  501  0.28881047849E+02 -0.16376806440E+03  0.31173642223E+02  0.16924349977E+03  0.41800000000E+01 0.  1.
</event>
<event>
11    1  0.1078607E-008  0.1395692E+03  0.7561462E-02  0.1108040E+00
         22   -1    0    0    0    0  0.00000000000E+00  0.00000000000E+00  0.18994926623E+03  0.18994926623E+03  0.00000000000E+00 0.  1.
         22   -1    0    0    0    0 -0.00000000000E+00 -0.00000000000E+00 -0.74494085686E+03  0.74494085686E+03  0.00000000000E+00 0. -1.
         24    2    1    2    0    0  0.47242748977E+02 -0.34853890555E+02 -0.38417629276E+03  0.39710668333E+03  0.81582001762E+02 0.  0.
         25    2    1    2    0    0 -0.65160261288E+02  0.27214661532E+02 -0.32858868063E+03  0.35861715450E+03  0.12509694244E+03 0.  0.
        -24    2    1    2    0    0  0.17917512311E+02  0.76392290226E+01  0.15777338276E+03  0.17916628526E+03  0.82636084120E+02 0.  0.
        -13    1    3    3    0    0  0.22231495992E+01 -0.22901834571E+02 -0.21628388904E+02  0.31578847785E+02  0.00000000000E+00 0.  1.
         14    1    3    3    0    0  0.45019599377E+02 -0.11952055984E+02 -0.36254790386E+03  0.36552783555E+03  0.00000000000E+00 0. -1.
         11    1    5    5    0    0 -0.30980856535E+02  0.63048521783E+00  0.34550335282E+02  0.46410523067E+02  0.00000000000E+00 0. -1.
        -12    1    5    5    0    0  0.48898368846E+02  0.70087438047E+01  0.12322304748E+03  0.13275576219E+03  0.00000000000E+00 0.  1.
          5    1    4    4  501    0  0.17119640965E+01  0.53323491462E+02 -0.59229459788E+02  0.79824350104E+02  0.41800000000E+01 0. -1.
         -5    1    4    4    0  501 -0.66872225384E+02 -0.26108829930E+02 -0.26935922084E+03  0.27879280439E+03  0.41800000000E+01 0. -1.
</event>
<event>
11    1  0.1078607E-008  0.1655323E+03  0.7561462E-02  0.1081986E+00
         22   -1    0    0    0    0  0.00000000000E+00  0.00000000000E+00  0.10848833146E+03  0.10848833146E+03  0.00000000000E+00 0. -1.
         22   -1    0    0    0    0 -0.00000000000E+00 -0.00000000000E+00 -0.12107416899E+04  0.12107416899E+04  0.00000000000E+00 0. -1.
         24    2    1    2    0    0 -0.16001540295E+02 -0.88573447415E+01 -0.72838080414E+03  0.73297153920E+03  0.79838459350E+02 0.  0.
         25    2    1    2    0    0  0.12151310838E+03  0.24136858409E+02 -0.41135659861E+03  0.44744655884E+03  0.12508456483E+03 0.  0.
        -24    2    1    2    0    0 -0.10551156808E+03 -0.15279513667E+02  0.37484044287E+02  0.13881192334E+03  0.80607331860E+02 0.  0.
        -11    1    3    3    0    0 -0.38045427852E+02 -0.94835292315E+01 -0.18339065363E+03  0.18753539332E+03  0.00000000000E+00 0.  1.
         12    1    3    3    0    0  0.22043887557E+02  0.62618449002E+00 -0.54499015050E+03  0.54543614588E+03  0.00000000000E+00 0. -1.
         11    1    5    5    0    0 -0.12657813804E+02 -0.29048713213E+01  0.43055683365E+02  0.44971662163E+02  0.00000000000E+00 0. -1.
        -12    1    5    5    0    0 -0.92853754278E+02 -0.12374642346E+02 -0.55716390777E+01  0.93840261182E+02  0.00000000000E+00 0.  1.
          5    1    4    4  501    0  0.13701606508E+03  0.42500671516E+02 -0.38792688794E+03  0.41362356311E+03  0.41800000000E+01 0. -1.
         -5    1    4    4    0  501 -0.15502956703E+02 -0.18363813107E+02 -0.23429710664E+02  0.33822995730E+02  0.41800000000E+01 0. -1.
</event>
<event>
11    1  0.1078607E-008  0.1400561E+03  0.7561462E-02  0.1107496E+00
         22   -1    0    0    0    0  0.00000000000E+00  0.00000000000E+00  0.21060260034E+03  0.21060260034E+03  0.00000000000E+00 0. -1.
         22   -1    0    0    0    0 -0.00000000000E+00 -0.00000000000E+00 -0.11779487273E+04  0.11779487273E+04  0.00000000000E+00 0. -1.
         24    2    1    2    0    0  0.14087051233E+02  0.22964157782E+02 -0.10478463076E+04  0.10512845855E+04  0.80570452229E+02 0.  0.
         25    2    1    2    0    0 -0.12170464412E+00  0.41765760549E+02 -0.73176613296E+02  0.15082341391E+03  0.12509393224E+03 0.  0.
        -24    2    1    2    0    0 -0.13965346589E+02 -0.64729918331E+02  0.15367679396E+03  0.18644332822E+03  0.82216570131E+02 0.  0.
        -13    1    3    3    0    0  0.10656710146E+01 -0.20913073640E+02 -0.92417153400E+02  0.94759815040E+02  0.00000000000E+00 0.  1.
         14    1    3    3    0    0  0.13021380219E+02  0.43877231422E+02 -0.95542915423E+03  0.95652477047E+03  0.00000000000E+00 0. -1.
         13    1    5    5    0    0  0.11520098592E+02 -0.58976231837E+02  0.14796214631E+03  0.15969879566E+03  0.00000000000E+00 0. -1.
        -14    1    5    5    0    0 -0.25485445182E+02 -0.57536864942E+01  0.57146476492E+01  0.26744532565E+02  0.00000000000E+00 0.  1.
          5    1    4    4  501    0 -0.21043023586E+02  0.63809152979E+02  0.43382199364E+01  0.67458946018E+02  0.41800000000E+01 0.  1.
         -5    1    4    4    0  501  0.20921318942E+02 -0.22043392430E+02 -0.77514833232E+02  0.83364467893E+02  0.41800000000E+01 0.  1.
</event>
<event>
11    1  0.1078607E-008  0.1376847E+03  0.7561462E-02  0.1110172E+00
         22   -1    0    0    0    0  0.00000000000E+00  0.00000000000E+00  0.19003858439E+04  0.19003858439E+04  0.00000000000E+00 0.  1.
         22   -1    0    0    0    0 -0.00000000000E+00 -0.00000000000E+00 -0.22966726654E+03  0.22966726654E+03  0.00000000000E+00 0.  1.
         24    2    1    2    0    0  0.13179333348E+02  0.57664890681E+02 -0.18657761099E+03  0.21136307206E+03  0.79775991775E+02 0.  0.
         25    2    1    2    0    0 -0.10807670097E+02 -0.37091866899E+02  0.11458887256E+03  0.17398651139E+03  0.12509230234E+03 0.  0.
        -24    2    1    2    0    0 -0.23716632510E+01 -0.20573023782E+02  0.17427073158E+04  0.17447035270E+04  0.80825333248E+02 0.  0.
        -11    1    3    3    0    0 -0.26353200789E+01  0.47083186442E+02 -0.18646384947E+03  0.19233444444E+03  0.00000000000E+00 0.  1.
         12    1    3    3    0    0  0.15814653427E+02  0.10581704238E+02 -0.11376152024E+00  0.19028627625E+02  0.00000000000E+00 0. -1.
         11    1    5    5    0    0 -0.19629026505E+02  0.21825129455E+02  0.34489372751E+03  0.34614060471E+03  0.00000000000E+00 0. -1.
        -12    1    5    5    0    0  0.17257363254E+02 -0.42398153237E+02  0.13978135883E+04  0.13985629223E+04  0.00000000000E+00 0.  1.
          5    1    4    4  501    0  0.25367267934E+02 -0.56700349638E+02  0.12038507312E+02  0.63409983361E+02  0.41800000000E+01 0. -1.
         -5    1    4    4    0  501 -0.36174938031E+02  0.19608482739E+02  0.10255036525E+03  0.11057652803E+03  0.41800000000E+01 0. -1.
</event>
<event>
11    1  0.1078607E-008  0.1508815E+03  0.7561462E-02  0.1095981E+00
         22   -1    0    0    0    0  0.00000000000E+00  0.00000000000E+00  0.15689446705E+03  0.15689446705E+03  0.00000000000E+00 0.  1.
         22   -1    0    0    0    0 -0.00000000000E+00 -0.00000000000E+00 -0.98382514960E+03  0.98382514960E+03  0.00000000000E+00 0.  1.
         24    2    1    2    0    0 -0.82609281718E+02  0.19598746364E+02 -0.87755379037E+03  0.88522321472E+03  0.79442309936E+02 0.  0.
         25    2    1    2    0    0  0.70643557192E+02 -0.23652959371E+02  0.64038158429E+01  0.14572130646E+03  0.12507484015E+03 0.  0.
        -24    2    1    2    0    0  0.11965724526E+02  0.40542130069E+01  0.44219291970E+02  0.10977509547E+03  0.99677533060E+02 0.  0.
        -13    1    3    3    0    0 -0.60657698823E+02  0.14146575687E+01 -0.80481043041E+03  0.80709428606E+03  0.00000000000E+00 0.  1.
         14    1    3    3    0    0 -0.21951582895E+02  0.18184088795E+02 -0.72743359954E+02  0.78128928664E+02  0.00000000000E+00 0. -1.
         11    1    5    5    0    0 -0.16769634008E+01 -0.20100913040E+02 -0.26792710299E+02  0.33536670026E+02  0.00000000000E+00 0. -1.
        -12    1    5    5    0    0  0.13642687927E+02  0.24155126046E+02  0.71012002269E+02  0.76238425446E+02  0.00000000000E+00 0.  1.
          5    1    4    4  501    0  0.54025946843E+02 -0.65923981879E+02 -0.26640060240E+02  0.89397648340E+02  0.41800000000E+01 0. -1.
         -5    1    4    4    0  501  0.16617610349E+02  0.42271022508E+02  0.33043876083E+02  0.56323658121E+02  0.41800000000E+01 0. -1.
</event>
<event>
11    1  0.1078607E-008  0.1568421E+03  0.7561462E-02  0.1090086E+00
         22   -1    0    0    0    0  0.00000000000E+00  0.00000000000E+00  0.22818118078E+04  0.22818118078E+04  0.00000000000E+00 0. -1.
         22   -1    0    0    0    0 -0.00000000000E+00 -0.00000000000E+00 -0.79458199451E+03  0.79458199451E+03  0.00000000000E+00 0. -1.
         24    2    1    2    0    0 -0.25068609421E+01 -0.69024860175E+02 -0.65955003687E+03  0.66794613238E+03  0.79844028901E+02 0.  0.
         25    2    1    2    0    0 -0.88636750175E+02  0.93602059770E+02 -0.66593805487E+02  0.19157422463E+03  0.12509248394E+03 0.  0.
        -24    2    1    2    0    0  0.91143611118E+02 -0.24577199595E+02  0.22133736557E+04  0.22168734453E+04  0.81201824698E+02 0.  0.
        -11    1    3    3    0    0  0.22016233283E+02 -0.14536510891E+00 -0.59222215816E+02  0.63182327475E+02  0.00000000000E+00 0.  1.
         12    1    3    3    0    0 -0.24523094225E+02 -0.68879495066E+02 -0.60032782105E+03  0.60476380490E+03  0.00000000000E+00 0. -1.
         11    1    5    5    0    0  0.95044022170E+02  0.23984210091E+00  0.14660314472E+04  0.14691091272E+04  0.00000000000E+00 0. -1.
        -12    1    5    5    0    0 -0.39004110524E+01 -0.24817041696E+02  0.74734220850E+03  0.74776431807E+03  0.00000000000E+00 0.  1.
          5    1    4    4  501    0 -0.23419477160E+02  0.89804395850E+02  0.68954026155E+01  0.93157503196E+02  0.41800000000E+01 0.  1.
         -5    1    4    4    0  501 -0.65217273015E+02  0.37976639203E+01 -0.73489208103E+02  0.98416721437E+02  0.41800000000E+01 0.  1.
</event>
<event>
11    1  0.1078607E-008  0.2047669E+03  0.7561462E-02  0.1051203E+00
         22   -1    0    0    0    0  0.00000000000E+00  0.00000000000E+00  0.16785795467E+04  0.16785795467E+04  0.00000000000E+00 0. -1.
         22   -1    0    0    0    0 -0.00000000000E+00 -0.00000000000E+00 -0.16403903305E+04  0.16403903305E+04  0.00000000000E+00 0.  1.
        -24    2    1    2    0    0  0.12513238113E+02 -0.27953644213E+02 -0.13372289695E+04  0.13399519988E+04  0.79699779735E+02 0.  0.
         25    2    1    2    0    0  0.14670938108E+03 -0.40577518401E+01 -0.26548592717E+03  0.32813262633E+03  0.12509250615E+03 0.  0.
         24    2    1    2    0    0 -0.15922261919E+03  0.32011396053E+02  0.16409041129E+04  0.16508852520E+04  0.80493699043E+02 0.  0.
        -11    1    5    5    0    0 -0.55291742007E+02 -0.22407249094E+02  0.73482895118E+03  0.73724680334E+03  0.00000000000E+00 0.  1.
         12    1    5    5    0    0 -0.10393087718E+03  0.54418645147E+02  0.90607516169E+03  0.91363844863E+03  0.00000000000E+00 0. -1.
         13    1    3    3    0    0 -0.10565409427E+01 -0.18062718626E+02 -0.61349006182E+02  0.63961540338E+02  0.00000000000E+00 0. -1.
        -14    1    3    3    0    0  0.13569779056E+02 -0.98909255873E+01 -0.12758799633E+04  0.12759904585E+04  0.00000000000E+00 0.  1.
          5    1    4    4  501    0  0.39238957084E+02  0.23562333117E+02 -0.65926876266E+01  0.46430757318E+02  0.41800000000E+01 0. -1.
         -5    1    4    4    0  501  0.10747042399E+03 -0.27620084957E+02 -0.25889323954E+03  0.28170186901E+03  0.41800000000E+01 0. -1.
</event>
<event>
11    1  0.1078607E-008  0.1290411E+03  0.7561462E-02  0.1120453E+00
         22   -1    0    0    0    0  0.00000000000E+00  0.00000000000E+00  0.52612678773E+03  0.52612678773E+03  0.00000000000E+00 0.  1.
         22   -1    0    0    0    0 -0.00000000000E+00 -0.00000000000E+00 -0.26979260238E+04  0.26979260238E+04  0.00000000000E+00 0. -1.
        -24    2    1    2    0    0 -0.17626547898E+02  0.94179641048E+01 -0.17235625518E+04  0.17256205166E+04  0.81846834199E+02 0.  0.
         25    2    1    2    0    0 -0.95196525962E+01  0.70713954963E+01 -0.96572721907E+03  0.97386707103E+03  0.12508949580E+03 0.  0.
         24    2    1    2    0    0  0.27146200494E+02 -0.16489359601E+02  0.51749053485E+03  0.52456522381E+03  0.79770954589E+02 0.  0.
        -13    1    5    5    0    0  0.49201853810E+02 -0.17257128862E+02  0.46063807200E+03  0.46357962022E+03  0.00000000000E+00 0.  1.
         14    1    5    5    0    0 -0.22055653316E+02  0.76776926071E+00  0.56852462850E+02  0.60985603588E+02  0.00000000000E+00 0. -1.
         13    1    3    3    0    0 -0.49848502246E+01 -0.84488749385E+01 -0.16064717214E+04  0.16065016725E+04  0.00000000000E+00 0. -1.
        -14    1    3    3    0    0 -0.12641697673E+02  0.17866839043E+02 -0.11709083040E+03  0.11911884411E+03  0.00000000000E+00 0.  1.
          5    1    4    4  501    0  0.56554831249E+02  0.13271570514E+02 -0.39291293275E+03  0.39720602796E+03  0.41800000000E+01 0. -1.
         -5    1    4    4    0  501 -0.66074483845E+02 -0.62001750180E+01 -0.57281428632E+03  0.57666104307E+03  0.41800000000E+01 0. -1.
</event>
<event>
11    1  0.1078607E-008  0.2266944E+03  0.7561462E-02  0.1037103E+00
         22   -1    0    0    0    0  0.00000000000E+00  0.00000000000E+00  0.16875110743E+04  0.16875110743E+04  0.00000000000E+00 0.  1.
         22   -1    0    0    0    0 -0.00000000000E+00 -0.00000000000E+00 -0.18762157336E+03  0.18762157336E+03  0.00000000000E+00 0.  1.
        -24    2    1    2    0    0  0.79403480483E+02  0.13684718742E+03 -0.12332998407E+02  0.17826143341E+03  0.81197108170E+02 0.  0.
         25    2    1    2    0    0 -0.16032038074E+03 -0.29308308140E+03  0.29106855470E+03  0.46040141766E+03  0.12509294448E+03 0.  0.
         24    2    1    2    0    0  0.80916900255E+02  0.15623589398E+03  0.12211539447E+04  0.12364697966E+04  0.81752076672E+02 0.  0.
        -11    1    5    5    0    0  0.57302803565E+02  0.11818488325E+03  0.10899151759E+04  0.10978006962E+04  0.00000000000E+00 0.  1.
         12    1    5    5    0    0  0.23614096689E+02  0.38051010726E+02  0.13123876871E+03  0.13866910035E+03  0.00000000000E+00 0. -1.
         13    1    3    3    0    0  0.49693946268E+02  0.40611596165E+02  0.27672905297E+02  0.69889768395E+02  0.00000000000E+00 0. -1.
        -14    1    3    3    0    0  0.29709534214E+02  0.96235591257E+02 -0.40005903704E+02  0.10837166502E+03  0.00000000000E+00 0.  1.
          5    1    4    4  501    0 -0.12580535342E+03 -0.17217858757E+03  0.24875492092E+03  0.32767199461E+03  0.41800000000E+01 0.  1.
         -5    1    4    4    0  501 -0.34515027316E+02 -0.12090449383E+03  0.42313633781E+02  0.13272942305E+03  0.41800000000E+01 0.  1.
</event>
<event>
11    1  0.1078607E-008  0.1453443E+03  0.7561462E-02  0.1101733E+00
         22   -1    0    0    0    0  0.00000000000E+00  0.00000000000E+00  0.11109599156E+04  0.11109599156E+04  0.00000000000E+00 0. -1.
         22   -1    0    0    0    0 -0.00000000000E+00 -0.00000000000E+00 -0.10501214929E+03  0.10501214929E+03  0.00000000000E+00 0. -1.
         24    2    1    2    0    0  0.60371893249E+02 -0.35895961964E+02 -0.50062809119E+02  0.11753527427E+03  0.79843410883E+02 0.  0.
         25    2    1    2    0    0 -0.12473210147E+03  0.52859761400E+02  0.51200768333E+03  0.54418754084E+03  0.12504383354E+03 0.  0.
        -24    2    1    2    0    0  0.64360208216E+02 -0.16963799437E+02  0.54400289208E+03  0.55424924976E+03  0.82601921125E+02 0.  0.
        -11    1    3    3    0    0  0.11340737023E+00  0.21850564646E+02 -0.17314642157E+02  0.27879326921E+02  0.00000000000E+00 0.  1.
         12    1    3    3    0    0  0.60258485879E+02 -0.57746526609E+02 -0.32748166963E+02  0.89655947350E+02  0.00000000000E+00 0. -1.
         11    1    5    5    0    0  0.67354620108E+02 -0.40766247661E+02  0.46718500692E+03  0.47377247966E+03  0.00000000000E+00 0. -1.
        -12    1    5    5    0    0 -0.29944118919E+01  0.23802448224E+02  0.76817885162E+02  0.80476770094E+02  0.00000000000E+00 0.  1.
          5    1    4    4  501    0 -0.85894447102E+01 -0.23632919572E+02  0.21154181920E+03  0.21307207025E+03  0.41800000000E+01 0.  1.
         -5    1    4    4    0  501 -0.11614265676E+03  0.76492680972E+02  0.30046586413E+03  0.33111547060E+03  0.41800000000E+01 0.  1.
</event>
<event>
11    1  0.1078607E-008  0.1459967E+03  0.7561462E-02  0.1101041E+00
         22   -1    0    0    0    0  0.00000000000E+00  0.00000000000E+00  0.11750440832E+04  0.11750440832E+04  0.00000000000E+00 0. -1.
         22   -1    0    0    0    0 -0.00000000000E+00 -0.00000000000E+00 -0.77045611535E+02  0.77045611535E+02  0.00000000000E+00 0. -1.
        -24    2    1    2    0    0  0.39570238713E+01 -0.31144024738E+02 -0.23621592965E+02  0.89462346716E+02  0.80373649357E+02 0.  0.
         25    2    1    2    0    0 -0.60371913018E+02 -0.23493493175E+02  0.27830874939E+03  0.31192983058E+03  0.12509095539E+03 0.  0.
         24    2    1    2    0    0  0.56414889147E+02  0.54637517913E+02  0.84331131524E+03  0.85069751743E+03  0.79651702243E+02 0.  0.
        -13    1    5    5    0    0  0.62991201546E+02  0.31354143628E+02  0.36179382776E+03  0.36857258119E+03  0.00000000000E+00 0.  1.
         14    1    5    5    0    0 -0.65763123989E+01  0.23283374285E+02  0.48151748748E+03  0.48212493625E+03  0.00000000000E+00 0. -1.
         13    1    3    3    0    0 -0.86414475998E+01 -0.11620558051E+02 -0.51311096462E+02  0.53315481862E+02  0.00000000000E+00 0. -1.
        -14    1    3    3    0    0  0.12598471471E+02 -0.19523466687E+02  0.27689503497E+02  0.36146864854E+02  0.00000000000E+00 0.  1.
          5    1    4    4  501    0  0.92947707292E+00 -0.60501346694E+02  0.18203335597E+03  0.19187207187E+03  0.41800000000E+01 0. -1.
         -5    1    4    4    0  501 -0.61301390091E+02  0.37007853519E+02  0.96275393421E+02  0.12005775871E+03  0.41800000000E+01 0. -1.
</event>
<event>
11    1  0.1528274E-008  0.1546229E+03  0.7561462E-02  0.1092246E+00
         22   -1    0    0    0    0  0.00000000000E+00  0.00000000000E+00  0.10809352999E+04  0.10809352999E+04  0.00000000000E+00 0.  1.
         22   -1    0    0    0    0 -0.00000000000E+00 -0.00000000000E+00 -0.71147890155E+03  0.71147890155E+03  0.00000000000E+00 0. -1.
         24    2    1    2    0    0 -0.71780789114E+02  0.24109471185E+02 -0.53852541126E+03  0.54979920534E+03  0.80844290705E+02 0.  0.
         25    2    1    2    0    0  0.55400258662E+02  0.66093831815E+02 -0.12837183720E+03  0.19890871613E+03  0.12509102887E+03 0.  0.
        -24    2    1    2    0    0  0.16380530452E+02 -0.90203303000E+02  0.10363536468E+04  0.10437062799E+04  0.82999758725E+02 0.  0.
        -11    1    3    3    0    0 -0.32231261791E+02  0.49279271237E+02 -0.21590852634E+03  0.22379408517E+03  0.00000000000E+00 0.  1.
         12    1    3    3    0    0 -0.39549527322E+02 -0.25169800052E+02 -0.32261688491E+03  0.32600512017E+03  0.00000000000E+00 0. -1.
         11    1    5    5    0    0 -0.95753071371E+01  0.96182773073E+01  0.45012019695E+02  0.47013611668E+02  0.00000000000E+00 0. -1.
        -12    1    5    5    0    0  0.25955837589E+02 -0.99821580308E+02  0.99134162707E+03  0.99669266826E+03  0.00000000000E+00 0.  1.
          5    1    4    4  501    0  0.35770797010E+02  0.54143347302E+02 -0.15221952706E+03  0.16552736570E+03  0.41800000000E+01 0.  1.
         -5    1    4    4    0  501  0.19629461652E+02  0.11950484513E+02  0.23847689865E+02  0.33381350433E+02  0.41800000000E+01 0.  1.
</event>
<event>
11    1  0.1078607E-008  0.1771502E+03  0.7561462E-02  0.1071972E+00
         22   -1    0    0    0    0  0.00000000000E+00  0.00000000000E+00  0.11164126691E+04  0.11164126691E+04  0.00000000000E+00 0.  1.
         22   -1    0    0    0    0 -0.00000000000E+00 -0.00000000000E+00 -0.15324615825E+04  0.15324615825E+04  0.00000000000E+00 0.  1.
        -24    2    1    2    0    0  0.21195871483E+02 -0.13576470872E+03 -0.12727881579E+04  0.12827358812E+04  0.80872276397E+02 0.  0.
         25    2    1    2    0    0  0.24456695264E+02  0.76314209785E+02 -0.22928229114E+03  0.27320323098E+03  0.12509055852E+03 0.  0.
         24    2    1    2    0    0 -0.45652566747E+02  0.59450498932E+02  0.10860215356E+04  0.10929351394E+04  0.97190146264E+02 0.  0.
        -13    1    5    5    0    0 -0.33626747575E+02  0.20450686653E+02  0.95256684382E+03  0.95337955752E+03  0.00000000000E+00 0.  1.
         14    1    5    5    0    0 -0.12025819172E+02  0.38999812279E+02  0.13345469173E+03  0.13955558186E+03  0.00000000000E+00 0. -1.
         13    1    3    3    0    0 -0.12307675701E+02 -0.23263576985E+02 -0.53687344165E+03  0.53751815340E+03  0.00000000000E+00 0. -1.
        -14    1    3    3    0    0  0.33503547183E+02 -0.11250113173E+03 -0.73591471622E+03  0.74521772782E+03  0.00000000000E+00 0.  1.
          5    1    4    4  501    0 -0.50399076324E+02  0.20867207838E+02 -0.96887049839E+02  0.11126580824E+03  0.41800000000E+01 0.  1.
         -5    1    4    4    0  501  0.74855771588E+02  0.55447001947E+02 -0.13239524130E+03  0.16193742274E+03  0.41800000000E+01 0.  1.
</event>
<event>
11    1  0.1078607E-008  0.1348085E+03  0.7561462E-02  0.1113498E+00
         22   -1    0    0    0    0  0.00000000000E+00  0.00000000000E+00  0.46071130947E+03  0.46071130947E+03  0.00000000000E+00 0.  1.
         22   -1    0    0    0    0 -0.00000000000E+00 -0.00000000000E+00 -0.21137774512E+03  0.21137774512E+03  0.00000000000E+00 0. -1.
         24    2    1    2    0    0 -0.37287012885E+02  0.14475306345E+02 -0.10906424429E+03  0.14113094524E+03  0.80144110822E+02 0.  0.
         25    2    1    2    0    0  0.44526652106E+02  0.35817416062E+02 -0.21710906027E+02  0.13922251101E+03  0.12508410806E+03 0.  0.
        -24    2    1    2    0    0 -0.72396392203E+01 -0.50292722407E+02  0.38010871467E+03  0.39173559834E+03  0.79952321652E+02 0.  0.
        -13    1    3    3    0    0  0.76878376572E+01  0.36459768206E+02 -0.62487365735E+02  0.72753614494E+02  0.00000000000E+00 0.  1.
         14    1    3    3    0    0 -0.44974850543E+02 -0.21984461861E+02 -0.46576878551E+02  0.68377330748E+02  0.00000000000E+00 0. -1.
         11    1    5    5    0    0 -0.37255299437E+02 -0.20628569833E+02  0.10337859027E+03  0.11180620804E+03  0.00000000000E+00 0. -1.
        -12    1    5    5    0    0  0.30015660217E+02 -0.29664152574E+02  0.27673012440E+03  0.27992939031E+03  0.00000000000E+00 0.  1.
          5    1    4    4  501    0  0.51976273539E+02 -0.25121088382E+02 -0.45117225595E+02  0.73386909854E+02  0.41800000000E+01 0.  1.
         -5    1    4    4    0  501 -0.74496214335E+01  0.60938504444E+02  0.23406319568E+02  0.65835601152E+02  0.41800000000E+01 0.  1.
</event>
<event>
11    1  0.1078607E-008  0.1257927E+03  0.7561462E-02  0.1124549E+00
         22   -1    0    0    0    0  0.00000000000E+00  0.00000000000E+00  0.44504251598E+03  0.44504251598E+03  0.00000000000E+00 0. -1.
         22   -1    0    0    0    0 -0.00000000000E+00 -0.00000000000E+00 -0.33490057305E+03  0.33490057305E+03  0.00000000000E+00 0.  1.
         24    2    1    2    0    0  0.50138812631E+02  0.28322868184E+02 -0.29356968410E+03  0.30983900898E+03  0.80628572291E+02 0.  0.
         25    2    1    2    0    0 -0.35412300923E+02 -0.49674735216E+01  0.21816654370E+03  0.25401373223E+03  0.12509048134E+03 0.  0.
        -24    2    1    2    0    0 -0.14726511708E+02 -0.23355394663E+02  0.18554508332E+03  0.21609034782E+03  0.10726470002E+03 0.  0.
        -13    1    3    3    0    0  0.23154493846E+02  0.55232078692E+02 -0.20098688995E+03  0.20971991568E+03  0.00000000000E+00 0.  1.
         14    1    3    3    0    0  0.26984318785E+02 -0.26909210508E+02 -0.92582794153E+02  0.10011909330E+03  0.00000000000E+00 0. -1.
         11    1    5    5    0    0  0.35519844733E+02 -0.17170259703E+02  0.14771213051E+03  0.15288999538E+03  0.00000000000E+00 0. -1.
        -12    1    5    5    0    0 -0.50246356441E+02 -0.61851349596E+01  0.37832952812E+02  0.63200352440E+02  0.00000000000E+00 0.  1.
          5    1    4    4  501    0 -0.39736847357E+02 -0.25138093775E+02  0.22650659682E+03  0.23137340296E+03  0.41800000000E+01 0. -1.
         -5    1    4    4    0  501  0.43245464349E+01  0.20170620254E+02 -0.83400531179E+01  0.22640329267E+02  0.41800000000E+01 0. -1.
</event>
<event>
11    1  0.1078607E-008  0.2057467E+03  0.7561462E-02  0.1050533E+00
         22   -1    0    0    0    0  0.00000000000E+00  0.00000000000E+00  0.15019098693E+04  0.15019098693E+04  0.00000000000E+00 0. -1.
         22   -1    0    0    0    0 -0.00000000000E+00 -0.00000000000E+00 -0.16032278478E+03  0.16032278478E+03  0.00000000000E+00 0. -1.
         24    2    1    2    0    0  0.24879284515E+02  0.69112403939E+01 -0.54112408231E+02  0.98267148611E+02  0.77855865096E+02 0.  0.
         25    2    1    2    0    0  0.92695785701E+02  0.10888463325E+03  0.37947322070E+02  0.19374224854E+03  0.12509071738E+03 0.  0.
        -24    2    1    2    0    0 -0.11757507022E+03 -0.11579587364E+03  0.13577521707E+04  0.13702232569E+04  0.82390747829E+02 0.  0.
        -11    1    3    3    0    0  0.40615829447E+02  0.12521276552E+02 -0.91915929516E+00  0.42512031496E+02  0.00000000000E+00 0.  1.
         12    1    3    3    0    0 -0.15736544932E+02 -0.56100361586E+01 -0.53193248936E+02  0.55755117115E+02  0.00000000000E+00 0. -1.
         13    1    5    5    0    0 -0.10709429165E+03 -0.67389761158E+02  0.76382411661E+03  0.77423371687E+03  0.00000000000E+00 0. -1.
        -14    1    5    5    0    0 -0.10480778568E+02 -0.48406112481E+02  0.59392805408E+03  0.59598954006E+03  0.00000000000E+00 0.  1.
          5    1    4    4  501    0 -0.21288837954E+02  0.36318004206E+02  0.40449557496E+02  0.58530770989E+02  0.41800000000E+01 0. -1.
         -5    1    4    4    0  501  0.11398462366E+03  0.72566629040E+02 -0.25022354256E+01  0.13521147755E+03  0.41800000000E+01 0. -1.
</event>
<event>
11    1  0.1078607E-008  0.2857455E+03  0.7561462E-02  0.1006411E+00
         22   -1    0    0    0    0  0.00000000000E+00  0.00000000000E+00  0.11617925732E+03  0.11617925732E+03  0.00000000000E+00 0.  1.
         22   -1    0    0    0    0 -0.00000000000E+00 -0.00000000000E+00 -0.16395921837E+04  0.16395921837E+04  0.00000000000E+00 0.  1.
        -24    2    1    2    0    0 -0.79044221456E+02  0.14211461804E+03 -0.56899336253E+03  0.59745374621E+03  0.82176509118E+02 0.  0.
         25    2    1    2    0    0 -0.89541764500E+02 -0.31650334500E+03 -0.75971208719E+03  0.83725884075E+03  0.12509123069E+03 0.  0.
         24    2    1    2    0    0  0.16858598596E+03  0.17438872696E+03 -0.19470747669E+03  0.32105885409E+03  0.79593489452E+02 0.  0.
        -11    1    5    5    0    0  0.74005978751E+02  0.26415943472E+02 -0.74170979311E+02  0.10805563906E+03  0.00000000000E+00 0.  1.
         12    1    5    5    0    0  0.94580007204E+02  0.14797278349E+03 -0.12053649738E+03  0.21300321503E+03  0.00000000000E+00 0. -1.
         13    1    3    3    0    0 -0.20459644932E+02  0.28837052525E+02 -0.27129184842E+03  0.27358625639E+03  0.00000000000E+00 0. -1.
        -14    1    3    3    0    0 -0.58584576523E+02  0.11327756552E+03 -0.29770151411E+03  0.32386748982E+03  0.00000000000E+00 0.  1.
          5    1    4    4  501    0 -0.93454801647E+02 -0.10663997063E+03 -0.31668726150E+03  0.34700745998E+03  0.41800000000E+01 0.  1.
         -5    1    4    4    0  501  0.39130371473E+01 -0.20986337437E+03 -0.44302482569E+03  0.49025138076E+03  0.41800000000E+01 0.  1.
</event>
<event>
11    1  0.1078607E-008  0.1290056E+03  0.7561462E-02  0.1120497E+00
         22   -1    0    0    0    0  0.00000000000E+00  0.00000000000E+00  0.14886124987E+03  0.14886124987E+03  0.00000000000E+00 0.  1.
         22   -1    0    0    0    0 -0.00000000000E+00 -0.00000000000E+00 -0.90024331115E+03  0.90024331115E+03  0.00000000000E+00 0.  1.
         24    2    1    2    0    0  0.17401564322E+01  0.80510157477E+01 -0.75969900453E+03  0.76397558213E+03  0.80301093488E+02 0.  0.
         25    2    1    2    0    0 -0.14471799626E+02  0.21771773973E+02 -0.84041128215E+02  0.15296595647E+03  0.12510887051E+03 0.  0.
        -24    2    1    2    0    0  0.12731643194E+02 -0.29822789721E+02  0.92358071473E+02  0.13216302242E+03  0.88800662177E+02 0.  0.
        -11    1    3    3    0    0 -0.76717958564E+01 -0.13935253672E+02 -0.69188532837E+03  0.69206817248E+03  0.00000000000E+00 0.  1.
         12    1    3    3    0    0  0.94119522887E+01  0.21986269419E+02 -0.67813676157E+02  0.71907409651E+02  0.00000000000E+00 0. -1.
         11    1    5    5    0    0  0.28396455083E+02  0.20760875999E+02  0.14598783057E+02  0.38085392216E+02  0.00000000000E+00 0. -1.
        -12    1    5    5    0    0 -0.15664811889E+02 -0.50583665720E+02  0.77759288416E+02  0.94077630200E+02  0.00000000000E+00 0.  1.
          5    1    4    4  501    0 -0.50738643947E+02  0.21959801601E+02  0.60356401652E+01  0.55772253210E+02  0.41800000000E+01 0.  1.
         -5    1    4    4    0  501  0.36266844321E+02 -0.18802762740E+00 -0.90076768380E+02  0.97193703259E+02  0.41800000000E+01 0.  1.
</event>
<event>
11    1  0.1078607E-008  0.1637938E+03  0.7561462E-02  0.1083562E+00
         22   -1    0    0    0    0  0.00000000000E+00  0.00000000000E+00  0.10179118325E+04  0.10179118325E+04  0.00000000000E+00 0. -1.
         22   -1    0    0    0    0 -0.00000000000E+00 -0.00000000000E+00 -0.37607544640E+03  0.37607544640E+03  0.00000000000E+00 0.  1.
         24    2    1    2    0    0  0.10714911186E+03 -0.10022029903E+02 -0.30742312268E+03  0.33567080486E+03  0.81145176209E+02 0.  0.
         25    2    1    2    0    0 -0.84890570262E+02  0.47547965583E+02  0.68153195165E+02  0.17251130845E+03  0.12509226827E+03 0.  0.
        -24    2    1    2    0    0 -0.22258541599E+02 -0.37525935681E+02  0.88110631358E+03  0.88580516557E+03  0.79992605865E+02 0.  0.
        -13    1    3    3    0    0  0.11916024358E+03 -0.10282037522E+02 -0.29530717381E+03  0.31860824039E+03  0.00000000000E+00 0.  1.
         14    1    3    3    0    0 -0.12011131716E+02  0.26000761902E+00 -0.12115948867E+02  0.17062564462E+02  0.00000000000E+00 0. -1.
         13    1    5    5    0    0  0.47241147277E+01 -0.31939553734E+02  0.78912418467E+03  0.78978442071E+03  0.00000000000E+00 0. -1.
        -14    1    5    5    0    0 -0.26982656327E+02 -0.55863819462E+01  0.91982128906E+02  0.96020744861E+02  0.00000000000E+00 0.  1.
          5    1    4    4  501    0  0.23104763455E+02  0.18148873975E+02  0.51274497853E+02  0.59243212699E+02  0.41800000000E+01 0. -1.
         -5    1    4    4    0  501 -0.10799533372E+03  0.29399091609E+02  0.16878697312E+02  0.11326809575E+03  0.41800000000E+01 0. -1.
</event>
<event>
11    1  0.1078607E-008  0.3786433E+03  0.7561462E-02  0.9714962E-01
         22   -1    0    0    0    0  0.00000000000E+00  0.00000000000E+00  0.14831567405E+04  0.14831567405E+04  0.00000000000E+00 0.  1.
         22   -1    0    0    0    0 -0.00000000000E+00 -0.00000000000E+00 -0.29387862046E+03  0.29387862046E+03  0.00000000000E+00 0.  1.
        -24    2    1    2    0    0  0.22061499617E+03  0.27391284861E+03 -0.27279344607E+02  0.36189182806E+03  0.80760803645E+02 0.  0.
         25    2    1    2    0    0 -0.31729484729E+03 -0.21616566695E+03  0.34367286203E+03  0.53024723145E+03  0.12508986641E+03 0.  0.
         24    2    1    2    0    0  0.96679851115E+02 -0.57747181653E+02  0.87288460265E+03  0.88489630148E+03  0.91827034311E+02 0.  0.
        -13    1    5    5    0    0  0.63128719716E+01 -0.38197796678E+02  0.11388249362E+03  0.12028360810E+03  0.00000000000E+00 0.  1.
         14    1    5    5    0    0  0.90366979143E+02 -0.19549384975E+02  0.75900210903E+03  0.76461269338E+03  0.00000000000E+00 0. -1.
         13    1    3    3    0    0  0.17392655226E+03  0.17026719458E+03 -0.42901073566E+02  0.24714745648E+03  0.00000000000E+00 0. -1.
        -14    1    3    3    0    0  0.46688443913E+02  0.10364565402E+03  0.15621728960E+02  0.11474437158E+03  0.00000000000E+00 0.  1.
          5    1    4    4  501    0 -0.28501152010E+03 -0.14808592381E+03  0.31390261282E+03  0.44912507184E+03  0.41800000000E+01 0. -1.
         -5    1    4    4    0  501 -0.32283327183E+02 -0.68079743148E+02  0.29770249202E+02  0.81122159603E+02  0.41800000000E+01 0. -1.
</event>
<event>
11    1  0.1078607E-008  0.1721823E+03  0.7561462E-02  0.1076148E+00
         22   -1    0    0    0    0  0.00000000000E+00  0.00000000000E+00  0.93657421152E+03  0.93657421152E+03  0.00000000000E+00 0.  1.
         22   -1    0    0    0    0 -0.00000000000E+00 -0.00000000000E+00 -0.44543542128E+03  0.44543542128E+03  0.00000000000E+00 0.  1.
        -24    2    1    2    0    0  0.23894333799E+01 -0.19791235861E+01 -0.39379564238E+03  0.40189683206E+03  0.80227360306E+02 0.  0.
         25    2    1    2    0    0 -0.10324457584E+03 -0.59607227048E+02  0.14253799469E+03  0.22400252302E+03  0.12509031311E+03 0.  0.
         24    2    1    2    0    0  0.10085514246E+03  0.61586350634E+02  0.74239643793E+03  0.75611027771E+03  0.81151972632E+02 0.  0.
        -11    1    5    5    0    0  0.96119705411E+02  0.62557858870E+02  0.74247061094E+03  0.75127564288E+03  0.00000000000E+00 0.  1.
         12    1    5    5    0    0  0.47354370483E+01 -0.97150823599E+00 -0.74173011260E-01  0.48346348287E+01  0.00000000000E+00 0. -1.
         13    1    3    3    0    0 -0.34820342884E+02 -0.14010839723E+02 -0.13334822490E+03  0.13852981265E+03  0.00000000000E+00 0. -1.
        -14    1    3    3    0    0  0.37209776264E+02  0.12031716137E+02 -0.26044741748E+03  0.26336701941E+03  0.00000000000E+00 0.  1.
          5    1    4    4  501    0 -0.10692239730E+03  0.28035870795E+01  0.10966027811E+03  0.15324199209E+03  0.41800000000E+01 0.  1.
         -5    1    4    4    0  501  0.36778214586E+01 -0.62410814127E+02  0.32877716577E+02  0.70760530934E+02  0.41800000000E+01 0.  1.
</event>
<event>
11    1  0.1078607E-008  0.1318629E+03  0.7561462E-02  0.1117001E+00
         22   -1    0    0    0    0  0.00000000000E+00  0.00000000000E+00  0.56457951726E+03  0.56457951726E+03  0.00000000000E+00 0. -1.
         22   -1    0    0    0    0 -0.00000000000E+00 -0.00000000000E+00 -0.38176507245E+03  0.38176507245E+03  0.00000000000E+00 0. -1.
        -24    2    1    2    0    0 -0.92208415650E+01 -0.50932403682E+01 -0.28153744350E+03  0.29263118634E+03  0.79112035145E+02 0.  0.
         25    2    1    2    0    0 -0.45643517385E+01  0.44376882166E+02 -0.41924513505E+02  0.13926910136E+03  0.12509227307E+03 0.  0.
         24    2    1    2    0    0  0.13785193304E+02 -0.39283641798E+02  0.50627640182E+03  0.51444430201E+03  0.81264437305E+02 0.  0.
        -11    1    5    5    0    0 -0.49978569423E+01 -0.32996821325E+02  0.68272618521E+02  0.75992889347E+02  0.00000000000E+00 0.  1.
         12    1    5    5    0    0  0.18783050246E+02 -0.62868204729E+01  0.43800378329E+03  0.43845141267E+03  0.00000000000E+00 0. -1.
         11    1    3    3    0    0  0.18993615114E+02  0.12163637615E+02 -0.23183994931E+03  0.23293448347E+03  0.00000000000E+00 0. -1.
        -12    1    3    3    0    0 -0.28214456679E+02 -0.17256877983E+02 -0.49697494195E+02  0.59696702863E+02  0.00000000000E+00 0.  1.
          5    1    4    4  501    0 -0.42648655986E+02  0.10107894073E+02 -0.68479309188E+02  0.81412318275E+02  0.41800000000E+01 0. -1.
         -5    1    4    4    0  501  0.38084304248E+02  0.34268988093E+02  0.26554795683E+02  0.57856783083E+02  0.41800000000E+01 0. -1.
</event>
<event>
11    1  0.1078607E-008  0.1554104E+03  0.7561462E-02  0.1091475E+00
         22   -1    0    0    0    0  0.00000000000E+00  0.00000000000E+00  0.88365548953E+03  0.88365548953E+03  0.00000000000E+00 0. -1.
         22   -1    0    0    0    0 -0.00000000000E+00 -0.00000000000E+00 -0.14409408234E+04  0.14409408234E+04  0.00000000000E+00 0. -1.
        -24    2    1    2    0    0  0.92324914084E+02  0.90595410077E+01 -0.13857951028E+04  0.13911133351E+04  0.78500184683E+02 0.  0.
         25    2    1    2    0    0 -0.71958002369E+02  0.64563092763E+01  0.54010636442E+02  0.15421894274E+03  0.12508675157E+03 0.  0.
         24    2    1    2    0    0 -0.20366911715E+02 -0.15515850284E+02  0.77449913255E+03  0.77926403507E+03  0.82146073092E+02 0.  0.
        -11    1    5    5    0    0 -0.38162881508E+02 -0.55036894905E+01  0.16587299996E+03  0.17029547333E+03  0.00000000000E+00 0.  1.
         12    1    5    5    0    0  0.17795969792E+02 -0.10012160794E+02  0.60862613259E+03  0.60896856173E+03  0.00000000000E+00 0. -1.
         13    1    3    3    0    0  0.10033335621E+03  0.22402624247E+02 -0.10677141326E+04  0.10726519142E+04  0.00000000000E+00 0. -1.
        -14    1    3    3    0    0 -0.80084421219E+01 -0.13343083240E+02 -0.31808097018E+03  0.31846142091E+03  0.00000000000E+00 0.  1.
          5    1    4    4  501    0 -0.45751591023E+02 -0.56098570230E+02  0.45824293482E+02  0.85776429957E+02  0.41800000000E+01 0.  1.
         -5    1    4    4    0  501 -0.26206411346E+02  0.62554879506E+02  0.81863429596E+01  0.68442512787E+02  0.41800000000E+01 0.  1.
</event>
<event>
11    1  0.1078607E-008  0.1925104E+03  0.7561462E-02  0.1059950E+00
         22   -1    0    0    0    0  0.00000000000E+00  0.00000000000E+00  0.13468888185E+04  0.13468888185E+04  0.00000000000E+00 0.  1.
         22   -1    0    0    0    0 -0.00000000000E+00 -0.00000000000E+00 -0.64705673923E+02  0.64705673923E+02  0.00000000000E+00 0.  1.
         24    2    1    2    0    0 -0.13921843820E+02  0.20846026707E+00  0.70221701544E+02  0.10819085920E+03  0.81119131258E+02 0.  0.
         25    2    1    2    0    0  0.14809158567E+03  0.53130030662E+02  0.22154517677E+03  0.29913707686E+03  0.12508719958E+03 0.  0.
        -24    2    1    2    0    0 -0.13416974185E+03 -0.53338490929E+02  0.99041626627E+03  0.10042665564E+04  0.82343314859E+02 0.  0.
        -11    1    3    3    0    0 -0.19101572569E+02 -0.26066979106E+02 -0.75951362410E+00  0.32325444084E+02  0.00000000000E+00 0.  1.
         12    1    3    3    0    0  0.51797287493E+01  0.26275439373E+02  0.70981215168E+02  0.75865415117E+02  0.00000000000E+00 0. -1.
         13    1    5    5    0    0 -0.47171474010E+02  0.17102702165E+02  0.21286147286E+03  0.21869535206E+03  0.00000000000E+00 0. -1.
        -14    1    5    5    0    0 -0.86998267839E+02 -0.70441193094E+02  0.77755479341E+03  0.78557120431E+03  0.00000000000E+00 0.  1.
          5    1    4    4  501    0  0.12402006828E+02  0.62684100646E+02  0.84241202023E+02  0.10581662802E+03  0.41800000000E+01 0. -1.
         -5    1    4    4    0  501  0.13568957884E+03 -0.95540699839E+01  0.13730397475E+03  0.19332044884E+03  0.41800000000E+01 0. -1.
</event>
<event>
11    1  0.1078607E-008  0.1468547E+03  0.7561462E-02  0.1100137E+00
         22   -1    0    0    0    0  0.00000000000E+00  0.00000000000E+00  0.13706885555E+04  0.13706885555E+04  0.00000000000E+00 0.  1.
         22   -1    0    0    0    0 -0.00000000000E+00 -0.00000000000E+00 -0.14940682173E+03  0.14940682173E+03  0.00000000000E+00 0.  1.
         24    2    1    2    0    0  0.27630064322E+02 -0.65753829201E+02 -0.43156686673E+02  0.11851680091E+03  0.84242186493E+02 0.  0.
         25    2    1    2    0    0 -0.69672087042E+02  0.66138572850E+02  0.26047960909E+02  0.15985787877E+03  0.12509010595E+03 0.  0.
        -24    2    1    2    0    0  0.42042022720E+02 -0.38474364859E+00  0.12383904596E+04  0.12417206976E+04  0.80570967221E+02 0.  0.
        -13    1    3    3    0    0  0.22724255289E+02 -0.52690769159E+02 -0.68638340279E+02  0.89464689623E+02  0.00000000000E+00 0.  1.
         14    1    3    3    0    0  0.49058090325E+01 -0.13063060042E+02  0.25481653606E+02  0.29052111290E+02  0.00000000000E+00 0. -1.
         11    1    5    5    0    0  0.25667825121E+02 -0.33299171487E+02  0.34168554080E+03  0.34426251736E+03  0.00000000000E+00 0. -1.
        -12    1    5    5    0    0  0.16374197599E+02  0.32914427839E+02  0.89670491877E+03  0.89745818022E+03  0.00000000000E+00 0.  1.
          5    1    4    4  501    0  0.36325015552E+01  0.73115940985E+02 -0.15870884096E+02  0.75023284757E+02  0.41800000000E+01 0. -1.
         -5    1    4    4    0  501 -0.73304588597E+02 -0.69773681358E+01  0.41918845005E+02  0.84834594017E+02  0.41800000000E+01 0. -1.
</event>
<event>
11    1  0.1078607E-008  0.1728733E+03  0.7561462E-02  0.1075558E+00
         22   -1    0    0    0    0  0.00000000000E+00  0.00000000000E+00  0.31358846406E+02  0.31358846406E+02  0.00000000000E+00 0. -1.
         22   -1    0    0    0    0 -0.00000000000E+00 -0.00000000000E+00 -0.19626203738E+04  0.19626203738E+04  0.00000000000E+00 0. -1.
        -24    2    1    2    0    0  0.29968381069E+02  0.33224083799E+02 -0.87596432019E+03  0.88080024586E+03  0.80583120159E+02 0.  0.
         25    2    1    2    0    0  0.35295984044E+01  0.91329515322E+02 -0.81146763281E+03  0.82612376397E+03  0.12508883188E+03 0.  0.
         24    2    1    2    0    0 -0.33497979473E+02 -0.12455359912E+03 -0.24382957438E+03  0.28705521036E+03  0.79448843739E+02 0.  0.
        -11    1    5    5    0    0 -0.36323462868E+02 -0.14275772332E+02 -0.86584001431E+02  0.94973580190E+02  0.00000000000E+00 0.  1.
         12    1    5    5    0    0  0.28254833943E+01 -0.11027782679E+03 -0.15724557295E+03  0.19208163017E+03  0.00000000000E+00 0. -1.
         11    1    3    3    0    0  0.32915258559E+02  0.46239552401E+02 -0.34265573606E+03  0.34732472401E+03  0.00000000000E+00 0. -1.
        -12    1    3    3    0    0 -0.29468774901E+01 -0.13015468601E+02 -0.53330858413E+03  0.53347552185E+03  0.00000000000E+00 0.  1.
          5    1    4    4  501    0 -0.43374877326E+02  0.62612163186E+02 -0.23607989701E+03  0.24809847467E+03  0.41800000000E+01 0.  1.
         -5    1    4    4    0  501  0.46904475730E+02  0.28717352136E+02 -0.57538773580E+03  0.57802528930E+03  0.41800000000E+01 0.  1.
</event>
<event>
11    1  0.1078607E-008  0.2000250E+03  0.7561462E-02  0.1054506E+00
         22   -1    0    0    0    0  0.00000000000E+00  0.00000000000E+00  0.16052271068E+04  0.16052271068E+04  0.00000000000E+00 0.  1.
         22   -1    0    0    0    0 -0.00000000000E+00 -0.00000000000E+00 -0.40346110994E+03  0.40346110994E+03  0.00000000000E+00 0. -1.
         24    2    1    2    0    0  0.14594474865E+02 -0.18415479780E+01 -0.25154173472E+03  0.26183439602E+03  0.71187194311E+02 0.  0.
         25    2    1    2    0    0 -0.97023547959E+02 -0.13046080465E+03 -0.67509891358E+02  0.21595502267E+03  0.12508155730E+03 0.  0.
        -24    2    1    2    0    0  0.82429073094E+02  0.13230235263E+03  0.15208176230E+04  0.15308987981E+04  0.80414072357E+02 0.  0.
        -11    1    3    3    0    0  0.17332955750E+02 -0.34875899761E+02 -0.15242348861E+03  0.15732030898E+03  0.00000000000E+00 0.  1.
         12    1    3    3    0    0 -0.27384808850E+01  0.33034351783E+02 -0.99118246117E+02  0.10451408703E+03  0.00000000000E+00 0. -1.
         11    1    5    5    0    0  0.14017334068E+01  0.43689791506E+02  0.20470010969E+03  0.20931530676E+03  0.00000000000E+00 0. -1.
        -12    1    5    5    0    0  0.81027339687E+02  0.88612561124E+02  0.13161175133E+04  0.13215834913E+04  0.00000000000E+00 0.  1.
          5    1    4    4  501    0 -0.53786215519E+02 -0.12491087458E+03 -0.69144981713E+00  0.13606481570E+03  0.41800000000E+01 0.  1.
         -5    1    4    4    0  501 -0.43237332440E+02 -0.55499300747E+01 -0.66818441541E+02  0.79890206974E+02  0.41800000000E+01 0.  1.
</event>
<event>
11    1  0.1078607E-008  0.1596235E+03  0.7561462E-02  0.1087432E+00
         22   -1    0    0    0    0  0.00000000000E+00  0.00000000000E+00  0.31449233326E+03  0.31449233326E+03  0.00000000000E+00 0. -1.
         22   -1    0    0    0    0 -0.00000000000E+00 -0.00000000000E+00 -0.90991595961E+03  0.90991595961E+03  0.00000000000E+00 0. -1.
         24    2    1    2    0    0 -0.29613593788E+02 -0.10561088793E+03 -0.71875219068E+03  0.73169985179E+03  0.82154348118E+02 0.  0.
         25    2    1    2    0    0  0.62891265462E+01  0.56049139576E+02 -0.14968254695E+03  0.20306122665E+03  0.12509171733E+03 0.  0.
        -24    2    1    2    0    0  0.23324467242E+02  0.49561748352E+02  0.27301111129E+03  0.28964721443E+03  0.79749885679E+02 0.  0.
        -13    1    3    3    0    0 -0.46440924425E+00  0.10492178037E+02 -0.18360176636E+02  0.21151774441E+02  0.00000000000E+00 0.  1.
         14    1    3    3    0    0 -0.29149184543E+02 -0.11610306596E+03 -0.70039201405E+03  0.71054807735E+03  0.00000000000E+00 0. -1.
         11    1    5    5    0    0  0.22895947705E+02 -0.44568291702E+01  0.18438980980E+03  0.18585932773E+03  0.00000000000E+00 0. -1.
        -12    1    5    5    0    0  0.42851953655E+00  0.54018577522E+02  0.88621301490E+02  0.10378788669E+03  0.00000000000E+00 0.  1.
          5    1    4    4  501    0  0.21282282339E+02 -0.80709424682E+00  0.16156372657E+02  0.27057119583E+02  0.41800000000E+01 0.  1.
         -5    1    4    4    0  501 -0.14993155793E+02  0.56856233823E+02 -0.16583891961E+03  0.17600410706E+03  0.41800000000E+01 0.  1.
</event>
<event>
11    1  0.1078607E-008  0.1425704E+03  0.7561462E-02  0.1104722E+00
         22   -1    0    0    0    0  0.00000000000E+00  0.00000000000E+00  0.87520246616E+03  0.87520246616E+03  0.00000000000E+00 0.  1.
         22   -1    0    0    0    0 -0.00000000000E+00 -0.00000000000E+00 -0.14284013392E+03  0.14284013392E+03  0.00000000000E+00 0. -1.
         24    2    1    2    0    0 -0.65164326689E+01 -0.59837207442E+02 -0.55742920325E+02  0.11499846116E+03  0.80587949562E+02 0.  0.
         25    2    1    2    0    0  0.10349756308E+02  0.10044337056E+03  0.62713097823E+02  0.17256079603E+03  0.12509319543E+03 0.  0.
        -24    2    1    2    0    0 -0.38333236392E+01 -0.40606163115E+02  0.72539215475E+03  0.73048334289E+03  0.75819398638E+02 0.  0.
        -11    1    3    3    0    0  0.40290393650E+01 -0.42174036893E+02  0.12136594746E+02  0.44070165396E+02  0.00000000000E+00 0.  1.
         12    1    3    3    0    0 -0.10545472034E+02 -0.17663170549E+02 -0.67879515071E+02  0.70928295768E+02  0.00000000000E+00 0. -1.
         11    1    5    5    0    0 -0.12241976771E+02  0.19363255240E+02  0.12838306494E+03  0.13041093900E+03  0.00000000000E+00 0. -1.
        -12    1    5    5    0    0  0.84086531320E+01 -0.59969418355E+02  0.59700908981E+03  0.60007240388E+03  0.00000000000E+00 0.  1.
          5    1    4    4  501    0 -0.39740574689E+02  0.46309524765E+02  0.75944550728E+02  0.97513755675E+02  0.41800000000E+01 0. -1.
         -5    1    4    4    0  501  0.50090330998E+02  0.54133845792E+02 -0.13231452904E+02  0.75047040352E+02  0.41800000000E+01 0. -1.
</event>
<event>
11    1  0.1078607E-008  0.1338088E+03  0.7561462E-02  0.1114676E+00
         22   -1    0    0    0    0  0.00000000000E+00  0.00000000000E+00  0.38976872803E+03  0.38976872803E+03  0.00000000000E+00 0. -1.
         22   -1    0    0    0    0 -0.00000000000E+00 -0.00000000000E+00 -0.27793181558E+03  0.27793181558E+03  0.00000000000E+00 0. -1.
        -24    2    1    2    0    0 -0.16918085475E+02 -0.44922927121E+02 -0.21545475516E+03  0.23457285214E+03  0.79368636414E+02 0.  0.
         25    2    1    2    0    0 -0.46071988859E+01  0.46862490553E+02  0.48413615441E+02  0.14215601079E+03  0.12508850443E+03 0.  0.
         24    2    1    2    0    0  0.21525284361E+02 -0.19395634317E+01  0.27887805217E+03  0.29097168068E+03  0.80152674352E+02 0.  0.
        -13    1    5    5    0    0  0.14059562226E+02 -0.12284075467E+02  0.88832092128E+01  0.20675618636E+02  0.00000000000E+00 0.  1.
         14    1    5    5    0    0  0.74657221350E+01  0.10344512035E+02  0.26999484295E+03  0.27029606205E+03  0.00000000000E+00 0. -1.
         11    1    3    3    0    0 -0.48278278077E+01 -0.66759065230E+02 -0.17025467436E+03  0.18293915615E+03  0.00000000000E+00 0. -1.
        -12    1    3    3    0    0 -0.12090257667E+02  0.21836138109E+02 -0.45200080798E+02  0.51633695995E+02  0.00000000000E+00 0.  1.
          5    1    4    4  501    0 -0.13095324537E+02 -0.41864365290E+02  0.20987147831E+02  0.48806202269E+02  0.41800000000E+01 0.  1.
         -5    1    4    4    0  501  0.84881256507E+01  0.88726855843E+02  0.27426467609E+02  0.93349808518E+02  0.41800000000E+01 0.  1.
</event>
<event>
11    1  0.1078607E-008  0.1558184E+03  0.7561462E-02  0.1091078E+00
         22   -1    0    0    0    0  0.00000000000E+00  0.00000000000E+00  0.15764240754E+03  0.15764240754E+03  0.00000000000E+00 0.  1.
         22   -1    0    0    0    0 -0.00000000000E+00 -0.00000000000E+00 -0.82443880304E+03  0.82443880304E+03  0.00000000000E+00 0.  1.
        -24    2    1    2    0    0  0.17582588458E+02 -0.83916821694E+02 -0.50267956447E+03  0.51628991380E+03  0.80730106979E+02 0.  0.
         25    2    1    2    0    0 -0.51111266195E+02  0.11086262649E+03 -0.27293745698E+03  0.32410861831E+03  0.12509459442E+03 0.  0.
         24    2    1    2    0    0  0.33528677737E+02 -0.26945804796E+02  0.10882062595E+03  0.14168267847E+03  0.79886194799E+02 0.  0.
        -11    1    5    5    0    0  0.56861125584E+02 -0.12152263983E+02  0.93464096232E+02  0.11007453115E+03  0.00000000000E+00 0.  1.
         12    1    5    5    0    0 -0.23332447847E+02 -0.14793540813E+02  0.15356529719E+02  0.31608147325E+02  0.00000000000E+00 0. -1.
         11    1    3    3    0    0  0.29018948848E+02 -0.36295696264E+02 -0.39818726665E+03  0.40088973082E+03  0.00000000000E+00 0. -1.
        -12    1    3    3    0    0 -0.11436360390E+02 -0.47621125430E+02 -0.10449229783E+03  0.11540018298E+03  0.00000000000E+00 0.  1.
          5    1    4    4  501    0 -0.81414821423E+02  0.91286269561E+02 -0.13838819865E+03  0.18474393653E+03  0.41800000000E+01 0. -1.
         -5    1    4    4    0  501  0.30303555228E+02  0.19576356928E+02 -0.13454925833E+03  0.13936468178E+03  0.41800000000E+01 0. -1.
</event>
<event>
11    1  0.1294193E-008  0.1568044E+03  0.7561462E-02  0.1090122E+00
         22   -1    0    0    0    0  0.00000000000E+00  0.00000000000E+00  0.56685556900E+03  0.56685556900E+03  0.00000000000E+00 0.  1.
         22   -1    0    0    0    0 -0.00000000000E+00 -0.00000000000E+00 -0.76957020647E+03  0.76957020647E+03  0.00000000000E+00 0. -1.
        -24    2    1    2    0    0 -0.33727865696E+02 -0.26319101916E+02 -0.52976017989E+03  0.53759847273E+03  0.80845566539E+02 0.  0.
         25    2    1    2    0    0  0.11691517548E+03 -0.17482245490E+02 -0.19635040640E+03  0.26110367950E+03  0.12508741818E+03 0.  0.
         24    2    1    2    0    0 -0.83187309787E+02  0.43801347406E+02  0.52339594882E+03  0.53772362325E+03  0.79779002330E+02 0.  0.
        -13    1    5    5    0    0 -0.64801630484E+02  0.57643205750E+02  0.27711995720E+03  0.29037469098E+03  0.00000000000E+00 0.  1.
         14    1    5    5    0    0 -0.18385679303E+02 -0.13841858344E+02  0.24627599162E+03  0.24734893227E+03  0.00000000000E+00 0. -1.
         13    1    3    3    0    0 -0.50311999606E+02  0.11665989201E+01 -0.42662270676E+03  0.42958071672E+03  0.00000000000E+00 0. -1.
        -14    1    3    3    0    0  0.16584133910E+02 -0.27485700836E+02 -0.10313747314E+03  0.10801775601E+03  0.00000000000E+00 0.  1.
          5    1    4    4  501    0  0.19927484671E+02 -0.18222502871E+02  0.13059622746E+02  0.30285151518E+02  0.41800000000E+01 0.  1.
         -5    1    4    4    0  501  0.96987690813E+02  0.74025738108E+00 -0.20941002915E+03  0.23081852798E+03  0.41800000000E+01 0.  1.
</event>
<event>
11    1  0.1078607E-008  0.2281642E+03  0.7561462E-02  0.1036220E+00
         22   -1    0    0    0    0  0.00000000000E+00  0.00000000000E+00  0.32471614267E+03  0.32471614267E+03  0.00000000000E+00 0.  1.
         22   -1    0    0    0    0 -0.00000000000E+00 -0.00000000000E+00 -0.51261525889E+03  0.51261525889E+03  0.00000000000E+00 0. -1.
        -24    2    1    2    0    0 -0.16480844512E+01  0.47510523080E+02 -0.25508336712E+03  0.27157860930E+03  0.80171384299E+02 0.  0.
         25    2    1    2    0    0  0.18926779528E+03 -0.61323667525E+01 -0.14424989114E+03  0.26891413397E+03  0.12508747382E+03 0.  0.
         24    2    1    2    0    0 -0.18761971083E+03 -0.41378156328E+02  0.21143414204E+03  0.29683865828E+03  0.80594571276E+02 0.  0.
        -13    1    5    5    0    0 -0.18774684563E+03 -0.40284075419E+02  0.21781089738E+03  0.29036747717E+03  0.00000000000E+00 0.  1.
         14    1    5    5    0    0  0.12713480540E+00 -0.10940809088E+01 -0.63767553449E+01  0.64711811150E+01  0.00000000000E+00 0. -1.
         11    1    3    3    0    0 -0.13084273914E+02  0.47195675895E+02 -0.25547922050E+03  0.26013124025E+03  0.00000000000E+00 0. -1.
        -12    1    3    3    0    0  0.11436189463E+02  0.31484718560E+00  0.39585337952E+00  0.11447369046E+02  0.00000000000E+00 0.  1.
          5    1    4    4  501    0  0.17186761243E+03 -0.35748178774E+01 -0.59041500633E+02  0.18180931417E+03  0.41800000000E+01 0.  1.
         -5    1    4    4    0  501  0.17400182853E+02 -0.25575488751E+01 -0.85208390507E+02  0.87104819800E+02  0.41800000000E+01 0.  1.
</event>
<event>
11    1  0.1078607E-008  0.1419194E+03  0.7561462E-02  0.1105434E+00
         22   -1    0    0    0    0  0.00000000000E+00  0.00000000000E+00  0.92953277253E+03  0.92953277253E+03  0.00000000000E+00 0. -1.
         22   -1    0    0    0    0 -0.00000000000E+00 -0.00000000000E+00 -0.77273221607E+03  0.77273221607E+03  0.00000000000E+00 0.  1.
        -24    2    1    2    0    0  0.69694835322E+02 -0.18019707208E+02 -0.59351637330E+03  0.60324268828E+03  0.80361531072E+02 0.  0.
         25    2    1    2    0    0 -0.44760301944E+02 -0.13481100522E+02 -0.14621844434E+03  0.19802175752E+03  0.12509020059E+03 0.  0.
         24    2    1    2    0    0 -0.24934533378E+02  0.31500807730E+02  0.89653537410E+03  0.90100054279E+03  0.80076646162E+02 0.  0.
        -11    1    5    5    0    0 -0.27666114447E+02  0.34181906199E+02  0.21483977092E+03  0.21929419456E+03  0.00000000000E+00 0.  1.
         12    1    5    5    0    0  0.27315810685E+01 -0.26810984692E+01  0.68169560318E+03  0.68170634823E+03  0.00000000000E+00 0. -1.
         11    1    3    3    0    0  0.20515680507E+02  0.31904681955E+01 -0.26320234114E+02  0.33523528421E+02  0.00000000000E+00 0. -1.
        -12    1    3    3    0    0  0.49179154815E+02 -0.21210175403E+02 -0.56719613918E+03  0.56971915986E+03  0.00000000000E+00 0.  1.
          5    1    4    4  501    0 -0.71089076631E+02 -0.40461583502E+01 -0.28260283945E+02  0.76721211293E+02  0.41800000000E+01 0. -1.
         -5    1    4    4    0  501  0.26328774687E+02 -0.94349421718E+01 -0.11795816040E+03  0.12130054623E+03  0.41800000000E+01 0. -1.
</event>
<event>
11    1  0.1078607E-008  0.1644201E+03  0.7561462E-02  0.1082992E+00
         22   -1    0    0    0    0  0.00000000000E+00  0.00000000000E+00  0.54348340454E+03  0.54348340454E+03  0.00000000000E+00 0. -1.
         22   -1    0    0    0    0 -0.00000000000E+00 -0.00000000000E+00 -0.38328585022E+03  0.38328585022E+03  0.00000000000E+00 0.  1.
        -24    2    1    2    0    0  0.27792098473E+02  0.46351004023E+02 -0.16581360135E+03  0.19057644248E+03  0.76840183001E+02 0.  0.
         25    2    1    2    0    0  0.67962643043E+02  0.53151159245E+01 -0.16989007528E+03  0.22171464985E+03  0.12509027529E+03 0.  0.
         24    2    1    2    0    0 -0.95754741516E+02 -0.51666119948E+02  0.49590123095E+03  0.51447816243E+03  0.83254971536E+02 0.  0.
        -13    1    5    5    0    0  0.93286011164E+01  0.46036564231E+00  0.12775151953E+03  0.12809248799E+03  0.00000000000E+00 0.  1.
         14    1    5    5    0    0 -0.10508334263E+03 -0.52126485590E+02  0.36814971142E+03  0.38638567444E+03  0.00000000000E+00 0. -1.
         13    1    3    3    0    0  0.15387376791E+02 -0.18006152204E+02 -0.21133348827E+02  0.31742893919E+02  0.00000000000E+00 0. -1.
        -14    1    3    3    0    0  0.12404721681E+02  0.64357156228E+02 -0.14468025253E+03  0.15883354856E+03  0.00000000000E+00 0.  1.
          5    1    4    4  501    0  0.96072328879E+02  0.15352678212E+02 -0.77266520940E+02  0.12431083928E+03  0.41800000000E+01 0.  1.
         -5    1    4    4    0  501 -0.28109685835E+02 -0.10037562287E+02 -0.92623554339E+02  0.97403810566E+02  0.41800000000E+01 0.  1.
</event>
<event>
11    1  0.1078607E-008  0.1689998E+03  0.7561462E-02  0.1078905E+00
         22   -1    0    0    0    0  0.00000000000E+00  0.00000000000E+00  0.23658740016E+03  0.23658740016E+03  0.00000000000E+00 0.  1.
         22   -1    0    0    0    0 -0.00000000000E+00 -0.00000000000E+00 -0.81934801478E+03  0.81934801478E+03  0.00000000000E+00 0.  1.
        -24    2    1    2    0    0  0.10914746224E+02  0.69326264140E+02 -0.70939777826E+03  0.71731273132E+03  0.79794010649E+02 0.  0.
         25    2    1    2    0    0 -0.32285344561E+02 -0.15105896966E+03  0.98056056635E+02  0.22163718210E+03  0.12508754717E+03 0.  0.
         24    2    1    2    0    0  0.21370598337E+02  0.81732705517E+02  0.28581107004E+02  0.11698550152E+03  0.75708587785E+02 0.  0.
        -13    1    5    5    0    0  0.45008090413E+02  0.25295027541E+02  0.69904247119E+01  0.52100217452E+02  0.00000000000E+00 0.  1.
         14    1    5    5    0    0 -0.23637492076E+02  0.56437677977E+02  0.21590682292E+02  0.64885284070E+02  0.00000000000E+00 0. -1.
         13    1    3    3    0    0  0.27096727137E+02  0.44297193566E+02 -0.18730275854E+03  0.19436768593E+03  0.00000000000E+00 0. -1.
        -14    1    3    3    0    0 -0.16181980914E+02  0.25029070574E+02 -0.52209501972E+03  0.52294504539E+03  0.00000000000E+00 0.  1.
          5    1    4    4  501    0 -0.61498852240E+02 -0.15588137450E+03  0.91690340810E+02  0.19106465591E+03  0.41800000000E+01 0. -1.
         -5    1    4    4    0  501  0.29213507679E+02  0.48224048384E+01  0.63657158249E+01  0.30572526184E+02  0.41800000000E+01 0. -1.
</event>
<event>
11    1  0.1587833E-008  0.1425758E+03  0.7561462E-02  0.1104716E+00
         22   -1    0    0    0    0  0.00000000000E+00  0.00000000000E+00  0.37604489930E+03  0.37604489930E+03  0.00000000000E+00 0.  1.
         22   -1    0    0    0    0 -0.00000000000E+00 -0.00000000000E+00 -0.15246650864E+04  0.15246650864E+04  0.00000000000E+00 0. -1.
         24    2    1    2    0    0  0.55058800107E+02 -0.19389566608E+02 -0.12582794341E+04  0.12622217768E+04  0.80803791913E+02 0.  0.
         25    2    1    2    0    0  0.11981490898E+02 -0.13019320040E+01 -0.24110505289E+03  0.27189006979E+03  0.12508921765E+03 0.  0.
        -24    2    1    2    0    0 -0.67040291006E+02  0.20691498612E+02  0.35076429989E+03  0.36659813910E+03  0.80225075802E+02 0.  0.
        -11    1    3    3    0    0 -0.41679951147E+01 -0.25064549948E+02 -0.13516556906E+03  0.13753303205E+03  0.00000000000E+00 0.  1.
         12    1    3    3    0    0  0.59226795222E+02  0.56749833404E+01 -0.11231138650E+04  0.11246887447E+04  0.00000000000E+00 0. -1.
         13    1    5    5    0    0 -0.30908210628E+02  0.65284287210E+01  0.30233425607E+02  0.43726398087E+02  0.00000000000E+00 0. -1.
        -14    1    5    5    0    0 -0.36132080378E+02  0.14163069891E+02  0.32053087428E+03  0.32287174102E+03  0.00000000000E+00 0.  1.
          5    1    4    4  501    0 -0.28575140983E+02  0.49295907795E+02 -0.14528406997E+03  0.15611392826E+03  0.41800000000E+01 0.  1.
         -5    1    4    4    0  501  0.40556631881E+02 -0.50597839800E+02 -0.95820982912E+02  0.11577614153E+03  0.41800000000E+01 0.  1.
</event>
<event>
11    1  0.1078607E-008  0.1491151E+03  0.7561462E-02  0.1097786E+00
         22   -1    0    0    0    0  0.00000000000E+00  0.00000000000E+00  0.14626100304E+03  0.14626100304E+03  0.00000000000E+00 0.  1.
         22   -1    0    0    0    0 -0.00000000000E+00 -0.00000000000E+00 -0.12205244257E+04  0.12205244257E+04  0.00000000000E+00 0. -1.
        -24    2    1    2    0    0  0.41622747990E+02 -0.51183336463E+01 -0.95391844444E+03  0.95816756577E+03  0.79787436143E+02 0.  0.
         25    2    1    2    0    0  0.39741678130E+02 -0.20927345006E+02 -0.21859948513E+03  0.25582606707E+03  0.12507552497E+03 0.  0.
         24    2    1    2    0    0 -0.81364426119E+02  0.26045678652E+02  0.98254506859E+02  0.15279179595E+03  0.79955222324E+02 0.  0.
        -11    1    5    5    0    0 -0.26635209826E+01  0.61867630626E+01  0.64556328701E+02  0.64906778972E+02  0.00000000000E+00 0.  1.
         12    1    5    5    0    0 -0.78700905137E+02  0.19858915590E+02  0.33698178159E+02  0.87885016976E+02  0.00000000000E+00 0. -1.
         13    1    3    3    0    0  0.61840680127E+02 -0.80622059343E+01 -0.84841854539E+03  0.85070752732E+03  0.00000000000E+00 0. -1.
        -14    1    3    3    0    0 -0.20217932137E+02  0.29438722880E+01 -0.10549989905E+03  0.10746003845E+03  0.00000000000E+00 0.  1.
          5    1    4    4  501    0  0.61195697350E+02  0.35156343219E+02 -0.95749134211E+02  0.11902206075E+03  0.41800000000E+01 0. -1.
         -5    1    4    4    0  501 -0.21454019221E+02 -0.56083688225E+02 -0.12285035091E+03  0.13680400632E+03  0.41800000000E+01 0. -1.
</event>
<event>
11    1  0.1078607E-008  0.1745909E+03  0.7561462E-02  0.1074104E+00
         22   -1    0    0    0    0  0.00000000000E+00  0.00000000000E+00  0.31777370843E+04  0.31777370843E+04  0.00000000000E+00 0. -1.
         22   -1    0    0    0    0 -0.00000000000E+00 -0.00000000000E+00 -0.14150880366E+04  0.14150880366E+04  0.00000000000E+00 0. -1.
         24    2    1    2    0    0  0.10498023925E+03  0.61260146983E+02 -0.13847688514E+04  0.13924056716E+04  0.80219238213E+02 0.  0.
         25    2    1    2    0    0 -0.12762792223E+03 -0.67445296836E+02  0.32654310272E+03  0.37830852001E+03  0.12509669771E+03 0.  0.
        -24    2    1    2    0    0  0.22647682981E+02  0.61851498526E+01  0.28208747965E+04  0.28221109292E+04  0.80151767398E+02 0.  0.
        -13    1    3    3    0    0  0.74028866396E+02 -0.97207246531E+00 -0.59606802362E+03  0.60064823879E+03  0.00000000000E+00 0.  1.
         14    1    3    3    0    0  0.30951372857E+02  0.62232219449E+02 -0.78870082783E+03  0.79175743283E+03  0.00000000000E+00 0. -1.
         13    1    5    5    0    0  0.38384428695E+02 -0.24839896514E+02  0.19606278048E+04  0.19611608230E+04  0.00000000000E+00 0. -1.
        -14    1    5    5    0    0 -0.15736745714E+02  0.31025046366E+02  0.86024699172E+03  0.86095010623E+03  0.00000000000E+00 0.  1.
          5    1    4    4  501    0 -0.22693812794E+01 -0.54358673893E+02  0.16235228988E+03  0.17127683424E+03  0.41800000000E+01 0. -1.
         -5    1    4    4    0  501 -0.12535854095E+03 -0.13086622943E+02  0.16419081284E+03  0.20703168577E+03  0.41800000000E+01 0. -1.
</event>
<event>
11    1  0.1078607E-008  0.1991546E+03  0.7561462E-02  0.1055123E+00
         22   -1    0    0    0    0  0.00000000000E+00  0.00000000000E+00  0.55945985276E+03  0.55945985276E+03  0.00000000000E+00 0.  1.
         22   -1    0    0    0    0 -0.00000000000E+00 -0.00000000000E+00 -0.13401938215E+03  0.13401938215E+03  0.00000000000E+00 0.  1.
        -24    2    1    2    0    0 -0.15942498740E+03  0.68962482545E+02  0.43255125292E+02  0.19540184364E+03  0.78350009763E+02 0.  0.
         25    2    1    2    0    0  0.92455202225E+02 -0.96418923628E+02  0.13441111064E+03  0.22706499217E+03  0.12509033038E+03 0.  0.
         24    2    1    2    0    0  0.66969785174E+02  0.27456441083E+02  0.24777423468E+03  0.27101239909E+03  0.82564161767E+02 0.  0.
        -13    1    5    5    0    0  0.71727524891E+02  0.33164026111E+02  0.25082585244E+03  0.26297965455E+03  0.00000000000E+00 0.  1.
         14    1    5    5    0    0 -0.47577397164E+01 -0.57075850278E+01 -0.30516177555E+01  0.80327445487E+01  0.00000000000E+00 0. -1.
         13    1    3    3    0    0 -0.11287117574E+03  0.70755592914E+01  0.24300832844E+02  0.11567409533E+03  0.00000000000E+00 0. -1.
        -14    1    3    3    0    0 -0.46553811654E+02  0.61886923253E+02  0.18954292449E+02  0.79727748316E+02  0.00000000000E+00 0.  1.
          5    1    4    4  501    0 -0.74889117359E+01 -0.62744210900E+02  0.10329397382E+02  0.64164543563E+02  0.41800000000E+01 0. -1.
         -5    1    4    4    0  501  0.99944113961E+02 -0.33674712728E+02  0.12408171326E+03  0.16290044861E+03  0.41800000000E+01 0. -1.
</event>
<event>
11    1  0.1078607E-008  0.1500497E+03  0.7561462E-02  0.1096828E+00
         22   -1    0    0    0    0  0.00000000000E+00  0.00000000000E+00  0.74496391716E+02  0.74496391716E+02  0.00000000000E+00 0.  1.
         22   -1    0    0    0    0 -0.00000000000E+00 -0.00000000000E+00 -0.18972717368E+04  0.18972717368E+04  0.00000000000E+00 0. -1.
        -24    2    1    2    0    0 -0.75657179263E+02  0.23415849212E+02 -0.15538921252E+04  0.15579773537E+04  0.80252022473E+02 0.  0.
         25    2    1    2    0    0  0.14831245624E+03 -0.43735772221E+02 -0.20768238995E+03  0.28755744010E+03  0.12509158170E+03 0.  0.
         24    2    1    2    0    0 -0.72655276979E+02  0.20319923009E+02 -0.61200829939E+02  0.12623333472E+03  0.80607844939E+02 0.  0.
        -11    1    5    5    0    0 -0.77829952844E+02  0.28437635275E+02 -0.21812140854E+02  0.85685297154E+02  0.00000000000E+00 0.  1.
         12    1    5    5    0    0  0.51746758655E+01 -0.81177122662E+01 -0.39388689085E+02  0.40548037567E+02  0.00000000000E+00 0. -1.
         13    1    3    3    0    0 -0.72350033170E+02  0.48562406457E+02 -0.12450999174E+04  0.12481452796E+04  0.00000000000E+00 0. -1.
        -14    1    3    3    0    0 -0.33071460922E+01 -0.25146557245E+02 -0.30879220772E+03  0.30983207405E+03  0.00000000000E+00 0.  1.
          5    1    4    4  501    0  0.16125794881E+03 -0.48976443758E+02 -0.14242787246E+03  0.22069433466E+03  0.41800000000E+01 0. -1.
         -5    1    4    4    0  501 -0.12945492571E+02  0.52406715362E+01 -0.65254517487E+02  0.66863105435E+02  0.41800000000E+01 0. -1.
</event>
<event>
11    1  0.1078607E-008  0.1313451E+03  0.7561462E-02  0.1117627E+00
         22   -1    0    0    0    0  0.00000000000E+00  0.00000000000E+00  0.52404068443E+03  0.52404068443E+03  0.00000000000E+00 0. -1.
         22   -1    0    0    0    0 -0.00000000000E+00 -0.00000000000E+00 -0.50442619795E+03  0.50442619795E+03  0.00000000000E+00 0. -1.
         24    2    1    2    0    0  0.29997574048E+02 -0.15682677028E+02 -0.33530781955E+03  0.34822393845E+03  0.87651449796E+02 0.  0.
         25    2    1    2    0    0 -0.69791005428E+02  0.20653023311E+02 -0.12547028490E+03  0.19153836371E+03  0.12508725182E+03 0.  0.
        -24    2    1    2    0    0  0.39793431380E+02 -0.49703462832E+01  0.48039259094E+03  0.48870458022E+03  0.80292613458E+02 0.  0.
        -13    1    3    3    0    0  0.47863033537E+02  0.45714289019E+01 -0.95704443774E+02  0.10710326092E+03  0.00000000000E+00 0.  1.
         14    1    3    3    0    0 -0.17865459489E+02 -0.20254105930E+02 -0.23960337578E+03  0.24112067753E+03  0.00000000000E+00 0. -1.
         13    1    5    5    0    0  0.11499249624E+02 -0.17363515935E+02  0.42312717917E+03  0.42363939167E+03  0.00000000000E+00 0. -1.
        -14    1    5    5    0    0  0.28294181756E+02  0.12393169652E+02  0.57265411775E+02  0.65065188550E+02  0.00000000000E+00 0.  1.
          5    1    4    4  501    0 -0.60259442047E+02  0.92338840357E+01 -0.15032656051E+03  0.16227141512E+03  0.41800000000E+01 0. -1.
         -5    1    4    4    0  501 -0.95315633816E+01  0.11419139275E+02  0.24856275609E+02  0.29266948584E+02  0.41800000000E+01 0. -1.
</event>
<event>
11    1  0.1078607E-008  0.1576011E+03  0.7561462E-02  0.1089355E+00
         22   -1    0    0    0    0  0.00000000000E+00  0.00000000000E+00  0.58625602112E+03  0.58625602112E+03  0.00000000000E+00 0.  1.
         22   -1    0    0    0    0 -0.00000000000E+00 -0.00000000000E+00 -0.96280266721E+03  0.96280266721E+03  0.00000000000E+00 0.  1.
        -24    2    1    2    0    0 -0.27645147757E+02  0.45899283178E+02 -0.76835288677E+03  0.77434629403E+03  0.79843760413E+02 0.  0.
         25    2    1    2    0    0  0.74408492485E+02  0.38916121260E+02 -0.15355067735E+03  0.21511844111E+03  0.12508814869E+03 0.  0.
         24    2    1    2    0    0 -0.46763344728E+02 -0.84815404438E+02  0.54535691803E+03  0.55959395319E+03  0.79691663078E+02 0.  0.
        -13    1    5    5    0    0 -0.29506963443E+02 -0.91812991173E+02  0.51522278220E+03  0.52417058438E+03  0.00000000000E+00 0.  1.
         14    1    5    5    0    0 -0.17256381285E+02  0.69975867346E+01  0.30134135835E+02  0.35423368808E+02  0.00000000000E+00 0. -1.
         13    1    3    3    0    0 -0.19476021020E+02  0.51682880223E+02 -0.25575241571E+03  0.26164811034E+03  0.00000000000E+00 0. -1.
        -14    1    3    3    0    0 -0.81691267372E+01 -0.57835970454E+01 -0.51260047106E+03  0.51269818369E+03  0.00000000000E+00 0.  1.
          5    1    4    4  501    0  0.51079884454E+02  0.79989952432E+02 -0.13297991970E+03  0.16342790010E+03  0.41800000000E+01 0. -1.
         -5    1    4    4    0  501  0.23328608031E+02 -0.41073831171E+02 -0.20570757647E+02  0.51690541010E+02  0.41800000000E+01 0. -1.
</event>
<event>
11    1  0.1078607E-008  0.1328169E+03  0.7561462E-02  0.1115856E+00
         22   -1    0    0    0    0  0.00000000000E+00  0.00000000000E+00  0.23983334783E+03  0.23983334783E+03  0.00000000000E+00 0.  1.
         22   -1    0    0    0    0 -0.00000000000E+00 -0.00000000000E+00 -0.61507533674E+03  0.61507533674E+03  0.00000000000E+00 0.  1.
         24    2    1    2    0    0  0.18630063361E+02 -0.16751553854E+02 -0.46512999176E+03  0.47282448960E+03  0.81175088037E+02 0.  0.
         25    2    1    2    0    0 -0.49854664204E+02 -0.14994605167E+02 -0.10203010288E+03  0.16961094532E+03  0.12508958850E+03 0.  0.
        -24    2    1    2    0    0  0.31224600843E+02  0.31746159021E+02  0.19191810573E+03  0.21247324966E+03  0.79558332087E+02 0.  0.
        -11    1    3    3    0    0  0.19154988046E+01  0.20753318795E+02 -0.34949216837E+03  0.35011304622E+03  0.00000000000E+00 0.  1.
         12    1    3    3    0    0  0.16714564556E+02 -0.37504872649E+02 -0.11563782338E+03  0.12271144338E+03  0.00000000000E+00 0. -1.
         13    1    5    5    0    0  0.37809217606E+02  0.73456732774E+01  0.30612686226E+02  0.49199922864E+02  0.00000000000E+00 0. -1.
        -14    1    5    5    0    0 -0.65846167625E+01  0.24400485744E+02  0.16130541950E+03  0.16327332679E+03  0.00000000000E+00 0.  1.
          5    1    4    4  501    0 -0.54265190479E+00  0.26470745914E+02  0.18712735186E+02  0.32689963574E+02  0.41800000000E+01 0. -1.
         -5    1    4    4    0  501 -0.49312012299E+02 -0.41465351081E+02 -0.12074283807E+03  0.13692098174E+03  0.41800000000E+01 0. -1.
</event>
<event>
11    1  0.1078607E-008  0.1575721E+03  0.7561462E-02  0.1089383E+00
         22   -1    0    0    0    0  0.00000000000E+00  0.00000000000E+00  0.31849510068E+03  0.31849510068E+03  0.00000000000E+00 0. -1.
         22   -1    0    0    0    0 -0.00000000000E+00 -0.00000000000E+00 -0.15194687707E+04  0.15194687707E+04  0.00000000000E+00 0. -1.
         24    2    1    2    0    0  0.72176390665E+00 -0.93521949346E+02 -0.13601275759E+04  0.13656964954E+04  0.80206102007E+02 0.  0.
         25    2    1    2    0    0  0.44350043122E+02  0.15729076794E+03 -0.69936454082E+02  0.21734905721E+03  0.12506875331E+03 0.  0.
        -24    2    1    2    0    0 -0.45071807028E+02 -0.63768818597E+02  0.22909035993E+03  0.25491831883E+03  0.80018911830E+02 0.  0.
        -11    1    3    3    0    0 -0.87887006516E+01 -0.80077366103E+02 -0.59922966112E+03  0.60462038718E+03  0.00000000000E+00 0.  1.
         12    1    3    3    0    0  0.95104645583E+01 -0.13444583243E+02 -0.76089791478E+03  0.76107610820E+03  0.00000000000E+00 0. -1.
         11    1    5    5    0    0 -0.21628449629E+02 -0.61908136386E+02  0.22023224571E+03  0.22978827045E+03  0.00000000000E+00 0. -1.
        -12    1    5    5    0    0 -0.23443357400E+02 -0.18606822111E+01  0.88581142198E+01  0.25130048388E+02  0.00000000000E+00 0.  1.
          5    1    4    4  501    0 -0.68813527298E+01  0.15399227310E+03 -0.49786265880E+02  0.16204048216E+03  0.41800000000E+01 0. -1.
         -5    1    4    4    0  501  0.51231395851E+02  0.32984948455E+01 -0.20150188202E+02  0.55308575047E+02  0.41800000000E+01 0. -1.
</event>
<event>
11    1  0.1078607E-008  0.1704471E+03  0.7561462E-02  0.1077643E+00
         22   -1    0    0    0    0  0.00000000000E+00  0.00000000000E+00  0.66541801448E+03  0.66541801448E+03  0.00000000000E+00 0. -1.
         22   -1    0    0    0    0 -0.00000000000E+00 -0.00000000000E+00 -0.24689207065E+04  0.24689207065E+04  0.00000000000E+00 0.  1.
        -24    2    1    2    0    0 -0.86977950107E+01  0.51283523842E+01 -0.21543552028E+04  0.21558469808E+04  0.79548181984E+02 0.  0.
         25    2    1    2    0    0  0.39973900668E+02 -0.11641828293E+03 -0.28069098389E+03  0.33103522639E+03  0.12508302579E+03 0.  0.
         24    2    1    2    0    0 -0.31276105658E+02  0.11128993055E+03  0.63154349463E+03  0.64745651380E+03  0.83600886480E+02 0.  0.
        -13    1    5    5    0    0  0.21087696663E+02  0.17583689182E+02  0.60884563568E+02  0.66789274264E+02  0.00000000000E+00 0.  1.
         14    1    5    5    0    0 -0.52363802321E+02  0.93706241367E+02  0.57065893107E+03  0.58066723954E+03  0.00000000000E+00 0. -1.
         11    1    3    3    0    0  0.33290240499E+02 -0.11100481162E+02 -0.99148974384E+03  0.99211056487E+03  0.00000000000E+00 0. -1.
        -12    1    3    3    0    0 -0.41988035510E+02  0.16228833546E+02 -0.11628654590E+04  0.11637364160E+04  0.00000000000E+00 0.  1.
          5    1    4    4  501    0  0.68664622769E+02 -0.91071573485E+02 -0.26664189682E+03  0.29004178226E+03  0.41800000000E+01 0. -1.
         -5    1    4    4    0  501 -0.28690722101E+02 -0.25346709448E+02 -0.14049087075E+02  0.40993444136E+02  0.41800000000E+01 0. -1.
</event>
<event>
11    1  0.1078607E-008  0.1369860E+03  0.7561462E-02  0.1110971E+00
         22   -1    0    0    0    0  0.00000000000E+00  0.00000000000E+00  0.35809471000E+03  0.35809471000E+03  0.00000000000E+00 0.  1.
         22   -1    0    0    0    0 -0.00000000000E+00 -0.00000000000E+00 -0.18181479846E+04  0.18181479846E+04  0.00000000000E+00 0. -1.
        -24    2    1    2    0    0  0.26145352725E+02 -0.57031391062E+02 -0.16813616320E+04  0.16835815156E+04  0.59444286246E+02 0.  0.
         25    2    1    2    0    0 -0.17160203156E+02 -0.21112981474E+01 -0.95193410300E+02  0.15814247856E+03  0.12509327724E+03 0.  0.
         24    2    1    2    0    0 -0.89851495696E+01  0.59142689209E+02  0.31650176767E+03  0.33451870045E+03  0.90281788920E+02 0.  0.
        -11    1    5    5    0    0 -0.21337391541E+02  0.23882836691E+02  0.28152404838E+03  0.28333983832E+03  0.00000000000E+00 0.  1.
         12    1    5    5    0    0  0.12352241972E+02  0.35259852518E+02  0.34977719292E+02  0.51178862123E+02  0.00000000000E+00 0. -1.
         11    1    3    3    0    0  0.40975747482E+02 -0.58609013239E+02 -0.13875854599E+04  0.13894270174E+04  0.00000000000E+00 0. -1.
        -12    1    3    3    0    0 -0.14830394756E+02  0.15776221769E+01 -0.29377617216E+03  0.29415449823E+03  0.00000000000E+00 0.  1.
          5    1    4    4  501    0  0.31205242381E+02  0.46768915831E+02 -0.32974106051E+02  0.65313572173E+02  0.41800000000E+01 0.  1.
         -5    1    4    4    0  501 -0.48365445536E+02 -0.48880213979E+02 -0.62219304248E+02  0.92828906391E+02  0.41800000000E+01 0.  1.
</event>
<event>
11    1  0.1078607E-008  0.1762098E+03  0.7561462E-02  0.1072751E+00
         22   -1    0    0    0    0  0.00000000000E+00  0.00000000000E+00  0.83227692536E+03  0.83227692536E+03  0.00000000000E+00 0. -1.
         22   -1    0    0    0    0 -0.00000000000E+00 -0.00000000000E+00 -0.17270598211E+03  0.17270598211E+03  0.00000000000E+00 0.  1.
        -24    2    1    2    0    0 -0.24746329114E+02  0.16010374642E+02 -0.11651131645E+03  0.14341418808E+03  0.78256179192E+02 0.  0.
         25    2    1    2    0    0 -0.91068006241E+02  0.44361337926E+02  0.16138174114E+03  0.22793172083E+03  0.12508993934E+03 0.  0.
         24    2    1    2    0    0  0.11581433535E+03 -0.60371712568E+02  0.61470051857E+03  0.63363699856E+03  0.81125917313E+02 0.  0.
        -13    1    5    5    0    0  0.17474984132E+01  0.16234200504E+02  0.62297963008E+02  0.64402167756E+02  0.00000000000E+00 0.  1.
         14    1    5    5    0    0  0.11406683694E+03 -0.76605913071E+02  0.55240255556E+03  0.56923483080E+03  0.00000000000E+00 0. -1.
         11    1    3    3    0    0  0.28083849774E+02  0.22520170136E+01 -0.30328364471E+02  0.41395457362E+02  0.00000000000E+00 0. -1.
        -12    1    3    3    0    0 -0.52830178888E+02  0.13758357628E+02 -0.86182951979E+02  0.10201873072E+03  0.00000000000E+00 0.  1.
          5    1    4    4  501    0 -0.82617243430E+02 -0.15067131211E+02  0.41435876033E+02  0.93739167788E+02  0.41800000000E+01 0. -1.
         -5    1    4    4    0  501 -0.84507628109E+01  0.59428469137E+02  0.11994586510E+03  0.13419255304E+03  0.41800000000E+01 0. -1.
</event>
<event>
11    1  0.1078607E-008  0.5098190E+03  0.7561462E-02  0.9371844E-01
         22   -1    0    0    0    0  0.00000000000E+00  0.00000000000E+00  0.38555864757E+04  0.38555864757E+04  0.00000000000E+00 0. -1.
         22   -1    0    0    0    0 -0.00000000000E+00 -0.00000000000E+00 -0.45719167673E+03  0.45719167673E+03  0.00000000000E+00 0.  1.
        -24    2    1    2    0    0 -0.24634465037E+03 -0.42270572165E+03 -0.26749430884E+03  0.56436208854E+03  0.87095050591E+02 0.  0.
         25    2    1    2    0    0  0.29654023561E+03  0.48298141776E+03  0.21144558549E+04  0.21926637402E+04  0.12507419452E+03 0.  0.
         24    2    1    2    0    0 -0.50195585238E+02 -0.60275696118E+02  0.15514332530E+04  0.15557523237E+04  0.85249035273E+02 0.  0.
        -13    1    5    5    0    0 -0.34116962940E+02  0.15363823338E+02  0.41063819100E+03  0.41233934827E+03  0.00000000000E+00 0.  1.
         14    1    5    5    0    0 -0.16078622298E+02 -0.75639519455E+02  0.11407950620E+04  0.11434129754E+04  0.00000000000E+00 0. -1.
         11    1    3    3    0    0 -0.62092118866E+02 -0.16683112652E+03 -0.64389184221E+02  0.18929876663E+03  0.00000000000E+00 0. -1.
        -12    1    3    3    0    0 -0.18425253151E+03 -0.25587459513E+03 -0.20310512462E+03  0.37506332191E+03  0.00000000000E+00 0.  1.
          5    1    4    4  501    0  0.17739684931E+03  0.17118574315E+03  0.88960409549E+03  0.92313981602E+03  0.41800000000E+01 0. -1.
         -5    1    4    4    0  501  0.11914338630E+03  0.31179567462E+03  0.12248517594E+04  0.12695239242E+04  0.41800000000E+01 0. -1.
</event>
<event>
11    1  0.1078607E-008  0.1326064E+03  0.7561462E-02  0.1116107E+00
         22   -1    0    0    0    0  0.00000000000E+00  0.00000000000E+00  0.17733272861E+03  0.17733272861E+03  0.00000000000E+00 0. -1.
         22   -1    0    0    0    0 -0.00000000000E+00 -0.00000000000E+00 -0.34662198683E+03  0.34662198683E+03  0.00000000000E+00 0.  1.
         24    2    1    2    0    0 -0.43703888701E+01 -0.33424553236E+02 -0.19153916885E+03  0.21171111194E+03  0.83654292521E+02 0.  0.
         25    2    1    2    0    0  0.44085852712E+02  0.11873225766E+02 -0.95175552863E+02  0.16367625833E+03  0.12508795217E+03 0.  0.
        -24    2    1    2    0    0 -0.39715463842E+02  0.21551327470E+02  0.11742546349E+03  0.14856734516E+03  0.79004675733E+02 0.  0.
        -13    1    3    3    0    0 -0.19269960931E+02 -0.52017086816E+02 -0.17253857067E+03  0.18123649490E+03  0.00000000000E+00 0.  1.
         14    1    3    3    0    0  0.14899572061E+02  0.18592533579E+02 -0.19000598181E+02  0.30474617040E+02  0.00000000000E+00 0. -1.
         11    1    5    5    0    0 -0.24722439318E+02  0.31740527036E+02  0.12315159628E+03  0.12955684362E+03  0.00000000000E+00 0. -1.
        -12    1    5    5    0    0 -0.14993024524E+02 -0.10189199566E+02 -0.57261327863E+01  0.19010501542E+02  0.00000000000E+00 0.  1.
          5    1    4    4  501    0  0.61142523280E+02 -0.21329984766E+02 -0.39391842792E+01  0.65010506658E+02  0.41800000000E+01 0.  1.
         -5    1    4    4    0  501 -0.17056670568E+02  0.33203210532E+02 -0.91236368584E+02  0.98665751671E+02  0.41800000000E+01 0.  1.
</event>
<event>
11    1  0.1078607E-008  0.1369571E+03  0.7561462E-02  0.1111005E+00
         22   -1    0    0    0    0  0.00000000000E+00  0.00000000000E+00  0.61529709456E+03  0.61529709456E+03  0.00000000000E+00 0. -1.
         22   -1    0    0    0    0 -0.00000000000E+00 -0.00000000000E+00 -0.10784970546E+04  0.10784970546E+04  0.00000000000E+00 0. -1.
        -24    2    1    2    0    0  0.48783942069E+02  0.29352186941E+02 -0.10076955863E+04  0.10126230885E+04  0.81937176009E+02 0.  0.
         25    2    1    2    0    0 -0.22603961032E+02 -0.12868569415E+02 -0.21750172948E+01  0.12778376571E+03  0.12508965164E+03 0.  0.
         24    2    1    2    0    0 -0.26179981036E+02 -0.16483617526E+02  0.54667064356E+03  0.55338729496E+03  0.80197285710E+02 0.  0.
        -13    1    5    5    0    0 -0.18350418270E+02  0.10930245150E+02  0.35556221455E+02  0.41478343673E+02  0.00000000000E+00 0.  1.
         14    1    5    5    0    0 -0.78295627661E+01 -0.27413862676E+02  0.51111442210E+03  0.51190895128E+03  0.00000000000E+00 0. -1.
         13    1    3    3    0    0  0.61584764526E+02  0.17498574920E+02 -0.95439412975E+03  0.95653909394E+03  0.00000000000E+00 0. -1.
        -14    1    3    3    0    0 -0.12800822457E+02  0.11853612021E+02 -0.53301456524E+02  0.56083994518E+02  0.00000000000E+00 0.  1.
          5    1    4    4  501    0 -0.40981549176E+02 -0.60102387041E+02 -0.16980999115E+02  0.74817184068E+02  0.41800000000E+01 0. -1.
         -5    1    4    4    0  501  0.18377588144E+02  0.47233817626E+02  0.14805981820E+02  0.52966581645E+02  0.41800000000E+01 0. -1.
</event>
<event>
11    1  0.1078607E-008  0.2909282E+03  0.7561462E-02  0.1004105E+00
         22   -1    0    0    0    0  0.00000000000E+00  0.00000000000E+00  0.15921679353E+04  0.15921679353E+04  0.00000000000E+00 0.  1.
         22   -1    0    0    0    0 -0.00000000000E+00 -0.00000000000E+00 -0.29581326403E+03  0.29581326403E+03  0.00000000000E+00 0. -1.
        -24    2    1    2    0    0 -0.11786877531E+03  0.93326955832E+02 -0.13533168775E+03  0.21848190641E+03  0.82563362582E+02 0.  0.
         25    2    1    2    0    0  0.14092347838E+03  0.17802888116E+03  0.56460848552E+02  0.26530620672E+03  0.12508335868E+03 0.  0.
         24    2    1    2    0    0 -0.23054703062E+02 -0.27135583699E+03  0.13752255105E+04  0.14041930862E+04  0.79671256245E+02 0.  0.
        -13    1    5    5    0    0 -0.50150046534E+02 -0.16057767438E+03  0.74798564806E+03  0.76666990705E+03  0.00000000000E+00 0.  1.
         14    1    5    5    0    0  0.27095343472E+02 -0.11077816262E+03  0.62723986241E+03  0.63752317914E+03  0.00000000000E+00 0. -1.
         13    1    3    3    0    0 -0.57011690077E+02 -0.25857422200E+01 -0.55800023742E+02  0.79816423860E+02  0.00000000000E+00 0. -1.
        -14    1    3    3    0    0 -0.60857085236E+02  0.95912698052E+02 -0.79531664011E+02  0.13866548255E+03  0.00000000000E+00 0.  1.
          5    1    4    4  501    0  0.80873784553E+02  0.16763075092E+03  0.76129500545E+02  0.20113132758E+03  0.41800000000E+01 0. -1.
         -5    1    4    4    0  501  0.60049693823E+02  0.10398130241E+02 -0.19668651993E+02  0.64174879134E+02  0.41800000000E+01 0. -1.
</event>
<event>
11    1  0.1078607E-008  0.1378798E+03  0.7561462E-02  0.1109949E+00
         22   -1    0    0    0    0  0.00000000000E+00  0.00000000000E+00  0.15205202110E+04  0.15205202110E+04  0.00000000000E+00 0. -1.
         22   -1    0    0    0    0 -0.00000000000E+00 -0.00000000000E+00 -0.96806222983E+03  0.96806222983E+03  0.00000000000E+00 0. -1.
         24    2    1    2    0    0  0.11118266668E+02 -0.31568952155E+02 -0.94120023845E+03  0.94519629776E+03  0.80112033032E+02 0.  0.
         25    2    1    2    0    0 -0.59180075672E+02 -0.20126739777E+01  0.18584169175E+03  0.23171415529E+03  0.12509189884E+03 0.  0.
        -24    2    1    2    0    0  0.48061809004E+02  0.33581626132E+02  0.13078165279E+04  0.13116719878E+04  0.81619053468E+02 0.  0.
        -11    1    3    3    0    0  0.12541910158E+02 -0.21762146712E+02 -0.78109483739E+02  0.82048656234E+02  0.00000000000E+00 0.  1.
         12    1    3    3    0    0 -0.14236434896E+01 -0.98068054427E+01 -0.86309075471E+03  0.86314764152E+03  0.00000000000E+00 0. -1.
         13    1    5    5    0    0  0.65098411322E+02  0.45277061760E+02  0.97849138404E+03  0.98169914135E+03  0.00000000000E+00 0. -1.
        -14    1    5    5    0    0 -0.17036602318E+02 -0.11695435628E+02  0.32932514385E+03  0.32997284647E+03  0.00000000000E+00 0.  1.
          5    1    4    4  501    0 -0.55817914059E+02  0.28768149923E+02  0.19003896275E+03  0.20018872532E+03  0.41800000000E+01 0.  1.
         -5    1    4    4    0  501 -0.33621616133E+01 -0.30780823901E+02 -0.41972710057E+01  0.31525429967E+02  0.41800000000E+01 0.  1.
</event>
<event>
11    1  0.1078607E-008  0.3521261E+03  0.7561462E-02  0.9802635E-01
         22   -1    0    0    0    0  0.00000000000E+00  0.00000000000E+00  0.72428317521E+03  0.72428317521E+03  0.00000000000E+00 0.  1.
         22   -1    0    0    0    0 -0.00000000000E+00 -0.00000000000E+00 -0.62756905642E+03  0.62756905642E+03  0.00000000000E+00 0. -1.
         24    2    1    2    0    0 -0.98967498577E+02  0.31158701833E+03 -0.41469821161E+03  0.53369958099E+03  0.77327875097E+02 0.  0.
         25    2    1    2    0    0  0.14706796252E+03 -0.30661210074E+03  0.72784373929E+02  0.36957157289E+03  0.12508243874E+03 0.  0.
        -24    2    1    2    0    0 -0.48100463946E+02 -0.49749175958E+01  0.43862795647E+03  0.44858107775E+03  0.80573535881E+02 0.  0.
        -13    1    3    3    0    0 -0.92144662415E+02  0.16958200779E+03 -0.25660594446E+03  0.32108457906E+03  0.00000000000E+00 0.  1.
         14    1    3    3    0    0 -0.68228361617E+01  0.14200501055E+03 -0.15809226715E+03  0.21261500193E+03  0.00000000000E+00 0. -1.
         11    1    5    5    0    0  0.10185234411E+02 -0.64682092914E+01  0.90960947051E+01  0.15110118144E+02  0.00000000000E+00 0. -1.
        -12    1    5    5    0    0 -0.58285698358E+02  0.14932916956E+01  0.42953186176E+03  0.43347095960E+03  0.00000000000E+00 0.  1.
          5    1    4    4  501    0  0.37780418988E+02 -0.47341984237E+02 -0.32817910083E+02  0.69015296512E+02  0.41800000000E+01 0.  1.
         -5    1    4    4    0  501  0.10928754354E+03 -0.25927011650E+03  0.10560228401E+03  0.30055627638E+03  0.41800000000E+01 0.  1.
</event>
<event>
11    1  0.1078607E-008  0.1506834E+03  0.7561462E-02  0.1096183E+00
         22   -1    0    0    0    0  0.00000000000E+00  0.00000000000E+00  0.29242243860E+03  0.29242243860E+03  0.00000000000E+00 0.  1.
         22   -1    0    0    0    0 -0.00000000000E+00 -0.00000000000E+00 -0.17159296677E+04  0.17159296677E+04  0.00000000000E+00 0. -1.
        -24    2    1    2    0    0 -0.81188516704E+02  0.13923735278E+02 -0.13798604168E+04  0.13846370392E+04  0.80121874000E+02 0.  0.
         25    2    1    2    0    0  0.87392987639E+02 -0.64756463858E+02 -0.30352376005E+03  0.34583941116E+03  0.12508913422E+03 0.  0.
         24    2    1    2    0    0 -0.62044709351E+01  0.50832728580E+02  0.25987694770E+03  0.27787565603E+03  0.84002324447E+02 0.  0.
        -13    1    5    5    0    0  0.37469328999E+02  0.11557597036E+02  0.11703617416E+03  0.12343012083E+03  0.00000000000E+00 0.  1.
         14    1    5    5    0    0 -0.43673799934E+02  0.39275131544E+02  0.14284077354E+03  0.15444553520E+03  0.00000000000E+00 0. -1.
         11    1    3    3    0    0 -0.73214276537E+02 -0.19563234373E+02 -0.11110461318E+04  0.11136276566E+04  0.00000000000E+00 0. -1.
        -12    1    3    3    0    0 -0.79742401670E+01  0.33486969652E+02 -0.26881428496E+03  0.27100938257E+03  0.00000000000E+00 0.  1.
          5    1    4    4  501    0  0.18713681126E+01 -0.93845605504E+01  0.11019333237E+02  0.15181241725E+02  0.41800000000E+01 0. -1.
         -5    1    4    4    0  501  0.85521619527E+02 -0.55371903308E+02 -0.31454309328E+03  0.33065816943E+03  0.41800000000E+01 0. -1.
</event>
<event>
11    1  0.1078607E-008  0.1524025E+03  0.7561462E-02  0.1094449E+00
         22   -1    0    0    0    0  0.00000000000E+00  0.00000000000E+00  0.97560959589E+03  0.97560959589E+03  0.00000000000E+00 0. -1.
         22   -1    0    0    0    0 -0.00000000000E+00 -0.00000000000E+00 -0.54788800753E+03  0.54788800753E+03  0.00000000000E+00 0. -1.
         24    2    1    2    0    0 -0.68593223494E+02  0.52618898149E+02 -0.52001139885E+03  0.53324713970E+03  0.80416903180E+02 0.  0.
         25    2    1    2    0    0  0.11103819825E+03 -0.83556844888E+02  0.54759722031E+03  0.57863705856E+03  0.12508757755E+03 0.  0.
        -24    2    1    2    0    0 -0.42444974759E+02  0.30937946739E+02  0.40013576690E+03  0.41161340515E+03  0.80982905092E+02 0.  0.
        -13    1    3    3    0    0 -0.62340617494E+02  0.65311901760E+02 -0.31325642997E+03  0.32600857047E+03  0.00000000000E+00 0.  1.
         14    1    3    3    0    0 -0.62526059999E+01 -0.12693003611E+02 -0.20675496888E+03  0.20723856924E+03  0.00000000000E+00 0. -1.
         13    1    5    5    0    0 -0.55035139530E+01  0.27613491991E+02  0.33856476167E+03  0.33973355950E+03  0.00000000000E+00 0. -1.
        -14    1    5    5    0    0 -0.36941460806E+02  0.33244547479E+01  0.61571005228E+02  0.71879845650E+02  0.00000000000E+00 0.  1.
          5    1    4    4  501    0 -0.26966886530E+02 -0.17732024542E+02  0.12655478531E+03  0.13067219960E+03  0.41800000000E+01 0. -1.
         -5    1    4    4    0  501  0.13800508478E+03 -0.65824820346E+02  0.42104243499E+03  0.44796485896E+03  0.41800000000E+01 0. -1.
</event>
<event>
11    1  0.1078607E-008  0.1566929E+03  0.7561462E-02  0.1090230E+00
         22   -1    0    0    0    0  0.00000000000E+00  0.00000000000E+00  0.93807914236E+03  0.93807914236E+03  0.00000000000E+00 0. -1.
         22   -1    0    0    0    0 -0.00000000000E+00 -0.00000000000E+00 -0.24174585914E+03  0.24174585914E+03  0.00000000000E+00 0. -1.
         24    2    1    2    0    0  0.15758553100E+02  0.88335940418E+02 -0.17814945100E+03  0.21527282059E+03  0.80954246517E+02 0.  0.
         25    2    1    2    0    0 -0.16519145464E+02 -0.15413560680E+03  0.20017230028E+03  0.28239423260E+03  0.12508751080E+03 0.  0.
        -24    2    1    2    0    0  0.76059236463E+00  0.65799666385E+02  0.67431043394E+03  0.68215794830E+03  0.79465278712E+02 0.  0.
        -13    1    3    3    0    0 -0.21822108651E+02  0.12629455390E+02 -0.10091453300E+02  0.27157779716E+02  0.00000000000E+00 0.  1.
         14    1    3    3    0    0  0.37580661751E+02  0.75706485028E+02 -0.16805799770E+03  0.18811504088E+03  0.00000000000E+00 0. -1.
         11    1    5    5    0    0  0.17759443998E+02  0.65639754572E+02  0.64251500680E+03  0.64610332703E+03  0.00000000000E+00 0. -1.
        -12    1    5    5    0    0 -0.16998851633E+02  0.15991181329E+00  0.31795427137E+02  0.36054621278E+02  0.00000000000E+00 0.  1.
          5    1    4    4  501    0 -0.65747624716E+02 -0.49466420412E+02  0.69041207105E+02  0.10748877887E+03  0.41800000000E+01 0. -1.
         -5    1    4    4    0  501  0.49228479251E+02 -0.10466918639E+03  0.13113109318E+03  0.17490545374E+03  0.41800000000E+01 0. -1.
</event>
<event>
11    1  0.1078607E-008  0.1978177E+03  0.7561462E-02  0.1056078E+00
         22   -1    0    0    0    0  0.00000000000E+00  0.00000000000E+00  0.18380790310E+03  0.18380790310E+03  0.00000000000E+00 0.  1.
         22   -1    0    0    0    0 -0.00000000000E+00 -0.00000000000E+00 -0.80279190924E+03  0.80279190924E+03  0.00000000000E+00 0.  1.
         24    2    1    2    0    0  0.13716424392E+03 -0.23549706134E+02 -0.14254235846E+03  0.21509587706E+03  0.81112846736E+02 0.  0.
         25    2    1    2    0    0 -0.27670903926E+03  0.15571508336E+02 -0.52094198420E+03  0.60318727782E+03  0.12507588474E+03 0.  0.
        -24    2    1    2    0    0  0.13954479534E+03  0.79781977977E+01  0.44500336517E+02  0.16831665745E+03  0.82545839858E+02 0.  0.
        -11    1    3    3    0    0  0.23559510986E+02 -0.36639070442E+02 -0.59625911667E+02  0.73842544531E+02  0.00000000000E+00 0.  1.
         12    1    3    3    0    0  0.11360473293E+03  0.13089364309E+02 -0.82916446791E+02  0.14125333253E+03  0.00000000000E+00 0. -1.
         11    1    5    5    0    0 -0.86857452504E+01 -0.72848550965E+01  0.10545398428E+02  0.15482787615E+02  0.00000000000E+00 0. -1.
        -12    1    5    5    0    0  0.14823054059E+03  0.15263052894E+02  0.33954938089E+02  0.15283386984E+03  0.00000000000E+00 0.  1.
          5    1    4    4  501    0 -0.70311486019E+02  0.54526682143E+02 -0.20797984812E+03  0.22625196962E+03  0.41800000000E+01 0. -1.
         -5    1    4    4    0  501 -0.20639755324E+03 -0.38955173807E+02 -0.31296213608E+03  0.37693530820E+03  0.41800000000E+01 0. -1.
</event>
<event>
11    1  0.1078607E-008  0.1537010E+03  0.7561462E-02  0.1093156E+00
         22   -1    0    0    0    0  0.00000000000E+00  0.00000000000E+00  0.32182665000E+03  0.32182665000E+03  0.00000000000E+00 0. -1.
         22   -1    0    0    0    0 -0.00000000000E+00 -0.00000000000E+00 -0.59021261718E+03  0.59021261718E+03  0.00000000000E+00 0.  1.
         24    2    1    2    0    0  0.75241824101E+02 -0.15626050937E+02 -0.27555332932E+03  0.29719773245E+03  0.80568910323E+02 0.  0.
         25    2    1    2    0    0 -0.11287205966E+03  0.36109452053E+02 -0.27165044725E+03  0.32169250158E+03  0.12509238866E+03 0.  0.
        -24    2    1    2    0    0  0.37630235564E+02 -0.20483401117E+02  0.27881780939E+03  0.29314903315E+03  0.79758262614E+02 0.  0.
        -13    1    3    3    0    0  0.59351923788E+02 -0.42467415509E+02 -0.23478101540E+03  0.24586227329E+03  0.00000000000E+00 0.  1.
         14    1    3    3    0    0  0.15889900312E+02  0.26841364573E+02 -0.40772313923E+02  0.51335459155E+02  0.00000000000E+00 0. -1.
         13    1    5    5    0    0  0.64530825096E+01 -0.45290184032E+02  0.10031696083E+03  0.11025577388E+03  0.00000000000E+00 0. -1.
        -14    1    5    5    0    0  0.31177153054E+02  0.24806782915E+02  0.17850084855E+03  0.18289325927E+03  0.00000000000E+00 0.  1.
          5    1    4    4  501    0 -0.85668669745E+02  0.30068745275E+02 -0.61683899303E+02  0.10984364457E+03  0.41800000000E+01 0. -1.
         -5    1    4    4    0  501 -0.27203389919E+02  0.60407067787E+01 -0.20996654795E+03  0.21184885702E+03  0.41800000000E+01 0. -1.
</event>
<event>
11    1  0.1078607E-008  0.1748135E+03  0.7561462E-02  0.1073917E+00
         22   -1    0    0    0    0  0.00000000000E+00  0.00000000000E+00  0.65070644860E+03  0.65070644860E+03  0.00000000000E+00 0. -1.
         22   -1    0    0    0    0 -0.00000000000E+00 -0.00000000000E+00 -0.52348551208E+03  0.52348551208E+03  0.00000000000E+00 0. -1.
         24    2    1    2    0    0  0.11923706880E+03 -0.29163739487E+02 -0.48640932165E+03  0.50821210047E+03  0.81348070643E+02 0.  0.
         25    2    1    2    0    0 -0.10667983712E+03 -0.11624704271E+02  0.34472130640E+03  0.38209318944E+03  0.12508678959E+03 0.  0.
        -24    2    1    2    0    0 -0.12557231680E+02  0.40788443758E+02  0.26890895178E+03  0.28388667078E+03  0.80363152539E+02 0.  0.
        -13    1    3    3    0    0  0.14996954381E+01 -0.26816933413E+02 -0.13345656306E+03  0.13613247675E+03  0.00000000000E+00 0.  1.
         14    1    3    3    0    0  0.11773737337E+03 -0.23468060737E+01 -0.35295275859E+03  0.37207962371E+03  0.00000000000E+00 0. -1.
         11    1    5    5    0    0  0.29910836901E+02  0.24249617244E+01  0.13438907448E+03  0.13769880879E+03  0.00000000000E+00 0. -1.
        -12    1    5    5    0    0 -0.42468068580E+02  0.38363482033E+02  0.13451987730E+03  0.14618786198E+03  0.00000000000E+00 0.  1.
          5    1    4    4  501    0 -0.73663683345E+02 -0.67328666542E+02  0.20497502352E+03  0.22801692975E+03  0.41800000000E+01 0.  1.
         -5    1    4    4    0  501 -0.33016153779E+02  0.55703962270E+02  0.13974628287E+03  0.15407625969E+03  0.41800000000E+01 0.  1.
</event>
<event>
11    1  0.1078607E-008  0.2578034E+03  0.7561462E-02  0.1019822E+00
         22   -1    0    0    0    0  0.00000000000E+00  0.00000000000E+00  0.82474724988E+03  0.82474724988E+03  0.00000000000E+00 0. -1.
         22   -1    0    0    0    0 -0.00000000000E+00 -0.00000000000E+00 -0.11071345163E+04  0.11071345163E+04  0.00000000000E+00 0. -1.
         24    2    1    2    0    0 -0.19919163703E+03 -0.10204599051E+03 -0.10279777627E+04  0.10551783264E+04  0.81069892811E+02 0.  0.
         25    2    1    2    0    0  0.24656170955E+03  0.10346608599E+03  0.29255312580E+03  0.41562643216E+03  0.12514028981E+03 0.  0.
        -24    2    1    2    0    0 -0.47370072514E+02 -0.14200954881E+01  0.45303737049E+03  0.46107700758E+03  0.71436737157E+02 0.  0.
        -11    1    3    3    0    0 -0.53136788163E+02 -0.33420052215E+02 -0.15185749163E+03  0.16432016283E+03  0.00000000000E+00 0.  1.
         12    1    3    3    0    0 -0.14605484887E+03 -0.68625938291E+02 -0.87612027107E+03  0.89085816361E+03  0.00000000000E+00 0. -1.
         13    1    5    5    0    0 -0.65206349597E+02 -0.15255744053E+01  0.39537921051E+03  0.40072299099E+03  0.00000000000E+00 0. -1.
        -14    1    5    5    0    0  0.17836277083E+02  0.10547891726E+00  0.57658159979E+02  0.60354016587E+02  0.00000000000E+00 0.  1.
          5    1    4    4  501    0  0.11766905618E+03  0.74751291100E+02  0.23108155633E+03  0.26990724403E+03  0.41800000000E+01 0. -1.
         -5    1    4    4    0  501  0.12889265336E+03  0.28714794893E+02  0.61471569468E+02  0.14571918813E+03  0.41800000000E+01 0. -1.
</event>
<event>
11    1  0.1078607E-008  0.1292327E+03  0.7561462E-02  0.1120215E+00
         22   -1    0    0    0    0  0.00000000000E+00  0.00000000000E+00  0.23058378284E+03  0.23058378284E+03  0.00000000000E+00 0.  1.
         22   -1    0    0    0    0 -0.00000000000E+00 -0.00000000000E+00 -0.20640211859E+03  0.20640211859E+03  0.00000000000E+00 0. -1.
         24    2    1    2    0    0  0.31588738358E+02  0.42129176626E+02 -0.11390695635E+03  0.14556213316E+03  0.73761941353E+02 0.  0.
         25    2    1    2    0    0 -0.14740060596E+02 -0.58742715548E+02  0.50574457140E+02  0.14790027345E+03  0.12509492058E+03 0.  0.
        -24    2    1    2    0    0 -0.16848677762E+02  0.16613538922E+02  0.87514163455E+02  0.14352349483E+03  0.11126714315E+03 0.  0.
        -11    1    3    3    0    0  0.10880011920E+02 -0.20970796199E+02 -0.22919000567E+02  0.32915490876E+02  0.00000000000E+00 0.  1.
         12    1    3    3    0    0  0.20708726438E+02  0.63099972826E+02 -0.90987955778E+02  0.11264664228E+03  0.00000000000E+00 0. -1.
         13    1    5    5    0    0 -0.29740322494E+02  0.27381816906E+01 -0.18961212956E+02  0.35376715757E+02  0.00000000000E+00 0. -1.
        -14    1    5    5    0    0  0.12891644732E+02  0.13875357231E+02  0.10647537641E+03  0.10814677907E+03  0.00000000000E+00 0.  1.
          5    1    4    4  501    0  0.51653670730E+02 -0.72563949256E+01  0.59216796879E+01  0.52662089377E+02  0.41800000000E+01 0. -1.
         -5    1    4    4    0  501 -0.66393731326E+02 -0.51486320622E+02  0.44652777452E+02  0.95238184069E+02  0.41800000000E+01 0. -1.
</event>
<event>
11    1  0.1078607E-008  0.1557153E+03  0.7561462E-02  0.1091178E+00
         22   -1    0    0    0    0  0.00000000000E+00  0.00000000000E+00  0.36752254112E+03  0.36752254112E+03  0.00000000000E+00 0. -1.
         22   -1    0    0    0    0 -0.00000000000E+00 -0.00000000000E+00 -0.36896392702E+03  0.36896392702E+03  0.00000000000E+00 0. -1.
        -24    2    1    2    0    0 -0.69423537729E+02  0.65258512452E+02 -0.28666920211E+03  0.31213051828E+03  0.78536157025E+02 0.  0.
         25    2    1    2    0    0  0.10457157301E+02 -0.91293638274E+02  0.43506161490E+02  0.16119734113E+03  0.12509163110E+03 0.  0.
         24    2    1    2    0    0  0.58966380428E+02  0.26035125823E+02  0.24172165472E+03  0.26315860874E+03  0.81659250518E+02 0.  0.
        -11    1    5    5    0    0 -0.95511346681E+01 -0.13815053188E+02  0.94254980126E+02  0.95739652948E+02  0.00000000000E+00 0.  1.
         12    1    5    5    0    0  0.68517515097E+02  0.39850179010E+02  0.14746667459E+03  0.16741895579E+03  0.00000000000E+00 0. -1.
         11    1    3    3    0    0 -0.13034579724E+02 -0.13166628040E+02 -0.10256871065E+03  0.10422859860E+03  0.00000000000E+00 0. -1.
        -12    1    3    3    0    0 -0.56388958005E+02  0.78425140492E+02 -0.18410049147E+03  0.20790191967E+03  0.00000000000E+00 0.  1.
          5    1    4    4  501    0  0.63235387260E+02 -0.23316024522E+02  0.79729636920E+01  0.67995527438E+02  0.41800000000E+01 0. -1.
         -5    1    4    4    0  501 -0.52778229960E+02 -0.67977613753E+02  0.35533197798E+02  0.93201813689E+02  0.41800000000E+01 0. -1.
</event>
<event>
11    1  0.1078607E-008  0.1425009E+03  0.7561462E-02  0.1104797E+00
         22   -1    0    0    0    0  0.00000000000E+00  0.00000000000E+00  0.96216715425E+02  0.96216715425E+02  0.00000000000E+00 0.  1.
         22   -1    0    0    0    0 -0.00000000000E+00 -0.00000000000E+00 -0.15842083045E+04  0.15842083045E+04  0.00000000000E+00 0.  1.
        -24    2    1    2    0    0  0.44592195773E+02 -0.42818728069E+02 -0.11074175372E+04  0.11120871451E+04  0.80884542363E+02 0.  0.
         25    2    1    2    0    0 -0.97444907573E+02  0.60684874932E+02 -0.42932930799E+03  0.46168103159E+03  0.12509019214E+03 0.  0.
         24    2    1    2    0    0  0.52852711801E+02 -0.17866146863E+02  0.48755256132E+02  0.10665684323E+03  0.76720263672E+02 0.  0.
        -13    1    5    5    0    0  0.57616066837E+02  0.53623093314E+01  0.57316715669E+02  0.81446739740E+02  0.00000000000E+00 0.  1.
         14    1    5    5    0    0 -0.47633550368E+01 -0.23228456194E+02 -0.85614595366E+01  0.25210103486E+02  0.00000000000E+00 0. -1.
         11    1    3    3    0    0  0.18890096106E+02 -0.15623930711E+02 -0.73255415735E+02  0.77248293679E+02  0.00000000000E+00 0. -1.
        -12    1    3    3    0    0  0.25702099667E+02 -0.27194797358E+02 -0.10341621215E+04  0.10348388514E+04  0.00000000000E+00 0.  1.
          5    1    4    4  501    0 -0.47256325487E+02 -0.22939907993E+02 -0.26787900663E+03  0.27301288298E+03  0.41800000000E+01 0.  1.
         -5    1    4    4    0  501 -0.50188582086E+02  0.83624782925E+02 -0.16145030136E+03  0.18866814861E+03  0.41800000000E+01 0.  1.
</event>
<event>
11    1  0.1078607E-008  0.1556741E+03  0.7561462E-02  0.1091218E+00
         22   -1    0    0    0    0  0.00000000000E+00  0.00000000000E+00  0.91682671528E+03  0.91682671528E+03  0.00000000000E+00 0. -1.
         22   -1    0    0    0    0 -0.00000000000E+00 -0.00000000000E+00 -0.13081962069E+04  0.13081962069E+04  0.00000000000E+00 0.  1.
        -24    2    1    2    0    0  0.77741561695E+02  0.50932479876E+02 -0.12815123460E+04  0.12873817633E+04  0.80249882192E+02 0.  0.
         25    2    1    2    0    0 -0.80793439802E+02  0.19715170031E+01  0.25700231411E+03  0.29703437958E+03  0.12509103244E+03 0.  0.
         24    2    1    2    0    0  0.30518781073E+01 -0.52903996879E+02  0.63314054022E+03  0.64060677935E+03  0.81865470378E+02 0.  0.
        -13    1    5    5    0    0  0.25293934818E+02 -0.52054195540E+02  0.24163809405E+03  0.24847211294E+03  0.00000000000E+00 0.  1.
         14    1    5    5    0    0 -0.22242056711E+02 -0.84980133907E+00  0.39150244617E+03  0.39213466641E+03  0.00000000000E+00 0. -1.
         11    1    3    3    0    0 -0.43911042060E+01 -0.11092041723E+02 -0.43735251570E+02  0.45333071985E+02  0.00000000000E+00 0. -1.
        -12    1    3    3    0    0  0.82132665901E+02  0.62024521599E+02 -0.12377770944E+04  0.12420486913E+04  0.00000000000E+00 0.  1.
          5    1    4    4  501    0  0.86506175182E+01  0.43641960679E+02  0.46374954554E+02  0.64401573934E+02  0.41800000000E+01 0. -1.
         -5    1    4    4    0  501 -0.89444057320E+02 -0.41670443675E+02  0.21062735956E+03  0.23263280564E+03  0.41800000000E+01 0. -1.
</event>
<event>
11    1  0.1078607E-008  0.1276205E+03  0.7561462E-02  0.1122228E+00
         22   -1    0    0    0    0  0.00000000000E+00  0.00000000000E+00  0.55670994481E+03  0.55670994481E+03  0.00000000000E+00 0. -1.
         22   -1    0    0    0    0 -0.00000000000E+00 -0.00000000000E+00 -0.17156802607E+03  0.17156802607E+03  0.00000000000E+00 0. -1.
         24    2    1    2    0    0  0.12914825657E+02 -0.21775548656E+02 -0.12444291158E+03  0.15036227193E+03  0.80509672320E+02 0.  0.
         25    2    1    2    0    0 -0.13462245245E+02  0.21054598255E+02  0.10372413781E+03  0.16441033428E+03  0.12509009992E+03 0.  0.
        -24    2    1    2    0    0  0.54741958821E+00  0.72095040117E+00  0.40586069251E+03  0.41350536466E+03  0.79138899688E+02 0.  0.
        -11    1    3    3    0    0  0.11591876148E+02 -0.95582543380E+01  0.82236641037E+01  0.17127768971E+02  0.00000000000E+00 0.  1.
         12    1    3    3    0    0  0.13229495092E+01 -0.12217294318E+02 -0.13266657568E+03  0.13323450296E+03  0.00000000000E+00 0. -1.
         13    1    5    5    0    0  0.71385752243E+01  0.31002955590E+02  0.33040707670E+03  0.33193520278E+03  0.00000000000E+00 0. -1.
        -14    1    5    5    0    0 -0.65911556361E+01 -0.30282005189E+02  0.75453615807E+02  0.81570161881E+02  0.00000000000E+00 0.  1.
          5    1    4    4  501    0 -0.42638353295E+02 -0.36897978229E+02  0.23711941544E+02  0.61312466440E+02  0.41800000000E+01 0. -1.
         -5    1    4    4    0  501  0.29176108050E+02  0.57952576484E+02  0.80012196263E+02  0.10309786784E+03  0.41800000000E+01 0. -1.
</event>
<event>
11    1  0.1078607E-008  0.1352620E+03  0.7561462E-02  0.1112968E+00
         22   -1    0    0    0    0  0.00000000000E+00  0.00000000000E+00  0.15405245816E+03  0.15405245816E+03  0.00000000000E+00 0. -1.
         22   -1    0    0    0    0 -0.00000000000E+00 -0.00000000000E+00 -0.63921968136E+03  0.63921968136E+03  0.00000000000E+00 0.  1.
         24    2    1    2    0    0 -0.14689777613E+02  0.59629557975E+01 -0.44959169820E+03  0.45665478287E+03  0.78419061563E+02 0.  0.
         25    2    1    2    0    0  0.62010340169E+01 -0.56418058301E+02 -0.14089514049E+03  0.19676397894E+03  0.12507266957E+03 0.  0.
        -24    2    1    2    0    0  0.84887435964E+01  0.50455102503E+02  0.10531961549E+03  0.13985337771E+03  0.76478557217E+02 0.  0.
        -13    1    3    3    0    0 -0.50718522876E+01 -0.34270155295E+02 -0.13584743043E+03  0.14019519101E+03  0.00000000000E+00 0.  1.
         14    1    3    3    0    0 -0.96179253257E+01  0.40233111093E+02 -0.31374426777E+03  0.31645959185E+03  0.00000000000E+00 0. -1.
         13    1    5    5    0    0  0.27275883050E+02  0.48189618545E+02  0.10738159347E+03  0.12081812674E+03  0.00000000000E+00 0. -1.
        -14    1    5    5    0    0 -0.18787139454E+02  0.22654839584E+01 -0.20619779831E+01  0.19035250974E+02  0.00000000000E+00 0.  1.
          5    1    4    4  501    0  0.60726230061E+02 -0.48313412445E+02 -0.10582992051E+03  0.13129853508E+03  0.41800000000E+01 0. -1.
         -5    1    4    4    0  501 -0.54525196044E+02 -0.81046458560E+01 -0.35065219975E+02  0.65465443862E+02  0.41800000000E+01 0. -1.
</event>
<event>
11    1  0.1078607E-008  0.1408353E+03  0.7561462E-02  0.1106629E+00
         22   -1    0    0    0    0  0.00000000000E+00  0.00000000000E+00  0.67414985129E+03  0.67414985129E+03  0.00000000000E+00 0.  1.
         22   -1    0    0    0    0 -0.00000000000E+00 -0.00000000000E+00 -0.58638842337E+03  0.58638842337E+03  0.00000000000E+00 0.  1.
        -24    2    1    2    0    0  0.25367589324E+02 -0.59988814454E+02 -0.52055621787E+03  0.53096084984E+03  0.81844215726E+02 0.  0.
         25    2    1    2    0    0 -0.27277950921E+00  0.62397665214E+02  0.27106328074E+02  0.14239203746E+03  0.12508875360E+03 0.  0.
         24    2    1    2    0    0 -0.25094809815E+02 -0.24088507595E+01  0.58121131771E+03  0.58718538736E+03  0.79652565886E+02 0.  0.
        -11    1    5    5    0    0 -0.32073014538E+02 -0.24141304594E+02  0.52477308962E+03  0.52630625727E+03  0.00000000000E+00 0.  1.
         12    1    5    5    0    0  0.69782047238E+01  0.21732453834E+02  0.56438228088E+02  0.60879130090E+02  0.00000000000E+00 0. -1.
         11    1    3    3    0    0  0.31987281744E+02 -0.12513618571E+02 -0.71165835697E+02  0.79021218756E+02  0.00000000000E+00 0. -1.
        -12    1    3    3    0    0 -0.66196924204E+01 -0.47475195884E+02 -0.44939038218E+03  0.45193963108E+03  0.00000000000E+00 0.  1.
          5    1    4    4  501    0 -0.19597513480E+02  0.12219222208E+02 -0.45942606750E+02  0.51590381283E+02  0.41800000000E+01 0.  1.
         -5    1    4    4    0  501  0.19324733971E+02  0.50178443005E+02  0.73048934824E+02  0.90801656177E+02  0.41800000000E+01 0.  1.
</event>
<event>
11    1  0.1078607E-008  0.7789027E+03  0.7561462E-02  0.8923480E-01
         22   -1    0    0    0    0  0.00000000000E+00  0.00000000000E+00  0.46814248777E+03  0.46814248777E+03  0.00000000000E+00 0. -1.
         22   -1    0    0    0    0 -0.00000000000E+00 -0.00000000000E+00 -0.17523456302E+04  0.17523456302E+04  0.00000000000E+00 0. -1.
        -24    2    1    2    0    0 -0.51912368108E+03 -0.49570093539E+03 -0.74371361824E+03  0.10365443008E+04  0.78136598032E+02 0.  0.
         25    2    1    2    0    0  0.61853392788E+03  0.58218284642E+03 -0.56499606061E+03  0.10278092474E+04  0.12510081510E+03 0.  0.
         24    2    1    2    0    0 -0.99410246799E+02 -0.86481911026E+02  0.24506536375E+02  0.15613456982E+03  0.80099409880E+02 0.  0.
        -11    1    5    5    0    0 -0.42527239656E+02 -0.85179077896E+02  0.27682176204E+02  0.99148092787E+02  0.00000000000E+00 0.  1.
         12    1    5    5    0    0 -0.56883007143E+02 -0.13028331304E+01 -0.31756398286E+01  0.56986477029E+02  0.00000000000E+00 0. -1.
         13    1    3    3    0    0 -0.11972957714E+03 -0.12433905274E+03 -0.13406326588E+03  0.21855967363E+03  0.00000000000E+00 0. -1.
        -14    1    3    3    0    0 -0.39939410395E+03 -0.37136188265E+03 -0.60965035236E+03  0.81798462717E+03  0.00000000000E+00 0.  1.
          5    1    4    4  501    0  0.48729708602E+03  0.41491583372E+03 -0.36991774229E+03  0.73923623259E+03  0.41800000000E+01 0. -1.
         -5    1    4    4    0  501  0.13123684187E+03  0.16726701270E+03 -0.19507831833E+03  0.28857301482E+03  0.41800000000E+01 0. -1.
</event>
<event>
11    1  0.1078607E-008  0.1325549E+03  0.7561462E-02  0.1116169E+00
         22   -1    0    0    0    0  0.00000000000E+00  0.00000000000E+00  0.27051961752E+04  0.27051961752E+04  0.00000000000E+00 0. -1.
         22   -1    0    0    0    0 -0.00000000000E+00 -0.00000000000E+00 -0.86677865781E+02  0.86677865781E+02  0.00000000000E+00 0.  1.
         24    2    1    2    0    0 -0.27145183333E+02  0.32184861538E+02 -0.45936344131E+02  0.96954585772E+02  0.74278649016E+02 0.  0.
         25    2    1    2    0    0  0.56333486841E+02 -0.41473029149E+02  0.34078086544E+03  0.36969273811E+03  0.12509056109E+03 0.  0.
        -24    2    1    2    0    0 -0.29188303508E+02  0.92881676108E+01  0.23236737881E+04  0.23252267171E+04  0.79253928972E+02 0.  0.
        -11    1    3    3    0    0 -0.26678840904E+02  0.51224749971E+02 -0.51213188857E+02  0.77191490946E+02  0.00000000000E+00 0.  1.
         12    1    3    3    0    0 -0.46634242883E+00 -0.19039888433E+02  0.52768447263E+01  0.19763094825E+02  0.00000000000E+00 0. -1.
         11    1    5    5    0    0 -0.30347657057E+02  0.49190628853E+01  0.23167745434E+04  0.23169785201E+04  0.00000000000E+00 0. -1.
        -12    1    5    5    0    0  0.11593535489E+01  0.43691047255E+01  0.68992446569E+01  0.82481969902E+01  0.00000000000E+00 0.  1.
          5    1    4    4  501    0 -0.12325904404E+02 -0.66287280511E+02  0.19919825473E+03  0.21034102920E+03  0.41800000000E+01 0.  1.
         -5    1    4    4    0  501  0.68659391245E+02  0.24814251362E+02  0.14158261072E+03  0.15935170891E+03  0.41800000000E+01 0.  1.
</event>
<event>
11    1  0.1078607E-008  0.2005789E+03  0.7561462E-02  0.1054115E+00
         22   -1    0    0    0    0  0.00000000000E+00  0.00000000000E+00  0.34158304063E+03  0.34158304063E+03  0.00000000000E+00 0. -1.
         22   -1    0    0    0    0 -0.00000000000E+00 -0.00000000000E+00 -0.26852184160E+03  0.26852184160E+03  0.00000000000E+00 0. -1.
        -24    2    1    2    0    0  0.97461364975E+02  0.13635195796E+03 -0.82458000698E+01  0.18554683566E+03  0.79177401459E+02 0.  0.
         25    2    1    2    0    0  0.11184940631E+03 -0.52541579114E+02  0.32676629525E+02  0.17884718798E+03  0.12509055642E+03 0.  0.
         24    2    1    2    0    0 -0.20931077128E+03 -0.83810378842E+02  0.48630369575E+02  0.24571085859E+03  0.84697902028E+02 0.  0.
        -11    1    5    5    0    0 -0.69228584475E+02 -0.61428847959E+02  0.47089137818E+02  0.10384357067E+03  0.00000000000E+00 0.  1.
         12    1    5    5    0    0 -0.14008218681E+03 -0.22381530883E+02  0.15412317576E+01  0.14186728792E+03  0.00000000000E+00 0. -1.
         13    1    3    3    0    0  0.10896416354E+03  0.10746653285E+03  0.12139163570E+01  0.15304809117E+03  0.00000000000E+00 0. -1.
        -14    1    3    3    0    0 -0.11502798561E+02  0.28885425103E+02 -0.94597164268E+01  0.32498744483E+02  0.00000000000E+00 0.  1.
          5    1    4    4  501    0  0.40376532866E+02 -0.81265065167E+02 -0.87955348695E+01  0.91263952668E+02  0.41800000000E+01 0.  1.
         -5    1    4    4    0  501  0.71472873441E+02  0.28723486054E+02  0.41472164394E+02  0.87583235317E+02  0.41800000000E+01 0.  1.
</event>
<event>
11    1  0.1078607E-008  0.2483689E+03  0.7561462E-02  0.1024772E+00
         22   -1    0    0    0    0  0.00000000000E+00  0.00000000000E+00  0.38607938823E+03  0.38607938823E+03  0.00000000000E+00 0.  1.
         22   -1    0    0    0    0 -0.00000000000E+00 -0.00000000000E+00 -0.10509786201E+04  0.10509786201E+04  0.00000000000E+00 0. -1.
        -24    2    1    2    0    0 -0.10771123533E+03  0.17662538665E+03 -0.56906714441E+03  0.61099641461E+03  0.81737178733E+02 0.  0.
         25    2    1    2    0    0  0.16347206442E+03 -0.16540904543E+03 -0.41484795009E+03  0.49176019634E+03  0.12508397521E+03 0.  0.
         24    2    1    2    0    0 -0.55760829088E+02 -0.11216341225E+02  0.31901586267E+03  0.33430139734E+03  0.82165852136E+02 0.  0.
        -11    1    5    5    0    0 -0.72335391666E+02 -0.20522071684E+02  0.29018706525E+03  0.29977007381E+03  0.00000000000E+00 0.  1.
         12    1    5    5    0    0  0.16574562578E+02  0.93057304591E+01  0.28828797418E+02  0.34531323527E+02  0.00000000000E+00 0. -1.
         11    1    3    3    0    0 -0.11132861397E+03  0.11517639555E+03 -0.43196972345E+03  0.46071412433E+03  0.00000000000E+00 0. -1.
        -12    1    3    3    0    0  0.36173786448E+01  0.61448991107E+02 -0.13709742096E+03  0.15028229027E+03  0.00000000000E+00 0.  1.
          5    1    4    4  501    0  0.60763892321E+01 -0.74781301194E+02 -0.73691929609E+02  0.10524798527E+03  0.41800000000E+01 0.  1.
         -5    1    4    4    0  501  0.15739567519E+03 -0.90627744235E+02 -0.34115602048E+03  0.38651221107E+03  0.41800000000E+01 0.  1.
</event>
<event>
11    1  0.1078607E-008  0.1418316E+03  0.7561462E-02  0.1105530E+00
         22   -1    0    0    0    0  0.00000000000E+00  0.00000000000E+00  0.28910497102E+03  0.28910497102E+03  0.00000000000E+00 0.  1.
         22   -1    0    0    0    0 -0.00000000000E+00 -0.00000000000E+00 -0.22342567204E+03  0.22342567204E+03  0.00000000000E+00 0. -1.
        -24    2    1    2    0    0 -0.49198154218E+02  0.22190650688E+01 -0.92505769569E+02  0.13466045666E+03  0.84562039686E+02 0.  0.
         25    2    1    2    0    0  0.53731832294E+02 -0.67982613976E+02 -0.36806383172E+02  0.15656005101E+03  0.12509034386E+03 0.  0.
         24    2    1    2    0    0 -0.45336780762E+01  0.65763548908E+02  0.19499145173E+03  0.22131013539E+03  0.81308739865E+02 0.  0.
        -13    1    5    5    0    0 -0.23938275943E+02 -0.42974507110E+01  0.18897122080E+02  0.30799518838E+02  0.00000000000E+00 0.  1.
         14    1    5    5    0    0  0.19404597866E+02  0.70060999619E+02  0.17609432965E+03  0.19051061655E+03  0.00000000000E+00 0. -1.
         11    1    3    3    0    0 -0.72109835098E+02 -0.82601395657E+01 -0.66222967260E+02  0.98252428043E+02  0.00000000000E+00 0. -1.
        -12    1    3    3    0    0  0.22911680880E+02  0.10479204634E+02 -0.26282802309E+02  0.36408028617E+02  0.00000000000E+00 0.  1.
          5    1    4    4  501    0  0.81718799822E+02 -0.48268826731E+02  0.13096101214E+02  0.95900063323E+02  0.41800000000E+01 0.  1.
         -5    1    4    4    0  501 -0.27986967528E+02 -0.19713787246E+02 -0.49902484385E+02  0.60659987692E+02  0.41800000000E+01 0.  1.
</event>
<event>
11    1  0.1078607E-008  0.4183297E+03  0.7561462E-02  0.9597171E-01
         22   -1    0    0    0    0  0.00000000000E+00  0.00000000000E+00  0.31642043792E+04  0.31642043792E+04  0.00000000000E+00 0. -1.
         22   -1    0    0    0    0 -0.00000000000E+00 -0.00000000000E+00 -0.54946661293E+03  0.54946661293E+03  0.00000000000E+00 0.  1.
        -24    2    1    2    0    0  0.20993596968E+03  0.33766918151E+03 -0.32964218765E+03  0.52251701650E+03  0.79161058259E+02 0.  0.
         25    2    1    2    0    0 -0.22629197328E+03 -0.33636363026E+03  0.24383007720E+03  0.48933567860E+03  0.12509097040E+03 0.  0.
         24    2    1    2    0    0  0.16356003602E+02 -0.13055512533E+01  0.27005498768E+04  0.27018182971E+04  0.81137230439E+02 0.  0.
        -11    1    5    5    0    0 -0.25990035670E+02 -0.23376564634E+02  0.10865869071E+04  0.10871490479E+04  0.00000000000E+00 0.  1.
         12    1    5    5    0    0  0.42346039272E+02  0.22071013381E+02  0.16139629696E+04  0.16146692491E+04  0.00000000000E+00 0. -1.
         13    1    3    3    0    0  0.16346047983E+03  0.31119324684E+03 -0.29385977540E+03  0.45816387128E+03  0.00000000000E+00 0. -1.
        -14    1    3    3    0    0  0.46475489852E+02  0.26475934670E+02 -0.35782412252E+02  0.64353145224E+02  0.00000000000E+00 0.  1.
          5    1    4    4  501    0 -0.83206331842E+02 -0.16953099753E+03  0.17878328269E+03  0.26008649975E+03  0.41800000000E+01 0.  1.
         -5    1    4    4    0  501 -0.14308564144E+03 -0.16683263273E+03  0.65046794504E+02  0.22924917885E+03  0.41800000000E+01 0.  1.
</event>
<event>
11    1  0.1078607E-008  0.1383701E+03  0.7561462E-02  0.1109392E+00
         22   -1    0    0    0    0  0.00000000000E+00  0.00000000000E+00  0.16462283002E+03  0.16462283002E+03  0.00000000000E+00 0. -1.
         22   -1    0    0    0    0 -0.00000000000E+00 -0.00000000000E+00 -0.11522187348E+04  0.11522187348E+04  0.00000000000E+00 0.  1.
         24    2    1    2    0    0 -0.21514390434E+02 -0.17011451136E+02 -0.53944536906E+03  0.54598741207E+03  0.79678663887E+02 0.  0.
         25    2    1    2    0    0  0.71141409100E+02 -0.14710063997E+02 -0.58415730123E+03  0.60180166762E+03  0.12509200012E+03 0.  0.
        -24    2    1    2    0    0 -0.49627018666E+02  0.31721515133E+02  0.13600676548E+03  0.16905248516E+03  0.81313018510E+02 0.  0.
        -13    1    3    3    0    0 -0.43820453814E+02 -0.19094446901E+01 -0.46026670749E+03  0.46235194406E+03  0.00000000000E+00 0.  1.
         14    1    3    3    0    0  0.22306063380E+02 -0.15102006446E+02 -0.79178661562E+02  0.83635468008E+02  0.00000000000E+00 0. -1.
         13    1    5    5    0    0 -0.46632676491E+02  0.28528581382E+02  0.14720558829E+03  0.15702856969E+03  0.00000000000E+00 0. -1.
        -14    1    5    5    0    0 -0.29943421746E+01  0.31929337508E+01 -0.11198822814E+02  0.12023915477E+02  0.00000000000E+00 0.  1.
          5    1    4    4  501    0  0.44378091439E+02  0.53577724025E+02 -0.24138680766E+03  0.25124699167E+03  0.41800000000E+01 0.  1.
         -5    1    4    4    0  501  0.26763317661E+02 -0.68287788022E+02 -0.34277049357E+03  0.35055467595E+03  0.41800000000E+01 0.  1.
</event>
<event>
11    1  0.1078607E-008  0.3440348E+03  0.7561462E-02  0.9831047E-01
         22   -1    0    0    0    0  0.00000000000E+00  0.00000000000E+00  0.21389126620E+04  0.21389126620E+04  0.00000000000E+00 0. -1.
         22   -1    0    0    0    0 -0.00000000000E+00 -0.00000000000E+00 -0.86074747613E+03  0.86074747613E+03  0.00000000000E+00 0. -1.
        -24    2    1    2    0    0  0.29425708647E+03 -0.12990517934E+03 -0.78901483585E+03  0.85592284920E+03  0.81221450513E+02 0.  0.
         25    2    1    2    0    0 -0.27446156098E+03  0.11150240356E+03  0.66126116301E+03  0.73530625469E+03  0.12508808111E+03 0.  0.
         24    2    1    2    0    0 -0.19795525489E+02  0.18402775775E+02  0.14059188587E+04  0.14084310342E+04  0.79621705307E+02 0.  0.
        -13    1    5    5    0    0 -0.22837049745E+02  0.40433131532E+02  0.47905031121E+03  0.48129571953E+03  0.00000000000E+00 0.  1.
         14    1    5    5    0    0  0.30415242569E+01 -0.22030355757E+02  0.92686854750E+03  0.92713531472E+03  0.00000000000E+00 0. -1.
         13    1    3    3    0    0  0.23462390129E+03 -0.13464824344E+03 -0.67449104975E+03  0.72671638258E+03  0.00000000000E+00 0. -1.
        -14    1    3    3    0    0  0.59633185176E+02  0.47430641074E+01 -0.11452378610E+03  0.12920646661E+03  0.00000000000E+00 0.  1.
          5    1    4    4  501    0 -0.26364537341E+03  0.89498448561E+02  0.50148496593E+03  0.57360569965E+03  0.41800000000E+01 0. -1.
         -5    1    4    4    0  501 -0.10816187566E+02  0.22003955001E+02  0.15977619708E+03  0.16170055505E+03  0.41800000000E+01 0. -1.
</event>
<event>
11    1  0.1078607E-008  0.2192035E+03  0.7561462E-02  0.1041718E+00
         22   -1    0    0    0    0  0.00000000000E+00  0.00000000000E+00  0.17417097115E+03  0.17417097115E+03  0.00000000000E+00 0. -1.
         22   -1    0    0    0    0 -0.00000000000E+00 -0.00000000000E+00 -0.48397035239E+03  0.48397035239E+03  0.00000000000E+00 0.  1.
         24    2    1    2    0    0  0.17558275439E+03  0.70276216889E+02 -0.30178134137E+03  0.36525934826E+03  0.81082446917E+02 0.  0.
         25    2    1    2    0    0 -0.13595836545E+03 -0.76852603629E+02 -0.28759228632E+02  0.20215233662E+03  0.12508986430E+03 0.  0.
        -24    2    1    2    0    0 -0.39624388939E+02  0.65763867404E+01  0.20741188756E+02  0.90729638652E+02  0.78665935178E+02 0.  0.
        -11    1    3    3    0    0  0.11288928997E+03  0.17727698256E+01 -0.16722573994E+03  0.20177111439E+03  0.00000000000E+00 0.  1.
         12    1    3    3    0    0  0.62693464414E+02  0.68503447063E+02 -0.13455560143E+03  0.16348823388E+03  0.00000000000E+00 0. -1.
         11    1    5    5    0    0 -0.30095323592E+02 -0.48047410083E+01  0.49635747097E+02  0.58245355422E+02  0.00000000000E+00 0. -1.
        -12    1    5    5    0    0 -0.95290653467E+01  0.11381127749E+02 -0.28894558341E+02  0.32484283230E+02  0.00000000000E+00 0.  1.
          5    1    4    4  501    0 -0.96676333299E+02 -0.10829030949E+03 -0.25051987989E+01  0.14524755754E+03  0.41800000000E+01 0.  1.
         -5    1    4    4    0  501 -0.39282032150E+02  0.31437705865E+02 -0.26254029833E+02  0.56904779082E+02  0.41800000000E+01 0.  1.
</event>
<event>
11    1  0.1078607E-008  0.2036454E+03  0.7561462E-02  0.1051975E+00
         22   -1    0    0    0    0  0.00000000000E+00  0.00000000000E+00  0.29714996895E+03  0.29714996895E+03  0.00000000000E+00 0. -1.
         22   -1    0    0    0    0 -0.00000000000E+00 -0.00000000000E+00 -0.60295922752E+03  0.60295922752E+03  0.00000000000E+00 0. -1.
         24    2    1    2    0    0  0.14390228389E+03  0.10244122195E+03 -0.45064655648E+03  0.49044097056E+03  0.79044009686E+02 0.  0.
         25    2    1    2    0    0 -0.74178442201E+02 -0.88011960949E+02 -0.58519014527E+02  0.17978187824E+03  0.12509397317E+03 0.  0.
        -24    2    1    2    0    0 -0.69723841685E+02 -0.14429261003E+02  0.20335631244E+03  0.22988634767E+03  0.80151889351E+02 0.  0.
        -13    1    3    3    0    0  0.95371953256E+02  0.23282052124E+02 -0.19219498338E+03  0.21581653101E+03  0.00000000000E+00 0.  1.
         14    1    3    3    0    0  0.48530330630E+02  0.79159169828E+02 -0.25845157310E+03  0.27462443955E+03  0.00000000000E+00 0. -1.
         11    1    5    5    0    0  0.15011463970E+02 -0.21388777494E+00  0.67435347236E+02  0.69086292818E+02  0.00000000000E+00 0. -1.
        -12    1    5    5    0    0 -0.84735305656E+02 -0.14215373228E+02  0.13592096520E+03  0.16080005486E+03  0.00000000000E+00 0.  1.
          5    1    4    4  501    0 -0.10542343233E+03 -0.88994058210E+02 -0.52496975396E+02  0.14767344821E+03  0.41800000000E+01 0. -1.
         -5    1    4    4    0  501  0.31244990130E+02  0.98209726094E+00 -0.60220391316E+01  0.32108430024E+02  0.41800000000E+01 0. -1.
</event>
<event>
11    1  0.1078607E-008  0.1376504E+03  0.7561462E-02  0.1110211E+00
         22   -1    0    0    0    0  0.00000000000E+00  0.00000000000E+00  0.19322503771E+04  0.19322503771E+04  0.00000000000E+00 0. -1.
         22   -1    0    0    0    0 -0.00000000000E+00 -0.00000000000E+00 -0.60233867087E+02  0.60233867087E+02  0.00000000000E+00 0.  1.
        -24    2    1    2    0    0  0.24206827090E+02 -0.27658074791E+01 -0.10116992721E+02  0.83699340734E+02  0.79433027947E+02 0.  0.
         25    2    1    2    0    0 -0.61476144503E+02  0.43357346736E+02  0.44535132787E+03  0.46866227299E+03  0.12508934818E+03 0.  0.
         24    2    1    2    0    0  0.37269317413E+02 -0.40591539257E+02  0.14367821749E+04  0.14401226305E+04  0.81077109519E+02 0.  0.
        -13    1    5    5    0    0  0.57608996479E+02 -0.16771530388E+02  0.66383263119E+03  0.66653870325E+03  0.00000000000E+00 0.  1.
         14    1    5    5    0    0 -0.20339679067E+02 -0.23820008870E+02  0.77294954370E+03  0.77358392724E+03  0.00000000000E+00 0. -1.
         11    1    3    3    0    0 -0.13366920792E+02 -0.90203640005E+00  0.27443295510E+02  0.30538872107E+02  0.00000000000E+00 0. -1.
        -12    1    3    3    0    0  0.37573747882E+02 -0.18637710791E+01 -0.37560288232E+02  0.53160468626E+02  0.00000000000E+00 0.  1.
          5    1    4    4  501    0 -0.42183553949E+02 -0.18072465197E+02  0.35304691130E+03  0.35604165514E+03  0.41800000000E+01 0.  1.
         -5    1    4    4    0  501 -0.19292590554E+02  0.61429811933E+02  0.92304416572E+02  0.11262061784E+03  0.41800000000E+01 0.  1.
</event>
<event>
11    1  0.1078607E-008  0.1416611E+03  0.7561462E-02  0.1105718E+00
         22   -1    0    0    0    0  0.00000000000E+00  0.00000000000E+00  0.32786170483E+03  0.32786170483E+03  0.00000000000E+00 0. -1.
         22   -1    0    0    0    0 -0.00000000000E+00 -0.00000000000E+00 -0.60244069706E+03  0.60244069706E+03  0.00000000000E+00 0. -1.
         24    2    1    2    0    0  0.28453765000E+01  0.24638983743E+02 -0.49813519922E+03  0.50549206956E+03  0.82270164709E+02 0.  0.
         25    2    1    2    0    0  0.44838196408E+02  0.24487974165E+02 -0.39981953528E+02  0.14090941813E+03  0.12508710075E+03 0.  0.
        -24    2    1    2    0    0 -0.47683572908E+02 -0.49126957908E+02  0.26353816052E+03  0.28390091421E+03  0.80375281753E+02 0.  0.
        -13    1    3    3    0    0  0.21967323644E+02 -0.20805950684E+02 -0.10484421184E+03  0.10912268164E+03  0.00000000000E+00 0.  1.
         14    1    3    3    0    0 -0.19121947144E+02  0.45444934427E+02 -0.39329098738E+03  0.39636938793E+03  0.00000000000E+00 0. -1.
         13    1    5    5    0    0 -0.42769288317E+02 -0.63268510421E+02  0.25598230420E+03  0.26713115973E+03  0.00000000000E+00 0. -1.
        -14    1    5    5    0    0 -0.49142845915E+01  0.14141552513E+02  0.75558563245E+01  0.16769754480E+02  0.00000000000E+00 0.  1.
          5    1    4    4  501    0  0.41712199539E+02  0.41201186160E+02  0.31933640126E+02  0.66893012363E+02  0.41800000000E+01 0.  1.
         -5    1    4    4    0  501  0.31259968691E+01 -0.16713211995E+02 -0.71915593654E+02  0.74016405764E+02  0.41800000000E+01 0.  1.
</event>
<event>
11    1  0.1078607E-008  0.1363124E+03  0.7561462E-02  0.1111748E+00
         22   -1    0    0    0    0  0.00000000000E+00  0.00000000000E+00  0.60697185258E+03  0.60697185258E+03  0.00000000000E+00 0.  1.
         22   -1    0    0    0    0 -0.00000000000E+00 -0.00000000000E+00 -0.17532490516E+03  0.17532490516E+03  0.00000000000E+00 0.  1.
        -24    2    1    2    0    0  0.52434183984E+02  0.40264880778E+01 -0.13401239728E+03  0.16373414819E+03  0.77999951305E+02 0.  0.
         25    2    1    2    0    0 -0.83364329055E+02  0.15783450549E+01  0.25396068745E+03  0.29512164754E+03  0.12509457840E+03 0.  0.
         24    2    1    2    0    0  0.30930145070E+02 -0.56048331327E+01  0.31169865725E+03  0.32344096200E+03  0.80435781451E+02 0.  0.
        -13    1    5    5    0    0 -0.40674494117E+01 -0.94164131041E+01  0.26378543099E+03  0.26398478476E+03  0.00000000000E+00 0.  1.
         14    1    5    5    0    0  0.34997594482E+02  0.38115799714E+01  0.47913226261E+02  0.59456177241E+02  0.00000000000E+00 0. -1.
         11    1    3    3    0    0 -0.15427037668E+02 -0.12909353603E+02 -0.53096492376E+02  0.56779242723E+02  0.00000000000E+00 0. -1.
        -12    1    3    3    0    0  0.67861221652E+02  0.16935841681E+02 -0.80915904905E+02  0.10695490547E+03  0.00000000000E+00 0.  1.
          5    1    4    4  501    0 -0.70179868252E+02  0.35106825306E+02  0.62919224078E+02  0.10066779152E+03  0.41800000000E+01 0. -1.
         -5    1    4    4    0  501 -0.13184460803E+02 -0.33528480251E+02  0.19104146337E+03  0.19445385602E+03  0.41800000000E+01 0. -1.
</event>
<event>
11    1  0.1078607E-008  0.2426038E+03  0.7561462E-02  0.1027915E+00
         22   -1    0    0    0    0  0.00000000000E+00  0.00000000000E+00  0.12227509655E+04  0.12227509655E+04  0.00000000000E+00 0.  1.
         22   -1    0    0    0    0 -0.00000000000E+00 -0.00000000000E+00 -0.77107188515E+03  0.77107188515E+03  0.00000000000E+00 0.  1.
         24    2    1    2    0    0 -0.77252930265E+02 -0.18909554374E+03 -0.65273697026E+03  0.68864590598E+03  0.80265133028E+02 0.  0.
         25    2    1    2    0    0 -0.45398248402E+02  0.30629790684E+03  0.21791657070E+03  0.39876700613E+03  0.12509230473E+03 0.  0.
        -24    2    1    2    0    0  0.12265117867E+03 -0.11720236310E+03  0.88649947989E+03  0.90640993853E+03  0.83174174363E+02 0.  0.
        -11    1    3    3    0    0 -0.23606255531E+02 -0.68375212931E+02 -0.36408133055E+03  0.37119757582E+03  0.00000000000E+00 0.  1.
         12    1    3    3    0    0 -0.53646674733E+02 -0.12072033081E+03 -0.28865563971E+03  0.31744833015E+03  0.00000000000E+00 0. -1.
         11    1    5    5    0    0  0.15401138299E+02 -0.42808019831E+02  0.11032657376E+03  0.11933848709E+03  0.00000000000E+00 0. -1.
        -12    1    5    5    0    0  0.10725004037E+03 -0.74394343264E+02  0.77617290612E+03  0.78707145144E+03  0.00000000000E+00 0.  1.
          5    1    4    4  501    0 -0.55302349982E+02  0.27796240718E+03  0.23110423009E+03  0.36571585594E+03  0.41800000000E+01 0.  1.
         -5    1    4    4    0  501  0.99041015797E+01  0.28335499656E+02 -0.13187659390E+02  0.33051150193E+02  0.41800000000E+01 0.  1.
</event>
<event>
11    1  0.1078607E-008  0.3523951E+03  0.7561462E-02  0.9801704E-01
         22   -1    0    0    0    0  0.00000000000E+00  0.00000000000E+00  0.72048201508E+03  0.72048201508E+03  0.00000000000E+00 0. -1.
         22   -1    0    0    0    0 -0.00000000000E+00 -0.00000000000E+00 -0.13281993016E+04  0.13281993016E+04  0.00000000000E+00 0. -1.
         24    2    1    2    0    0 -0.31340820362E+03 -0.95286277736E+02 -0.12190776813E+04  0.12651081847E+04  0.83929429830E+02 0.  0.
         25    2    1    2    0    0  0.36037382874E+03  0.10495650573E+03  0.49418987332E+03  0.63305304140E+03  0.12508939921E+03 0.  0.
        -24    2    1    2    0    0 -0.46965625116E+02 -0.96702279986E+01  0.11717052140E+03  0.15052009062E+03  0.81413041598E+02 0.  0.
        -11    1    3    3    0    0 -0.24084842391E+02 -0.29310014157E+02 -0.20594892787E+03  0.20941374705E+03  0.00000000000E+00 0.  1.
         12    1    3    3    0    0 -0.28932336123E+03 -0.65976263579E+02 -0.10131287534E+04  0.10556944377E+04  0.00000000000E+00 0. -1.
         11    1    5    5    0    0 -0.42911590185E+02 -0.42709780439E+02  0.83831003357E+02  0.10340777070E+03  0.00000000000E+00 0. -1.
        -12    1    5    5    0    0 -0.40540349311E+01  0.33039552440E+02  0.33339518046E+02  0.47112319920E+02  0.00000000000E+00 0.  1.
          5    1    4    4  501    0  0.31344876654E+03  0.44077987550E+02  0.36998875074E+03  0.48693135687E+03  0.41800000000E+01 0. -1.
         -5    1    4    4    0  501  0.46925062204E+02  0.60878518184E+02  0.12420112257E+03  0.14612168452E+03  0.41800000000E+01 0. -1.
</event>
<event>
11    1  0.1078607E-008  0.2618215E+03  0.7561462E-02  0.1017784E+00
         22   -1    0    0    0    0  0.00000000000E+00  0.00000000000E+00  0.59836635221E+03  0.59836635221E+03  0.00000000000E+00 0.  1.
         22   -1    0    0    0    0 -0.00000000000E+00 -0.00000000000E+00 -0.79708907741E+03  0.79708907741E+03  0.00000000000E+00 0. -1.
        -24    2    1    2    0    0  0.19861643920E+03  0.96018893227E+02 -0.60830460669E+03  0.65617198991E+03  0.10889934822E+03 0.  0.
         25    2    1    2    0    0 -0.28212106033E+03 -0.93910790756E+02  0.96639719721E+01  0.32272602069E+03  0.12508861967E+03 0.  0.
         24    2    1    2    0    0  0.83504621139E+02 -0.21081024706E+01  0.39991790952E+03  0.41655741902E+03  0.81291347233E+02 0.  0.
        -11    1    5    5    0    0  0.64067981317E+02 -0.34333539013E+02  0.19277165919E+03  0.20602041335E+03  0.00000000000E+00 0.  1.
         12    1    5    5    0    0  0.19436639822E+02  0.32225436542E+02  0.20714625033E+03  0.21053700566E+03  0.00000000000E+00 0. -1.
         13    1    3    3    0    0  0.18718048073E+03  0.57197340018E+02 -0.41720737913E+03  0.46083626731E+03  0.00000000000E+00 0. -1.
        -14    1    3    3    0    0  0.11435958464E+02  0.38821553209E+02 -0.19109722757E+03  0.19533572260E+03  0.00000000000E+00 0.  1.
          5    1    4    4  501    0 -0.12183469737E+02  0.23427759302E+02 -0.77745138723E+01  0.27842634694E+02  0.41800000000E+01 0.  1.
         -5    1    4    4    0  501 -0.26993759060E+03 -0.11733855006E+03  0.17438485844E+02  0.29488338599E+03  0.41800000000E+01 0.  1.
</event>
<event>
11    1  0.1078607E-008  0.1511627E+03  0.7561462E-02  0.1095697E+00
         22   -1    0    0    0    0  0.00000000000E+00  0.00000000000E+00  0.23133744600E+03  0.23133744600E+03  0.00000000000E+00 0.  1.
         22   -1    0    0    0    0 -0.00000000000E+00 -0.00000000000E+00 -0.13742794114E+04  0.13742794114E+04  0.00000000000E+00 0. -1.
         24    2    1    2    0    0  0.80512589636E+02 -0.11288158571E+02 -0.10961564333E+04  0.11021390099E+04  0.80881217240E+02 0.  0.
         25    2    1    2    0    0 -0.11237201694E+03  0.66118102465E+02 -0.23081919900E+03  0.29313544439E+03  0.12510720388E+03 0.  0.
        -24    2    1    2    0    0  0.31859427301E+02 -0.54829943895E+02  0.18403366688E+03  0.21034240312E+03  0.79713174248E+02 0.  0.
        -11    1    3    3    0    0  0.13208204595E+01  0.23751765232E+02 -0.38412541460E+03  0.38486130626E+03  0.00000000000E+00 0.  1.
         12    1    3    3    0    0  0.79191769177E+02 -0.35039923803E+02 -0.71203101866E+03  0.71727770361E+03  0.00000000000E+00 0. -1.
         13    1    5    5    0    0  0.29639240606E+02 -0.75466889013E+02  0.14459010882E+03  0.16577103332E+03  0.00000000000E+00 0. -1.
        -14    1    5    5    0    0  0.22201866954E+01  0.20636945119E+02  0.39443558067E+02  0.44571369799E+02  0.00000000000E+00 0.  1.
          5    1    4    4  501    0 -0.17903089675E+00  0.45194171049E+01 -0.13001594124E+03  0.13016172463E+03  0.41800000000E+01 0.  1.
         -5    1    4    4    0  501 -0.11219298604E+03  0.61598685361E+02 -0.10080325776E+03  0.16297371975E+03  0.41800000000E+01 0.  1.
</event>
<event>
11    1  0.1078607E-008  0.1400283E+03  0.7561462E-02  0.1107527E+00
         22   -1    0    0    0    0  0.00000000000E+00  0.00000000000E+00  0.66977901106E+02  0.66977901106E+02  0.00000000000E+00 0.  1.
         22   -1    0    0    0    0 -0.00000000000E+00 -0.00000000000E+00 -0.16539755184E+04  0.16539755184E+04  0.00000000000E+00 0.  1.
        -24    2    1    2    0    0 -0.10199338265E+02 -0.10369780186E+02 -0.13232039444E+04  0.13256413415E+04  0.79023598112E+02 0.  0.
         25    2    1    2    0    0  0.65395221702E+02  0.35511526142E+02 -0.25543769879E+03  0.29399878536E+03  0.12509701963E+03 0.  0.
         24    2    1    2    0    0 -0.55195883437E+02 -0.25141745956E+02 -0.83559740626E+01  0.10131329257E+03  0.80720926722E+02 0.  0.
        -13    1    5    5    0    0  0.16240169370E+02  0.12221167506E+02 -0.26108051483E+01  0.20491860333E+02  0.00000000000E+00 0.  1.
         14    1    5    5    0    0 -0.71436052807E+02 -0.37362913463E+02 -0.57451689143E+01  0.80821432238E+02  0.00000000000E+00 0. -1.
         13    1    3    3    0    0  0.24338030685E+02 -0.57757271666E+01 -0.16244383140E+03  0.16435844098E+03  0.00000000000E+00 0. -1.
        -14    1    3    3    0    0 -0.34537368951E+02 -0.45940530191E+01 -0.11607601130E+04  0.11612829006E+04  0.00000000000E+00 0.  1.
          5    1    4    4  501    0 -0.12644522735E+02  0.27120947805E+02 -0.18806041160E+03  0.19047209921E+03  0.41800000000E+01 0.  1.
         -5    1    4    4    0  501  0.78039744437E+02  0.83905783369E+01 -0.67377287182E+02  0.10352668615E+03  0.41800000000E+01 0.  1.
</event>
<event>
11    1  0.1078607E-008  0.1359032E+03  0.7561462E-02  0.1112221E+00
         22   -1    0    0    0    0  0.00000000000E+00  0.00000000000E+00  0.29584245460E+03  0.29584245460E+03  0.00000000000E+00 0. -1.
         22   -1    0    0    0    0 -0.00000000000E+00 -0.00000000000E+00 -0.37300424982E+03  0.37300424982E+03  0.00000000000E+00 0.  1.
        -24    2    1    2    0    0 -0.11892958875E+02 -0.55442103568E+01 -0.31051460291E+03  0.32097620818E+03  0.80213632595E+02 0.  0.
         25    2    1    2    0    0  0.61705583283E+02 -0.41507944856E+01  0.64581679762E+02  0.15376350324E+03  0.12509042116E+03 0.  0.
         24    2    1    2    0    0 -0.49812624408E+02  0.96950048423E+01  0.16877112793E+03  0.19410699301E+03  0.81354412550E+02 0.  0.
        -11    1    5    5    0    0  0.35096363667E+01  0.19327817814E+02  0.11874759272E+03  0.12036142599E+03  0.00000000000E+00 0.  1.
         12    1    5    5    0    0 -0.53322260775E+02 -0.96328129719E+01  0.50023535210E+02  0.73745567018E+02  0.00000000000E+00 0. -1.
         11    1    3    3    0    0  0.31673368500E+02 -0.17350356613E+02 -0.13384765171E+03  0.13863416251E+03  0.00000000000E+00 0. -1.
        -12    1    3    3    0    0 -0.43566327375E+02  0.11806146257E+02 -0.17666695120E+03  0.18234204566E+03  0.00000000000E+00 0.  1.
          5    1    4    4  501    0  0.26601058989E+02  0.55404337480E+02  0.57288211743E+02  0.84122937155E+02  0.41800000000E+01 0. -1.
         -5    1    4    4    0  501  0.35104524294E+02 -0.59555131966E+02  0.72934680190E+01  0.69640566088E+02  0.41800000000E+01 0. -1.
</event>
<event>
11    1  0.1078607E-008  0.1315460E+03  0.7561462E-02  0.1117384E+00
         22   -1    0    0    0    0  0.00000000000E+00  0.00000000000E+00  0.10141684325E+04  0.10141684325E+04  0.00000000000E+00 0.  1.
         22   -1    0    0    0    0 -0.00000000000E+00 -0.00000000000E+00 -0.18997572434E+03  0.18997572434E+03  0.00000000000E+00 0. -1.
         24    2    1    2    0    0 -0.18974884790E+02  0.30891864429E+02 -0.10259953321E+03  0.13541186983E+03  0.80593776036E+02 0.  0.
         25    2    1    2    0    0  0.51786487850E+02 -0.36799170509E+02  0.25123749568E+01  0.14033092272E+03  0.12510170490E+03 0.  0.
        -24    2    1    2    0    0 -0.32811603060E+02  0.59073060802E+01  0.92427986637E+03  0.92840136425E+03  0.80773288933E+02 0.  0.
        -11    1    3    3    0    0  0.19252772770E+02  0.12403059034E+02 -0.87334572230E+02  0.90287499907E+02  0.00000000000E+00 0.  1.
         12    1    3    3    0    0 -0.38227657561E+02  0.18488805396E+02 -0.15264960982E+02  0.45124369927E+02  0.00000000000E+00 0. -1.
         13    1    5    5    0    0  0.25482055551E+02 -0.74331585413E+01  0.22236413959E+03  0.22394284444E+03  0.00000000000E+00 0. -1.
        -14    1    5    5    0    0 -0.58293658611E+02  0.13340464621E+02  0.70191572678E+03  0.70445851981E+03  0.00000000000E+00 0.  1.
          5    1    4    4  501    0 -0.23189028399E+02 -0.36217630619E+02  0.37754025469E+02  0.57378451050E+02  0.41800000000E+01 0.  1.
         -5    1    4    4    0  501  0.74975516250E+02 -0.58153989011E+00 -0.35241650512E+02  0.82952471671E+02  0.41800000000E+01 0.  1.
</event>
<event>
11    1  0.1078607E-008  0.1554247E+03  0.7561462E-02  0.1091461E+00
         22   -1    0    0    0    0  0.00000000000E+00  0.00000000000E+00  0.42813471400E+03  0.42813471400E+03  0.00000000000E+00 0.  1.
         22   -1    0    0    0    0 -0.00000000000E+00 -0.00000000000E+00 -0.24504479553E+03  0.24504479553E+03  0.00000000000E+00 0. -1.
         24    2    1    2    0    0  0.73040554874E+02 -0.45454850451E+02 -0.74452976172E+02  0.13946441842E+03  0.80659855313E+02 0.  0.
         25    2    1    2    0    0 -0.79005191771E+02  0.64625848506E+02 -0.84436171446E+02  0.18219535209E+03  0.12508940264E+03 0.  0.
        -24    2    1    2    0    0  0.59646368976E+01 -0.19170998055E+02  0.34197906608E+03  0.35151973902E+03  0.78824750054E+02 0.  0.
        -13    1    3    3    0    0  0.17355032256E+01  0.50357587780E+01  0.14095127194E+02  0.15067960994E+02  0.00000000000E+00 0.  1.
         14    1    3    3    0    0  0.71305051648E+02 -0.50490609229E+02 -0.88548103366E+02  0.12439645743E+03  0.00000000000E+00 0. -1.
         13    1    5    5    0    0  0.20731618150E+02 -0.76236072758E+01  0.22638475258E+02  0.31629415755E+02  0.00000000000E+00 0. -1.
        -14    1    5    5    0    0 -0.14766981252E+02 -0.11547390779E+02  0.31934059082E+03  0.31989032326E+03  0.00000000000E+00 0.  1.
          5    1    4    4  501    0  0.16577926201E+02  0.50810602557E+02  0.35451668258E+00  0.53611034791E+02  0.41800000000E+01 0.  1.
         -5    1    4    4    0  501 -0.95583117972E+02  0.13815245949E+02 -0.84790688129E+02  0.12858431730E+03  0.41800000000E+01 0.  1.
</event>
<event>
11    1  0.1078607E-008  0.1395028E+03  0.7561462E-02  0.1108115E+00
         22   -1    0    0    0    0  0.00000000000E+00  0.00000000000E+00  0.19361788873E+03  0.19361788873E+03  0.00000000000E+00 0. -1.
         22   -1    0    0    0    0 -0.00000000000E+00 -0.00000000000E+00 -0.48527296646E+03  0.48527296646E+03  0.00000000000E+00 0.  1.
        -24    2    1    2    0    0 -0.38760708109E+00 -0.44174626469E+02 -0.30501324150E+03  0.31877352250E+03  0.81436682735E+02 0.  0.
         25    2    1    2    0    0 -0.32672929891E+02 -0.12260129397E+02 -0.12978025984E+03  0.18359810551E+03  0.12509003710E+03 0.  0.
         24    2    1    2    0    0  0.33060536972E+02  0.56434755867E+02  0.14313842361E+03  0.17651922717E+03  0.79953414388E+02 0.  0.
        -11    1    5    5    0    0 -0.36022117751E+01  0.15009308930E+01 -0.94646521435E+01  0.10237595588E+02  0.00000000000E+00 0.  1.
         12    1    5    5    0    0  0.36662748748E+02  0.54933824974E+02  0.15260307576E+03  0.16628163158E+03  0.00000000000E+00 0. -1.
         11    1    3    3    0    0  0.32766618827E+02 -0.32681702038E+02 -0.93026470552E+02  0.10390220970E+03  0.00000000000E+00 0. -1.
        -12    1    3    3    0    0 -0.33154225908E+02 -0.11492924431E+02 -0.21198677095E+03  0.21487131280E+03  0.00000000000E+00 0.  1.
          5    1    4    4  501    0 -0.34865858740E+02 -0.20416951778E+01 -0.15342784436E+03  0.15740829855E+03  0.41800000000E+01 0.  1.
         -5    1    4    4    0  501  0.21929288482E+01 -0.10218434220E+02  0.23647584526E+02  0.26189806963E+02  0.41800000000E+01 0.  1.
</event>
<event>
11    1  0.1078607E-008  0.2139994E+03  0.7561462E-02  0.1045043E+00
         22   -1    0    0    0    0  0.00000000000E+00  0.00000000000E+00  0.48619931247E+03  0.48619931247E+03  0.00000000000E+00 0. -1.
         22   -1    0    0    0    0 -0.00000000000E+00 -0.00000000000E+00 -0.19882242715E+04  0.19882242715E+04  0.00000000000E+00 0. -1.
         24    2    1    2    0    0 -0.17829233639E+03 -0.59627590548E+00 -0.16882733649E+04  0.16995099856E+04  0.79238397898E+02 0.  0.
         25    2    1    2    0    0  0.14116239248E+03  0.76539321671E+02 -0.25065254175E+03  0.32289244504E+03  0.12509094918E+03 0.  0.
        -24    2    1    2    0    0  0.37129943908E+02 -0.75943045766E+02  0.43690094763E+03  0.45202115333E+03  0.79339183803E+02 0.  0.
        -11    1    3    3    0    0 -0.37624602214E+02 -0.26252594290E+02 -0.25249943253E+03  0.25663353800E+03  0.00000000000E+00 0.  1.
         12    1    3    3    0    0 -0.14066773418E+03  0.25656318385E+02 -0.14357739324E+04  0.14428764476E+04  0.00000000000E+00 0. -1.
         13    1    5    5    0    0  0.38230369530E+02 -0.49668027879E+02  0.40863349145E+03  0.41341239033E+03  0.00000000000E+00 0. -1.
        -14    1    5    5    0    0 -0.11004256219E+01 -0.26275017887E+02  0.28267456184E+02  0.38608763003E+02  0.00000000000E+00 0.  1.
          5    1    4    4  501    0  0.11627335401E+03  0.10677853703E+03 -0.16380997331E+03  0.22753533479E+03  0.41800000000E+01 0. -1.
         -5    1    4    4    0  501  0.24889038477E+02 -0.30239215363E+02 -0.86842568444E+02  0.95357110254E+02  0.41800000000E+01 0. -1.
</event>
<event>
11    1  0.1078607E-008  0.1310795E+03  0.7561462E-02  0.1117950E+00
         22   -1    0    0    0    0  0.00000000000E+00  0.00000000000E+00  0.49443783864E+03  0.49443783864E+03  0.00000000000E+00 0. -1.
         22   -1    0    0    0    0 -0.00000000000E+00 -0.00000000000E+00 -0.44848838819E+03  0.44848838819E+03  0.00000000000E+00 0. -1.
        -24    2    1    2    0    0  0.23202049513E+02 -0.43736153827E+01 -0.38874798756E+03  0.39759090401E+03  0.79975405611E+02 0.  0.
         25    2    1    2    0    0 -0.35445403814E+02  0.40446633739E+02  0.41582100675E+02  0.14236903750E+03  0.12509022708E+03 0.  0.
         24    2    1    2    0    0  0.12243354301E+02 -0.36073018357E+02  0.39311533734E+03  0.40296628531E+03  0.79943706886E+02 0.  0.
        -11    1    5    5    0    0  0.13416744445E+02 -0.30170957044E+02  0.50739253587E+02  0.60537323488E+02  0.00000000000E+00 0.  1.
         12    1    5    5    0    0 -0.11733901445E+01 -0.59020613124E+01  0.34237608375E+03  0.34242896183E+03  0.00000000000E+00 0. -1.
         13    1    3    3    0    0 -0.42506798515E+01 -0.26073539795E+01 -0.35018947836E+03  0.35022498102E+03  0.00000000000E+00 0. -1.
        -14    1    3    3    0    0  0.27452729364E+02 -0.17662614032E+01 -0.38558509202E+02  0.47365922991E+02  0.00000000000E+00 0.  1.
          5    1    4    4  501    0 -0.13178294198E+02 -0.39350619226E+02 -0.12263167089E+02  0.43474088127E+02  0.41800000000E+01 0. -1.
         -5    1    4    4    0  501 -0.22267109616E+02  0.79797252965E+02  0.53845267764E+02  0.98894949376E+02  0.41800000000E+01 0. -1.
</event>
<event>
11    1  0.1078607E-008  0.1555352E+03  0.7561462E-02  0.1091353E+00
         22   -1    0    0    0    0  0.00000000000E+00  0.00000000000E+00  0.20070394197E+03  0.20070394197E+03  0.00000000000E+00 0.  1.
         22   -1    0    0    0    0 -0.00000000000E+00 -0.00000000000E+00 -0.79789305294E+03  0.79789305294E+03  0.00000000000E+00 0. -1.
        -24    2    1    2    0    0 -0.14142692058E+02 -0.91229008123E+01 -0.67799621564E+03  0.68296812423E+03  0.80519235129E+02 0.  0.
         25    2    1    2    0    0  0.19002008409E+01  0.98790899189E+02 -0.14638490157E+02  0.16009347067E+03  0.12510947778E+03 0.  0.
         24    2    1    2    0    0  0.12242491217E+02 -0.89667998377E+02  0.95445594833E+02  0.15553540001E+03  0.83013074618E+02 0.  0.
        -13    1    5    5    0    0  0.45489983807E+02 -0.61192396314E+02  0.75931442297E+02  0.10760776888E+03  0.00000000000E+00 0.  1.
         14    1    5    5    0    0 -0.33247492590E+02 -0.28475602064E+02  0.19514152536E+02  0.47927631129E+02  0.00000000000E+00 0. -1.
         11    1    3    3    0    0 -0.11748725018E+02  0.48435488230E+01 -0.65971866238E+03  0.65984104601E+03  0.00000000000E+00 0. -1.
        -12    1    3    3    0    0 -0.23939670400E+01 -0.13966449635E+02 -0.18277553259E+02  0.23127078214E+02  0.00000000000E+00 0.  1.
          5    1    4    4  501    0  0.45852226510E+02  0.47661308261E+02 -0.50772918897E+02  0.83482864556E+02  0.41800000000E+01 0. -1.
         -5    1    4    4    0  501 -0.43952025670E+02  0.51129590928E+02  0.36134428740E+02  0.76610606115E+02  0.41800000000E+01 0. -1.
</event>
<event>
11    1  0.1078607E-008  0.1742556E+03  0.7561462E-02  0.1074387E+00
         22   -1    0    0    0    0  0.00000000000E+00  0.00000000000E+00  0.47594142721E+03  0.47594142721E+03  0.00000000000E+00 0.  1.
         22   -1    0    0    0    0 -0.00000000000E+00 -0.00000000000E+00 -0.90073043995E+03  0.90073043995E+03  0.00000000000E+00 0. -1.
         24    2    1    2    0    0  0.20048817368E+02 -0.32012640068E+02 -0.69381760085E+03  0.69951074131E+03  0.80657608156E+02 0.  0.
         25    2    1    2    0    0 -0.68158088184E+02  0.14099357602E+03 -0.13984033425E+03  0.24439153457E+03  0.12508872700E+03 0.  0.
        -24    2    1    2    0    0  0.48109270816E+02 -0.10898093595E+03  0.40886892237E+03  0.43276959128E+03  0.76969975416E+02 0.  0.
        -13    1    3    3    0    0 -0.21182608975E+02 -0.96902935020E+01 -0.66844162790E+02  0.70786628753E+02  0.00000000000E+00 0.  1.
         14    1    3    3    0    0  0.41231426344E+02 -0.22322346566E+02 -0.62697343806E+03  0.62872411255E+03  0.00000000000E+00 0. -1.
         11    1    5    5    0    0  0.22555006618E+02 -0.90049208259E+01  0.23390534637E+02  0.33718452414E+02  0.00000000000E+00 0. -1.
        -12    1    5    5    0    0  0.25554264198E+02 -0.99976015128E+02  0.38547838773E+03  0.39905113886E+03  0.00000000000E+00 0.  1.
          5    1    4    4  501    0 -0.30248920286E+02 -0.91673832440E+01  0.50362577817E+01  0.32278079039E+02  0.41800000000E+01 0.  1.
         -5    1    4    4    0  501 -0.37909167898E+02  0.15016095927E+03 -0.14487659203E+03  0.21211345553E+03  0.41800000000E+01 0.  1.
</event>
<event>
11    1  0.1078607E-008  0.1481875E+03  0.7561462E-02  0.1098745E+00
         22   -1    0    0    0    0  0.00000000000E+00  0.00000000000E+00  0.95269977687E+03  0.95269977687E+03  0.00000000000E+00 0.  1.
         22   -1    0    0    0    0 -0.00000000000E+00 -0.00000000000E+00 -0.62758422492E+03  0.62758422492E+03  0.00000000000E+00 0. -1.
         24    2    1    2    0    0  0.91082284309E+00  0.25104688401E+02 -0.51740608174E+03  0.52418120802E+03  0.80161152952E+02 0.  0.
         25    2    1    2    0    0  0.72276421804E+02 -0.55112986154E+02 -0.45284556728E+02  0.16114589992E+03  0.12512388897E+03 0.  0.
        -24    2    1    2    0    0 -0.73187244647E+02  0.30008297753E+02  0.88780619041E+03  0.89495689385E+03  0.80567607718E+02 0.  0.
        -11    1    3    3    0    0 -0.15903687087E+01  0.73282815080E+01 -0.11187249832E+01  0.75818551871E+01  0.00000000000E+00 0.  1.
         12    1    3    3    0    0  0.25011915518E+01  0.17776406893E+02 -0.51628735675E+03  0.51659935283E+03  0.00000000000E+00 0. -1.
         11    1    5    5    0    0 -0.45860818103E+01 -0.16723479702E+02  0.47596781129E+02  0.50657284704E+02  0.00000000000E+00 0. -1.
        -12    1    5    5    0    0 -0.68601162837E+02  0.46731777455E+02  0.84020940928E+03  0.84429960915E+03  0.00000000000E+00 0.  1.
          5    1    4    4  501    0  0.46285347546E+02 -0.26932740931E+02  0.40381566351E+02  0.67200068694E+02  0.41800000000E+01 0.  1.
         -5    1    4    4    0  501  0.25991074258E+02 -0.28180245223E+02 -0.85666123079E+02  0.93945831229E+02  0.41800000000E+01 0.  1.
</event>
<event>
11    1  0.1078607E-008  0.1457206E+03  0.7561462E-02  0.1101333E+00
         22   -1    0    0    0    0  0.00000000000E+00  0.00000000000E+00  0.25230752604E+03  0.25230752604E+03  0.00000000000E+00 0. -1.
         22   -1    0    0    0    0 -0.00000000000E+00 -0.00000000000E+00 -0.13659925369E+04  0.13659925369E+04  0.00000000000E+00 0. -1.
         24    2    1    2    0    0  0.52187376007E+02  0.65007601688E+02 -0.11662384794E+04  0.11718033673E+04  0.77855186966E+02 0.  0.
         25    2    1    2    0    0 -0.32302096245E+01 -0.82058429728E+01 -0.16234475991E+03  0.20513890871E+03  0.12509348777E+03 0.  0.
        -24    2    1    2    0    0 -0.48957166382E+02 -0.56801758715E+02  0.21489822851E+03  0.24135778693E+03  0.80306218699E+02 0.  0.
        -13    1    3    3    0    0  0.46600482628E+01  0.47173689758E+02 -0.27009232689E+03  0.27422060116E+03  0.00000000000E+00 0.  1.
         14    1    3    3    0    0  0.47527327744E+02  0.17833911930E+02 -0.89614615255E+03  0.89758276611E+03  0.00000000000E+00 0. -1.
         13    1    5    5    0    0 -0.55171129967E+02 -0.16986200684E+02  0.17648034371E+03  0.18568170699E+03  0.00000000000E+00 0. -1.
        -14    1    5    5    0    0  0.62139635849E+01 -0.39815558031E+02  0.38417884801E+02  0.55676079939E+02  0.00000000000E+00 0.  1.
          5    1    4    4  501    0 -0.52175066757E+02 -0.40152266375E+02 -0.74097619701E+02  0.99208728101E+02  0.41800000000E+01 0. -1.
         -5    1    4    4    0  501  0.48944857132E+02  0.31946423402E+02 -0.88247140210E+02  0.10593018061E+03  0.41800000000E+01 0. -1.
</event>
<event>
11    1  0.1078607E-008  0.1900224E+03  0.7561462E-02  0.1061812E+00
         22   -1    0    0    0    0  0.00000000000E+00  0.00000000000E+00  0.20593577532E+03  0.20593577532E+03  0.00000000000E+00 0. -1.
         22   -1    0    0    0    0 -0.00000000000E+00 -0.00000000000E+00 -0.67789430212E+03  0.67789430212E+03  0.00000000000E+00 0. -1.
         24    2    1    2    0    0  0.12815206694E+03  0.81446653519E+02 -0.43791674813E+03  0.47078609290E+03  0.82534582736E+02 0.  0.
         25    2    1    2    0    0 -0.11977810276E+03 -0.38786992276E+02 -0.17246846579E+03  0.24747602376E+03  0.12509111069E+03 0.  0.
        -24    2    1    2    0    0 -0.83739641759E+01 -0.42659661243E+02  0.13842668712E+03  0.16556796079E+03  0.79754824051E+02 0.  0.
        -13    1    3    3    0    0  0.23293707723E+02  0.43843892281E+01 -0.14413510806E+02  0.27741106361E+02  0.00000000000E+00 0.  1.
         14    1    3    3    0    0  0.10485835922E+03  0.77062264291E+02 -0.42350323733E+03  0.44304498654E+03  0.00000000000E+00 0. -1.
         13    1    5    5    0    0  0.46149512390E+01  0.85081149132E+01  0.99518870180E+02  0.99988455915E+02  0.00000000000E+00 0. -1.
        -14    1    5    5    0    0 -0.12988915415E+02 -0.51167776156E+02  0.38907816937E+02  0.65579504872E+02  0.00000000000E+00 0.  1.
          5    1    4    4  501    0 -0.74386323034E+02  0.39187771658E+02 -0.60745769836E+02  0.10381005469E+03  0.41800000000E+01 0. -1.
         -5    1    4    4    0  501 -0.45391779729E+02 -0.77974763934E+02 -0.11172269595E+03  0.14366596907E+03  0.41800000000E+01 0. -1.
</event>
<event>
11    1  0.1078607E-008  0.1470019E+03  0.7561462E-02  0.1099982E+00
         22   -1    0    0    0    0  0.00000000000E+00  0.00000000000E+00  0.20544461230E+04  0.20544461230E+04  0.00000000000E+00 0. -1.
         22   -1    0    0    0    0 -0.00000000000E+00 -0.00000000000E+00 -0.62850489737E+03  0.62850489737E+03  0.00000000000E+00 0.  1.
         24    2    1    2    0    0  0.76741342582E+02 -0.53917738956E+01 -0.60213557113E+03  0.61221368482E+03  0.79498710466E+02 0.  0.
         25    2    1    2    0    0 -0.99923125186E+02 -0.45291609337E+02  0.32711219651E+03  0.36699571335E+03  0.12508998237E+03 0.  0.
        -24    2    1    2    0    0  0.23181782604E+02  0.50683383232E+02  0.17009646003E+04  0.17037416222E+04  0.79679002905E+02 0.  0.
        -11    1    3    3    0    0  0.50460487905E+02  0.18372864618E+02 -0.51994699132E+03  0.52271282439E+03  0.00000000000E+00 0.  1.
         12    1    3    3    0    0  0.26280854678E+02 -0.23764638514E+02 -0.82188579812E+02  0.89500860431E+02  0.00000000000E+00 0. -1.
         13    1    5    5    0    0  0.19889052571E+02  0.49487636189E+02  0.16987716929E+04  0.16996087389E+04  0.00000000000E+00 0. -1.
        -14    1    5    5    0    0  0.32927300323E+01  0.11957470436E+01  0.21929073286E+01  0.41328833288E+01  0.00000000000E+00 0.  1.
          5    1    4    4  501    0 -0.42068517984E+02 -0.51310793658E+02  0.29078787895E+03  0.29829116765E+03  0.41800000000E+01 0. -1.
         -5    1    4    4    0  501 -0.57854607202E+02  0.60191843217E+01  0.36324317556E+02  0.68704545703E+02  0.41800000000E+01 0. -1.
</event>
<event>
11    1  0.1078607E-008  0.7253543E+03  0.7561462E-02  0.8995754E-01
         22   -1    0    0    0    0  0.00000000000E+00  0.00000000000E+00  0.33927299713E+03  0.33927299713E+03  0.00000000000E+00 0. -1.
         22   -1    0    0    0    0 -0.00000000000E+00 -0.00000000000E+00 -0.21100357057E+04  0.21100357057E+04  0.00000000000E+00 0. -1.
        -24    2    1    2    0    0  0.40201805027E+03 -0.56239118533E+03 -0.77738192197E+03  0.10434653242E+04  0.81208818079E+02 0.  0.
         25    2    1    2    0    0 -0.29445057025E+03  0.68505167940E+03 -0.95307318110E+03  0.12165510261E+04  0.12510383246E+03 0.  0.
         24    2    1    2    0    0 -0.10756748002E+03 -0.12266049406E+03 -0.40307605522E+02  0.18929235251E+03  0.87123659767E+02 0.  0.
        -13    1    5    5    0    0  0.80001891259E+01 -0.25254462049E+02 -0.26582170934E+02  0.37528691570E+02  0.00000000000E+00 0.  1.
         14    1    5    5    0    0 -0.11556766915E+03 -0.97406032015E+02 -0.13725434589E+02  0.15176366094E+03  0.00000000000E+00 0. -1.
         11    1    3    3    0    0  0.31774851204E+03 -0.43424760007E+03 -0.55217288564E+03  0.77099286035E+03  0.00000000000E+00 0. -1.
        -12    1    3    3    0    0  0.84269538237E+02 -0.12814358526E+03 -0.22520903633E+03  0.27247246386E+03  0.00000000000E+00 0.  1.
          5    1    4    4  501    0 -0.23505774375E+03  0.42596274624E+03 -0.67243355760E+03  0.82998841309E+03  0.41800000000E+01 0.  1.
         -5    1    4    4    0  501 -0.59392826499E+02  0.25908893316E+03 -0.28063962349E+03  0.38656261304E+03  0.41800000000E+01 0.  1.
</event>
<event>
11    1  0.1078607E-008  0.1681969E+03  0.7561462E-02  0.1079612E+00
         22   -1    0    0    0    0  0.00000000000E+00  0.00000000000E+00  0.17382108306E+03  0.17382108306E+03  0.00000000000E+00 0. -1.
         22   -1    0    0    0    0 -0.00000000000E+00 -0.00000000000E+00 -0.75789773423E+03  0.75789773423E+03  0.00000000000E+00 0.  1.
        -24    2    1    2    0    0  0.23973836949E+02  0.10112880458E+02 -0.60737791625E+03  0.61320823745E+03  0.80245835569E+02 0.  0.
         25    2    1    2    0    0  0.92369143306E+02  0.24185779113E+02 -0.33231520530E+02  0.16083787955E+03  0.12508988366E+03 0.  0.
         24    2    1    2    0    0 -0.11634298026E+03 -0.34298659572E+02  0.56532785607E+02  0.15767270028E+03  0.83382476957E+02 0.  0.
        -13    1    5    5    0    0 -0.91362869552E+01 -0.24327815457E+02 -0.13447033398E+02  0.29259819744E+02  0.00000000000E+00 0.  1.
         14    1    5    5    0    0 -0.10720669330E+03 -0.99708441142E+01  0.69979819005E+02  0.12841288054E+03  0.00000000000E+00 0. -1.
         11    1    3    3    0    0  0.17118447638E+02  0.40525502336E+01 -0.23990622017E+02  0.29749190875E+02  0.00000000000E+00 0. -1.
        -12    1    3    3    0    0  0.68553893109E+01  0.60603302247E+01 -0.58338729423E+03  0.58345904658E+03  0.00000000000E+00 0.  1.
          5    1    4    4  501    0  0.47612448822E+02  0.19760437774E+02  0.46273228175E+02  0.69398157249E+02  0.41800000000E+01 0. -1.
         -5    1    4    4    0  501  0.44756694484E+02  0.44253413395E+01 -0.79504748704E+02  0.91439722297E+02  0.41800000000E+01 0. -1.
</event>
<event>
11    1  0.1078607E-008  0.1588313E+03  0.7561462E-02  0.1088182E+00
         22   -1    0    0    0    0  0.00000000000E+00  0.00000000000E+00  0.20109559429E+04  0.20109559429E+04  0.00000000000E+00 0. -1.
         22   -1    0    0    0    0 -0.00000000000E+00 -0.00000000000E+00 -0.16093577753E+03  0.16093577753E+03  0.00000000000E+00 0.  1.
         24    2    1    2    0    0  0.50357343204E+02 -0.91949528670E+02 -0.11055440815E+03  0.17201763168E+03  0.79857439292E+02 0.  0.
         25    2    1    2    0    0 -0.10781233910E+02  0.42929569334E+02  0.22452853130E+03  0.26080691461E+03  0.12509197581E+03 0.  0.
        -24    2    1    2    0    0 -0.39576109295E+02  0.49019959335E+02  0.17360460422E+04  0.17390671741E+04  0.80805634748E+02 0.  0.
        -13    1    3    3    0    0 -0.52737789390E+01 -0.60307738425E+02 -0.82027088340E+02  0.10194743390E+03  0.00000000000E+00 0.  1.
         14    1    3    3    0    0  0.55631122143E+02 -0.31641790245E+02 -0.28527319813E+02  0.70070197777E+02  0.00000000000E+00 0. -1.
         13    1    5    5    0    0 -0.22597744686E+02  0.27098214710E+02  0.15911945843E+04  0.15915857427E+04  0.00000000000E+00 0. -1.
        -14    1    5    5    0    0 -0.16978364609E+02  0.21921744625E+02  0.14485145787E+03  0.14748143137E+03  0.00000000000E+00 0.  1.
          5    1    4    4  501    0 -0.72630546058E+01  0.84729918224E+02  0.11234148574E+03  0.14096096205E+03  0.41800000000E+01 0.  1.
         -5    1    4    4    0  501 -0.35181793037E+01 -0.41800348890E+02  0.11218704556E+03  0.11984595256E+03  0.41800000000E+01 0.  1.
</event>
<event>
11    1  0.1078607E-008  0.1518704E+04  0.7561462E-02  0.8299254E-01
         22   -1    0    0    0    0  0.00000000000E+00  0.00000000000E+00  0.23809510496E+03  0.23809510496E+03  0.00000000000E+00 0. -1.
         22   -1    0    0    0    0 -0.00000000000E+00 -0.00000000000E+00 -0.24217875693E+04  0.24217875693E+04  0.00000000000E+00 0. -1.
         24    2    1    2    0    0 -0.58357195536E+03  0.23544650171E+03 -0.12931300094E+04  0.14403816929E+04  0.80764582601E+02 0.  0.
         25    2    1    2    0    0  0.63164621959E+03 -0.30584386499E+03 -0.72321812350E+03  0.10154853063E+04  0.12509411120E+03 0.  0.
        -24    2    1    2    0    0 -0.48074264223E+02  0.70397363284E+02 -0.16734433141E+03  0.20401567503E+03  0.79695337175E+02 0.  0.
        -13    1    3    3    0    0 -0.15974712220E+03  0.34621278372E+02 -0.38607738911E+03  0.41925353469E+03  0.00000000000E+00 0.  1.
         14    1    3    3    0    0 -0.42382483316E+03  0.20082522334E+03 -0.90705262029E+03  0.10211281582E+04  0.00000000000E+00 0. -1.
         11    1    5    5    0    0  0.11486379851E+02 -0.45825572661E+01 -0.55119753013E+02  0.56490033859E+02  0.00000000000E+00 0. -1.
        -12    1    5    5    0    0 -0.59560644075E+02  0.74979920550E+02 -0.11222457839E+03  0.14752564117E+03  0.00000000000E+00 0.  1.
          5    1    4    4  501    0  0.13169749555E+03 -0.12180792898E+03 -0.20144650717E+03  0.26977688847E+03  0.41800000000E+01 0. -1.
         -5    1    4    4    0  501  0.49994872403E+03 -0.18403593601E+03 -0.52177161633E+03  0.74570841782E+03  0.41800000000E+01 0. -1.
</event>
<event>
11    1  0.1078607E-008  0.1822208E+03  0.7561462E-02  0.1067860E+00
         22   -1    0    0    0    0  0.00000000000E+00  0.00000000000E+00  0.67163784525E+03  0.67163784525E+03  0.00000000000E+00 0.  1.
         22   -1    0    0    0    0 -0.00000000000E+00 -0.00000000000E+00 -0.57103654863E+03  0.57103654863E+03  0.00000000000E+00 0.  1.
         24    2    1    2    0    0 -0.69336981896E+02 -0.10851079722E+03 -0.23871648752E+03  0.28250531024E+03  0.79003029873E+02 0.  0.
         25    2    1    2    0    0 -0.28533266291E+01  0.15227157605E+03 -0.27346751174E+03  0.33708525146E+03  0.12508881818E+03 0.  0.
        -24    2    1    2    0    0  0.72190308526E+02 -0.43760778825E+02  0.61278529587E+03  0.62308383218E+03  0.74841142919E+02 0.  0.
        -11    1    3    3    0    0 -0.39147774761E+02 -0.10268482306E+03 -0.22150994911E+03  0.24727187205E+03  0.00000000000E+00 0.  1.
         12    1    3    3    0    0 -0.30189207136E+02 -0.58259741608E+01 -0.17206538412E+02  0.35233438188E+02  0.00000000000E+00 0. -1.
         11    1    5    5    0    0  0.45946523351E+02  0.14963620989E+02  0.28009342409E+03  0.28423110171E+03  0.00000000000E+00 0. -1.
        -12    1    5    5    0    0  0.26243785175E+02 -0.58724399815E+02  0.33269187179E+03  0.33885273047E+03  0.00000000000E+00 0.  1.
          5    1    4    4  501    0  0.43076719176E+02  0.19446210679E+02 -0.30616631029E+02  0.56467772581E+02  0.41800000000E+01 0. -1.
         -5    1    4    4    0  501 -0.45930045805E+02  0.13282536537E+03 -0.24285088071E+03  0.28061747888E+03  0.41800000000E+01 0. -1.
</event>
<event>
11    1  0.1078607E-008  0.6645101E+03  0.7561462E-02  0.9086303E-01
         22   -1    0    0    0    0  0.00000000000E+00  0.00000000000E+00  0.20019152878E+04  0.20019152878E+04  0.00000000000E+00 0. -1.
         22   -1    0    0    0    0 -0.00000000000E+00 -0.00000000000E+00 -0.40509275269E+03  0.40509275269E+03  0.00000000000E+00 0. -1.
         24    2    1    2    0    0  0.66214742156E+03  0.21391560316E+03  0.62522628351E+03  0.93890209305E+03  0.80188163730E+02 0.  0.
         25    2    1    2    0    0 -0.64496760290E+03  0.17056408668E+03  0.44680458203E+03  0.81262281222E+03  0.12508470716E+03 0.  0.
        -24    2    1    2    0    0 -0.17179818660E+02 -0.38447968984E+03  0.52479166954E+03  0.65548313518E+03  0.78307509362E+02 0.  0.
        -11    1    3    3    0    0  0.39784725055E+03  0.94552564603E+02  0.33514303720E+03  0.52871871314E+03  0.00000000000E+00 0.  1.
         12    1    3    3    0    0  0.26430017101E+03  0.11936303856E+03  0.29008324631E+03  0.41018337991E+03  0.00000000000E+00 0. -1.
         11    1    5    5    0    0 -0.38327577119E+02 -0.34728356408E+03  0.45591705136E+03  0.57439989099E+03  0.00000000000E+00 0. -1.
        -12    1    5    5    0    0  0.21147758459E+02 -0.37196125754E+02  0.68874618182E+02  0.81083244191E+02  0.00000000000E+00 0.  1.
          5    1    4    4  501    0 -0.29270452499E+03  0.14008485094E+03  0.23139149918E+03  0.39857145245E+03  0.41800000000E+01 0. -1.
         -5    1    4    4    0  501 -0.35226307791E+03  0.30479235739E+02  0.21541308285E+03  0.41405135977E+03  0.41800000000E+01 0. -1.
</event>
<event>
11    1  0.1078607E-008  0.1959075E+03  0.7561462E-02  0.1057456E+00
         22   -1    0    0    0    0  0.00000000000E+00  0.00000000000E+00  0.64736115052E+03  0.64736115052E+03  0.00000000000E+00 0. -1.
         22   -1    0    0    0    0 -0.00000000000E+00 -0.00000000000E+00 -0.73182254091E+03  0.73182254091E+03  0.00000000000E+00 0.  1.
        -24    2    1    2    0    0 -0.59002469640E+02  0.14751771042E+03 -0.54423100533E+03  0.57278027757E+03  0.81529705605E+02 0.  0.
         25    2    1    2    0    0  0.85460555991E+00 -0.13055186625E+03 -0.12026199427E+03  0.21715268323E+03  0.12509124844E+03 0.  0.
         24    2    1    2    0    0  0.58147864080E+02 -0.16965844163E+02  0.58003160922E+03  0.58925073063E+03  0.84325215027E+02 0.  0.
        -11    1    5    5    0    0 -0.17074489901E+02 -0.20268597439E+02  0.20754616630E+03  0.20923136809E+03  0.00000000000E+00 0.  1.
         12    1    5    5    0    0  0.75222353981E+02  0.33027532757E+01  0.37248544292E+03  0.38001936254E+03  0.00000000000E+00 0. -1.
         13    1    3    3    0    0 -0.64853917012E+02  0.10730136877E+03 -0.29928692123E+03  0.32448771241E+03  0.00000000000E+00 0. -1.
        -14    1    3    3    0    0  0.58514473719E+01  0.40216341650E+02 -0.24494408411E+03  0.24829256515E+03  0.00000000000E+00 0.  1.
          5    1    4    4  501    0 -0.40588265417E+02 -0.88091670797E+02 -0.12408472313E+03  0.15755012113E+03  0.41800000000E+01 0. -1.
         -5    1    4    4    0  501  0.41442870977E+02 -0.42460195455E+02  0.38227288641E+01  0.59602562100E+02  0.41800000000E+01 0. -1.
</event>
<event>
11    1  0.1078607E-008  0.3857281E+03  0.7561462E-02  0.9692832E-01
         22   -1    0    0    0    0  0.00000000000E+00  0.00000000000E+00  0.23513687171E+04  0.23513687171E+04  0.00000000000E+00 0. -1.
         22   -1    0    0    0    0 -0.00000000000E+00 -0.00000000000E+00 -0.14351809215E+03  0.14351809215E+03  0.00000000000E+00 0.  1.
         24    2    1    2    0    0  0.29351535048E+02  0.54648315444E+02  0.35745706947E+02  0.10616009733E+03  0.78385328411E+02 0.  0.
         25    2    1    2    0    0  0.94261386931E+02 -0.39018833798E+03  0.40540017406E+03  0.58406090954E+03  0.12508275966E+03 0.  0.
        -24    2    1    2    0    0 -0.12361292198E+03  0.33554002253E+03  0.17667047440E+04  0.18046658024E+04  0.87782371687E+02 0.  0.
        -13    1    3    3    0    0  0.47861666176E+02  0.61577103757E+02  0.19038750843E+02  0.80280463562E+02  0.00000000000E+00 0.  1.
         14    1    3    3    0    0 -0.18510131127E+02 -0.69287883123E+01  0.16706956105E+02  0.25879633771E+02  0.00000000000E+00 0. -1.
         11    1    5    5    0    0 -0.17217762057E+02  0.52693935857E+02  0.46768012930E+03  0.47095414378E+03  0.00000000000E+00 0. -1.
        -12    1    5    5    0    0 -0.10639515992E+03  0.28284608667E+03  0.12990246147E+04  0.13337116586E+04  0.00000000000E+00 0.  1.
          5    1    4    4  501    0  0.99060786950E+02 -0.30494182006E+03  0.24959938279E+03  0.40634945235E+03  0.41800000000E+01 0. -1.
         -5    1    4    4    0  501 -0.47994000185E+01 -0.85246517915E+02  0.15580079127E+03  0.17771145719E+03  0.41800000000E+01 0. -1.
</event>
<event>
11    1  0.1078607E-008  0.1392574E+03  0.7561462E-02  0.1108390E+00
         22   -1    0    0    0    0  0.00000000000E+00  0.00000000000E+00  0.39709075750E+02  0.39709075750E+02  0.00000000000E+00 0. -1.
         22   -1    0    0    0    0 -0.00000000000E+00 -0.00000000000E+00 -0.15121725706E+04  0.15121725706E+04  0.00000000000E+00 0.  1.
        -24    2    1    2    0    0  0.57630025611E+02  0.29751094035E+02 -0.11810732126E+04  0.11852580703E+04  0.75474580132E+02 0.  0.
         25    2    1    2    0    0 -0.27900144127E+02 -0.11929437962E+02 -0.21771818446E+03  0.25292559235E+03  0.12509763343E+03 0.  0.
         24    2    1    2    0    0 -0.29729881484E+02 -0.17821656073E+02 -0.73672097771E+02  0.11369798367E+03  0.79361049788E+02 0.  0.
        -11    1    5    5    0    0 -0.35409358605E+02 -0.31277590336E+02 -0.83607957032E+02  0.96033331782E+02  0.00000000000E+00 0.  1.
         12    1    5    5    0    0  0.56794771216E+01  0.13455934263E+02  0.99358592606E+01  0.17664651893E+02  0.00000000000E+00 0. -1.
         13    1    3    3    0    0  0.29014122934E+02  0.40133959839E+02 -0.33533111362E+03  0.33896830210E+03  0.00000000000E+00 0. -1.
        -14    1    3    3    0    0  0.28615902677E+02 -0.10382865804E+02 -0.84574209898E+03  0.84628976821E+03  0.00000000000E+00 0.  1.
          5    1    4    4  501    0 -0.40633384356E+02  0.38037000171E+02 -0.42285849540E+02  0.70024644074E+02  0.41800000000E+01 0. -1.
         -5    1    4    4    0  501  0.12733240229E+02 -0.49966438133E+02 -0.17543233492E+03  0.18290094828E+03  0.41800000000E+01 0. -1.
</event>
<event>
11    1  0.1078607E-008  0.1401949E+03  0.7561462E-02  0.1107341E+00
         22   -1    0    0    0    0  0.00000000000E+00  0.00000000000E+00  0.33054234092E+04  0.33054234092E+04  0.00000000000E+00 0. -1.
         22   -1    0    0    0    0 -0.00000000000E+00 -0.00000000000E+00 -0.24240308746E+03  0.24240308746E+03  0.00000000000E+00 0. -1.
         24    2    1    2    0    0  0.64606625365E+02  0.61263148558E+00 -0.21954765588E+03  0.24351801091E+03  0.83219331162E+02 0.  0.
         25    2    1    2    0    0 -0.12807763133E+02 -0.47037145916E+02  0.44383645585E+03  0.46369722942E+03  0.12509112333E+03 0.  0.
        -24    2    1    2    0    0 -0.51798862231E+02  0.46424514430E+02  0.28387315218E+04  0.28406112564E+04  0.76402219989E+02 0.  0.
        -11    1    3    3    0    0  0.11390039131E+02 -0.10964044694E+02  0.14808230899E+01  0.15878794176E+02  0.00000000000E+00 0.  1.
         12    1    3    3    0    0  0.53216586234E+02  0.11576676180E+02 -0.22102847897E+03  0.22763921674E+03  0.00000000000E+00 0. -1.
         11    1    5    5    0    0 -0.49861381195E+02  0.64777612757E+02  0.19885995728E+04  0.19902790150E+04  0.00000000000E+00 0. -1.
        -12    1    5    5    0    0 -0.19374810365E+01 -0.18353098327E+02  0.85013194901E+03  0.85033224141E+03  0.00000000000E+00 0.  1.
          5    1    4    4  501    0  0.95909515281E+01 -0.85714866789E+02  0.24245461224E+03  0.25737275717E+03  0.41800000000E+01 0.  1.
         -5    1    4    4    0  501 -0.22398714662E+02  0.38677720874E+02  0.20138184362E+03  0.20632447225E+03  0.41800000000E+01 0.  1.
</event>
<event>
11    1  0.1078607E-008  0.1283957E+03  0.7561462E-02  0.1121256E+00
         22   -1    0    0    0    0  0.00000000000E+00  0.00000000000E+00  0.12493370516E+03  0.12493370516E+03  0.00000000000E+00 0.  1.
         22   -1    0    0    0    0 -0.00000000000E+00 -0.00000000000E+00 -0.93068642341E+03  0.93068642341E+03  0.00000000000E+00 0. -1.
        -24    2    1    2    0    0  0.18825677954E+02  0.13261754756E+02 -0.81901567442E+03  0.82299362764E+03  0.77469709536E+02 0.  0.
         25    2    1    2    0    0 -0.28010599853E+02 -0.35850090356E+02 -0.32318405541E+02  0.13697386800E+03  0.12509012149E+03 0.  0.
         24    2    1    2    0    0  0.91849218990E+01  0.22588335599E+02  0.45581361715E+02  0.95652632937E+02  0.80480867022E+02 0.  0.
        -11    1    5    5    0    0  0.13921723082E+02  0.28716754177E+01  0.65621319446E+02  0.67143268159E+02  0.00000000000E+00 0.  1.
         12    1    5    5    0    0 -0.47368011835E+01  0.19716660182E+02 -0.20039957731E+02  0.28509364778E+02  0.00000000000E+00 0. -1.
         11    1    3    3    0    0 -0.17855919313E+02  0.26931596316E+02 -0.57043851489E+03  0.57135299422E+03  0.00000000000E+00 0. -1.
        -12    1    3    3    0    0  0.36681597267E+02 -0.13669841560E+02 -0.24857715953E+03  0.25164063342E+03  0.00000000000E+00 0.  1.
          5    1    4    4  501    0 -0.59484223666E+02 -0.64223575965E+02 -0.81607348308E+01  0.88017671907E+02  0.41800000000E+01 0.  1.
         -5    1    4    4    0  501  0.31473623814E+02  0.28373485609E+02 -0.24157670710E+02  0.48956196091E+02  0.41800000000E+01 0.  1.
</event>
<event>
11    1  0.1078607E-008  0.1431440E+03  0.7561462E-02  0.1104098E+00
         22   -1    0    0    0    0  0.00000000000E+00  0.00000000000E+00  0.76468949653E+03  0.76468949653E+03  0.00000000000E+00 0.  1.
         22   -1    0    0    0    0 -0.00000000000E+00 -0.00000000000E+00 -0.13149827951E+04  0.13149827951E+04  0.00000000000E+00 0.  1.
        -24    2    1    2    0    0 -0.57801627151E+02  0.56186559550E+02 -0.10434146328E+04  0.10495804480E+04  0.80044134419E+02 0.  0.
         25    2    1    2    0    0  0.42555073451E+01 -0.17828761017E+02 -0.24968140266E+03  0.27986653831E+03  0.12509397417E+03 0.  0.
         24    2    1    2    0    0  0.53546119806E+02 -0.38357798534E+02  0.74280273683E+03  0.75022530530E+03  0.82119396118E+02 0.  0.
        -11    1    5    5    0    0 -0.37581149711E+01 -0.41799012516E+02  0.44242135777E+03  0.44440740170E+03  0.00000000000E+00 0.  1.
         12    1    5    5    0    0  0.57304234777E+02  0.34412139822E+01  0.30038137906E+03  0.30581790360E+03  0.00000000000E+00 0. -1.
         11    1    3    3    0    0 -0.76187726852E+02  0.44656895881E+02 -0.71195896800E+03  0.71741506827E+03  0.00000000000E+00 0. -1.
        -12    1    3    3    0    0  0.18386099701E+02  0.11529663670E+02 -0.33145566478E+03  0.33216537978E+03  0.00000000000E+00 0.  1.
          5    1    4    4  501    0  0.54491205891E+02 -0.20658129417E+02 -0.20251372470E+03  0.21077317410E+03  0.41800000000E+01 0. -1.
         -5    1    4    4    0  501 -0.50235698546E+02  0.28293684007E+01 -0.47167677964E+02  0.69093364214E+02  0.41800000000E+01 0. -1.
</event>
<event>
11    1  0.1078607E-008  0.1403418E+03  0.7561462E-02  0.1107177E+00
         22   -1    0    0    0    0  0.00000000000E+00  0.00000000000E+00  0.60201907006E+03  0.60201907006E+03  0.00000000000E+00 0. -1.
         22   -1    0    0    0    0 -0.00000000000E+00 -0.00000000000E+00 -0.55692546805E+03  0.55692546805E+03  0.00000000000E+00 0.  1.
         24    2    1    2    0    0 -0.41233084047E+00 -0.45723684749E+02 -0.46557193707E+03  0.47247373533E+03  0.66207073803E+02 0.  0.
         25    2    1    2    0    0  0.50791813498E+02  0.81987132139E+02 -0.78091162685E+01  0.15814780007E+03  0.12509215089E+03 0.  0.
        -24    2    1    2    0    0 -0.50379482657E+02 -0.36263447390E+02  0.51847465535E+03  0.52832300272E+03  0.80349841747E+02 0.  0.
        -11    1    3    3    0    0  0.21691605852E+02 -0.31951108752E+02 -0.40088598620E+03  0.40274181934E+03  0.00000000000E+00 0.  1.
         12    1    3    3    0    0 -0.22103936692E+02 -0.13772575997E+02 -0.64685950874E+02  0.69731915988E+02  0.00000000000E+00 0. -1.
         11    1    5    5    0    0 -0.40778401529E+02 -0.60796881757E+02  0.42263458544E+03  0.42892788633E+03  0.00000000000E+00 0. -1.
        -12    1    5    5    0    0 -0.96010811279E+01  0.24533434367E+02  0.95840069914E+02  0.99395116388E+02  0.00000000000E+00 0.  1.
          5    1    4    4  501    0 -0.38159878737E+01 -0.30287766127E+02  0.90045112429E+01  0.32100843651E+02  0.41800000000E+01 0. -1.
         -5    1    4    4    0  501  0.54607801371E+02  0.11227489827E+03 -0.16813627511E+02  0.12604695641E+03  0.41800000000E+01 0. -1.
</event>
<event>
11    1  0.1078607E-008  0.1513130E+03  0.7561462E-02  0.1095545E+00
         22   -1    0    0    0    0  0.00000000000E+00  0.00000000000E+00  0.28413265639E+03  0.28413265639E+03  0.00000000000E+00 0.  1.
         22   -1    0    0    0    0 -0.00000000000E+00 -0.00000000000E+00 -0.15754914193E+04  0.15754914193E+04  0.00000000000E+00 0. -1.
        -24    2    1    2    0    0 -0.91302433156E+01 -0.12570110458E+02 -0.14788667486E+04  0.14811291873E+04  0.80345754320E+02 0.  0.
         25    2    1    2    0    0  0.84256392133E+02  0.47291289667E+02  0.36181817949E+00  0.15806107342E+03  0.12509023274E+03 0.  0.
         24    2    1    2    0    0 -0.75126148817E+02 -0.34721179208E+02  0.18714616756E+03  0.22043381495E+03  0.81962675764E+02 0.  0.
        -13    1    5    5    0    0 -0.49671397986E+02  0.21019908990E+02  0.10390608838E+03  0.11707074594E+03  0.00000000000E+00 0.  1.
         14    1    5    5    0    0 -0.25454750831E+02 -0.55741088199E+02  0.83240079180E+02  0.10336306901E+03  0.00000000000E+00 0. -1.
         11    1    3    3    0    0  0.17883704039E+02  0.17641065082E+02 -0.10620000169E+04  0.10622970724E+04  0.00000000000E+00 0. -1.
        -12    1    3    3    0    0 -0.27013947354E+02 -0.30211175540E+02 -0.41686673170E+03  0.41883211490E+03  0.00000000000E+00 0.  1.
          5    1    4    4  501    0  0.21063064319E+02  0.24478915218E+02  0.59909926184E+02  0.68187547428E+02  0.41800000000E+01 0. -1.
         -5    1    4    4    0  501  0.63193327814E+02  0.22812374448E+02 -0.59548108005E+02  0.89873525997E+02  0.41800000000E+01 0. -1.
</event>
<event>
11    1  0.1078607E-008  0.2086277E+03  0.7561462E-02  0.1048585E+00
         22   -1    0    0    0    0  0.00000000000E+00  0.00000000000E+00  0.67929150435E+03  0.67929150435E+03  0.00000000000E+00 0. -1.
         22   -1    0    0    0    0 -0.00000000000E+00 -0.00000000000E+00 -0.37657562431E+03  0.37657562431E+03  0.00000000000E+00 0. -1.
         24    2    1    2    0    0 -0.13799538430E+03  0.93013994333E+02 -0.28075951522E+03  0.33848647694E+03  0.89737731515E+02 0.  0.
         25    2    1    2    0    0  0.19932272930E+03 -0.51446537868E+01  0.19358971669E+03  0.30476268427E+03  0.12508915794E+03 0.  0.
        -24    2    1    2    0    0 -0.61327344996E+02 -0.87869340546E+02  0.38988567856E+03  0.41261796745E+03  0.82223357170E+02 0.  0.
        -13    1    3    3    0    0 -0.18978978035E+02  0.60722098495E+02 -0.72511516532E+02  0.96463956392E+02  0.00000000000E+00 0.  1.
         14    1    3    3    0    0 -0.11901640627E+03  0.32291895838E+02 -0.20824799869E+03  0.24202252055E+03  0.00000000000E+00 0. -1.
         13    1    5    5    0    0 -0.27852115376E+02 -0.64945231306E+02  0.11663842967E+03  0.13637502219E+03  0.00000000000E+00 0. -1.
        -14    1    5    5    0    0 -0.33475229620E+02 -0.22924109240E+02  0.27324724889E+03  0.27624294526E+03  0.00000000000E+00 0.  1.
          5    1    4    4  501    0  0.43652317601E+02 -0.50702726316E+02  0.27157118724E+02  0.72327538222E+02  0.41800000000E+01 0. -1.
         -5    1    4    4    0  501  0.15567041170E+03  0.45558072529E+02  0.16643259797E+03  0.23243514604E+03  0.41800000000E+01 0. -1.
</event>
<event>
11    1  0.1078607E-008  0.1317403E+03  0.7561462E-02  0.1117149E+00
         22   -1    0    0    0    0  0.00000000000E+00  0.00000000000E+00  0.16697667631E+04  0.16697667631E+04  0.00000000000E+00 0.  1.
         22   -1    0    0    0    0 -0.00000000000E+00 -0.00000000000E+00 -0.20146437894E+03  0.20146437894E+03  0.00000000000E+00 0. -1.
        -24    2    1    2    0    0  0.38309804840E+02 -0.15745816722E+02 -0.18189512230E+03  0.20322819550E+03  0.80624388606E+02 0.  0.
         25    2    1    2    0    0 -0.23855134289E+02  0.35390503435E+02  0.59635649647E+03  0.61082802707E+03  0.12509297585E+03 0.  0.
         24    2    1    2    0    0 -0.14454670552E+02 -0.19644686713E+02  0.10538410099E+04  0.10571749194E+04  0.80268828405E+02 0.  0.
        -11    1    5    5    0    0 -0.36983018020E+02  0.98382182122E+01  0.76554712737E+03  0.76650305830E+03  0.00000000000E+00 0.  1.
         12    1    5    5    0    0  0.22528347468E+02 -0.29482904925E+02  0.28829388258E+03  0.29067186113E+03  0.00000000000E+00 0. -1.
         11    1    3    3    0    0 -0.39856243040E+01 -0.33261655562E+02 -0.12897718120E+03  0.13325665538E+03  0.00000000000E+00 0. -1.
        -12    1    3    3    0    0  0.42295429144E+02  0.17515838840E+02 -0.52917941095E+02  0.69971540118E+02  0.00000000000E+00 0.  1.
          5    1    4    4  501    0 -0.30097086881E+02  0.26766654397E+01  0.27767938326E+02  0.41249605761E+02  0.41800000000E+01 0. -1.
         -5    1    4    4    0  501  0.62419525925E+01  0.32713837995E+02  0.56858855814E+03  0.56957842131E+03  0.41800000000E+01 0. -1.
</event>
<event>
11    1  0.1078607E-008  0.1688835E+03  0.7561462E-02  0.1079007E+00
         22   -1    0    0    0    0  0.00000000000E+00  0.00000000000E+00  0.13965415832E+04  0.13965415832E+04  0.00000000000E+00 0. -1.
         22   -1    0    0    0    0 -0.00000000000E+00 -0.00000000000E+00 -0.17984582673E+03  0.17984582673E+03  0.00000000000E+00 0.  1.
        -24    2    1    2    0    0 -0.11832917732E+03 -0.16821450076E+02 -0.64364047012E+02  0.15583378314E+03  0.76528962045E+02 0.  0.
         25    2    1    2    0    0  0.10280496009E+03 -0.28770564794E+02  0.31473139450E+02  0.16743460431E+03  0.12508870051E+03 0.  0.
         24    2    1    2    0    0  0.15524217235E+02  0.45592014870E+02  0.12495866641E+04  0.12531190225E+04  0.80751597080E+02 0.  0.
        -13    1    5    5    0    0  0.41412034005E+02  0.26167478891E+02  0.41116032610E+03  0.41406823987E+03  0.00000000000E+00 0.  1.
         14    1    5    5    0    0 -0.25887816770E+02  0.19424535980E+02  0.83842633798E+03  0.83905078265E+03  0.00000000000E+00 0. -1.
         11    1    3    3    0    0 -0.11029192620E+03 -0.37538589947E+02 -0.40795253089E+02  0.12344110902E+03  0.00000000000E+00 0. -1.
        -12    1    3    3    0    0 -0.80372511219E+01  0.20717139871E+02 -0.23568793923E+02  0.32392674126E+02  0.00000000000E+00 0.  1.
          5    1    4    4  501    0  0.47465719005E+02 -0.35832333312E+02 -0.43562973115E+02  0.73838713545E+02  0.41800000000E+01 0.  1.
         -5    1    4    4    0  501  0.55339241084E+02  0.70617685181E+01  0.75036112566E+02  0.93595890761E+02  0.41800000000E+01 0.  1.
</event>
<event>
11    1  0.1078607E-008  0.1730074E+03  0.7561462E-02  0.1075444E+00
         22   -1    0    0    0    0  0.00000000000E+00  0.00000000000E+00  0.37419307237E+04  0.37419307237E+04  0.00000000000E+00 0.  1.
         22   -1    0    0    0    0 -0.00000000000E+00 -0.00000000000E+00 -0.20353377526E+03  0.20353377526E+03  0.00000000000E+00 0. -1.
        -24    2    1    2    0    0 -0.11970434666E+03 -0.26216789717E+01 -0.16649901450E+03  0.22012656810E+03  0.79986125938E+02 0.  0.
         25    2    1    2    0    0  0.11278829254E+03  0.86560882234E+01  0.72991279416E+03  0.74914689972E+03  0.12510900641E+03 0.  0.
         24    2    1    2    0    0  0.69160541160E+01 -0.60344092517E+01  0.29749831688E+04  0.29761910312E+04  0.84284953766E+02 0.  0.
        -13    1    5    5    0    0  0.52739801421E+01  0.18935157672E+02  0.27000226422E+04  0.27000941879E+04  0.00000000000E+00 0.  1.
         14    1    5    5    0    0  0.16420739739E+01 -0.24969566924E+02  0.27496052659E+03  0.27609684327E+03  0.00000000000E+00 0. -1.
         11    1    3    3    0    0 -0.12247648043E+03 -0.16740510154E+02 -0.12330506013E+03  0.17459917179E+03  0.00000000000E+00 0. -1.
        -12    1    3    3    0    0  0.27721337693E+01  0.14118831183E+02 -0.43193954377E+02  0.45527396305E+02  0.00000000000E+00 0.  1.
          5    1    4    4  501    0  0.12160045406E+03 -0.46453518807E+00  0.72465006072E+03  0.73479389567E+03  0.41800000000E+01 0. -1.
         -5    1    4    4    0  501 -0.88121615141E+01  0.91206234115E+01  0.52627334450E+01  0.14353004051E+02  0.41800000000E+01 0. -1.
</event>
<event>
11    1  0.1078607E-008  0.1470896E+03  0.7561462E-02  0.1099890E+00
         22   -1    0    0    0    0  0.00000000000E+00  0.00000000000E+00  0.46639610141E+02  0.46639610141E+02  0.00000000000E+00 0.  1.
         22   -1    0    0    0    0 -0.00000000000E+00 -0.00000000000E+00 -0.17550894530E+04  0.17550894530E+04  0.00000000000E+00 0. -1.
         24    2    1    2    0    0 -0.67932154952E+02  0.17275603878E+02 -0.11307733215E+04  0.11358315869E+04  0.80943591911E+02 0.  0.
         25    2    1    2    0    0  0.11623117824E+03 -0.11760088857E+02 -0.53523678090E+03  0.56193753408E+03  0.12508954432E+03 0.  0.
        -24    2    1    2    0    0 -0.48299023286E+02 -0.55155150216E+01 -0.42439740510E+02  0.10395994219E+03  0.81506573038E+02 0.  0.
        -11    1    3    3    0    0  0.53154171363E+00 -0.25677438673E+02 -0.22562298615E+03  0.22708004156E+03  0.00000000000E+00 0.  1.
         12    1    3    3    0    0 -0.68463696666E+02  0.42953042552E+02 -0.90515033533E+03  0.90875154535E+03  0.00000000000E+00 0. -1.
         11    1    5    5    0    0  0.79337225547E+01 -0.74353081839E+01 -0.46302442401E+02  0.47562000943E+02  0.00000000000E+00 0. -1.
        -12    1    5    5    0    0 -0.56232745840E+02  0.19197931622E+01  0.38627018910E+01  0.56397941243E+02  0.00000000000E+00 0.  1.
          5    1    4    4  501    0  0.13192485903E+03 -0.11746591418E+02 -0.32363032477E+03  0.34970875075E+03  0.41800000000E+01 0. -1.
         -5    1    4    4    0  501 -0.15693680794E+02 -0.13497438397E-01 -0.21160645613E+03  0.21222878333E+03  0.41800000000E+01 0. -1.
</event>
<event>
11    1  0.1078607E-008  0.1613395E+03  0.7561462E-02  0.1085824E+00
         22   -1    0    0    0    0  0.00000000000E+00  0.00000000000E+00  0.18970547786E+03  0.18970547786E+03  0.00000000000E+00 0. -1.
         22   -1    0    0    0    0 -0.00000000000E+00 -0.00000000000E+00 -0.13215993036E+04  0.13215993036E+04  0.00000000000E+00 0.  1.
        -24    2    1    2    0    0 -0.18169681770E+02  0.38182120863E+02 -0.10297512878E+04  0.10336905290E+04  0.79626524768E+02 0.  0.
         25    2    1    2    0    0  0.27886212957E+02 -0.13584847416E+03 -0.22942730761E+03  0.29583203531E+03  0.12508898766E+03 0.  0.
         24    2    1    2    0    0 -0.97165311869E+01  0.97666353296E+02  0.12728476961E+03  0.18178221715E+03  0.84913098820E+02 0.  0.
        -11    1    5    5    0    0 -0.20735838125E+02  0.95553331448E+01 -0.41075719310E+01  0.23198093056E+02  0.00000000000E+00 0.  1.
         12    1    5    5    0    0  0.11019306938E+02  0.88111020151E+02  0.13139234155E+03  0.15858412409E+03  0.00000000000E+00 0. -1.
         13    1    3    3    0    0 -0.93254876358E+01  0.28648101881E+02 -0.11605809813E+03  0.11990479808E+03  0.00000000000E+00 0. -1.
        -14    1    3    3    0    0 -0.88441941347E+01  0.95340189816E+01 -0.91369318963E+03  0.91378573093E+03  0.00000000000E+00 0.  1.
          5    1    4    4  501    0  0.63448724903E+02 -0.11758673699E+03 -0.12142749968E+03  0.18059482686E+03  0.41800000000E+01 0.  1.
         -5    1    4    4    0  501 -0.35562511946E+02 -0.18261737169E+02 -0.10799980792E+03  0.11523720845E+03  0.41800000000E+01 0.  1.
</event>
<event>
11    1  0.1078607E-008  0.1481348E+03  0.7561462E-02  0.1098800E+00
         22   -1    0    0    0    0  0.00000000000E+00  0.00000000000E+00  0.19326378959E+03  0.19326378959E+03  0.00000000000E+00 0. -1.
         22   -1    0    0    0    0 -0.00000000000E+00 -0.00000000000E+00 -0.98040310543E+03  0.98040310543E+03  0.00000000000E+00 0. -1.
        -24    2    1    2    0    0  0.14644688876E+02  0.76200516062E+02 -0.82925790263E+03  0.83712065808E+03  0.84150707332E+02 0.  0.
         25    2    1    2    0    0 -0.29110203531E+02 -0.97039282007E+02 -0.86460996765E+02  0.18272106294E+03  0.12508979446E+03 0.  0.
         24    2    1    2    0    0  0.14465514655E+02  0.20838765945E+02  0.12857958355E+03  0.15382517400E+03  0.80535517443E+02 0.  0.
        -11    1    5    5    0    0 -0.27955872520E+02  0.20147015844E+02  0.27117369512E+02  0.43849569953E+02  0.00000000000E+00 0.  1.
         12    1    5    5    0    0  0.42421387175E+02  0.69175010090E+00  0.10146221404E+03  0.10997560405E+03  0.00000000000E+00 0. -1.
         13    1    3    3    0    0 -0.65311403605E+01  0.64996061774E+02 -0.77573582376E+03  0.77848134987E+03  0.00000000000E+00 0. -1.
        -14    1    3    3    0    0  0.21175829237E+02  0.11204454288E+02 -0.53522078877E+02  0.58639308207E+02  0.00000000000E+00 0.  1.
          5    1    4    4  501    0 -0.51992534381E+02 -0.95822875645E+02 -0.10615222536E+03  0.15222028274E+03  0.41800000000E+01 0. -1.
         -5    1    4    4    0  501  0.22882330850E+02 -0.12164063618E+01  0.19691228591E+02  0.30500780203E+02  0.41800000000E+01 0. -1.
</event>
<event>
11    1  0.1078607E-008  0.1465541E+03  0.7561462E-02  0.1100453E+00
         22   -1    0    0    0    0  0.00000000000E+00  0.00000000000E+00  0.88799101626E+03  0.88799101626E+03  0.00000000000E+00 0. -1.
         22   -1    0    0    0    0 -0.00000000000E+00 -0.00000000000E+00 -0.16686221731E+03  0.16686221731E+03  0.00000000000E+00 0.  1.
         24    2    1    2    0    0 -0.90874139505E+01  0.56926913031E+02 -0.12421840655E+03  0.15144504212E+03  0.64669418856E+02 0.  0.
         25    2    1    2    0    0  0.23558781290E+01 -0.12315359068E+03  0.29772189055E+03  0.34562756155E+03  0.12509088748E+03 0.  0.
        -24    2    1    2    0    0  0.67315358215E+01  0.66226677653E+02  0.54762531496E+03  0.55778062991E+03  0.82428509073E+02 0.  0.
        -11    1    3    3    0    0 -0.26517178776E+02  0.55185749957E+02 -0.11785268731E+03  0.13280769434E+03  0.00000000000E+00 0.  1.
         12    1    3    3    0    0  0.17429764826E+02  0.17411630739E+01 -0.63657192405E+01  0.18637347777E+02  0.00000000000E+00 0. -1.
         13    1    5    5    0    0  0.22000363540E+02  0.70656933267E+02  0.52463494106E+03  0.52982850017E+03  0.00000000000E+00 0. -1.
        -14    1    5    5    0    0 -0.15268827718E+02 -0.44302556141E+01  0.22990373904E+02  0.27952129739E+02  0.00000000000E+00 0.  1.
          5    1    4    4  501    0  0.10167584664E+02  0.21716927937E+02  0.82674733415E+02  0.86183459447E+02  0.41800000000E+01 0.  1.
         -5    1    4    4    0  501 -0.78117065353E+01 -0.14487051862E+03  0.21504715713E+03  0.25944410210E+03  0.41800000000E+01 0.  1.
</event>
<event>
11    1  0.1078607E-008  0.1394034E+03  0.7561462E-02  0.1108226E+00
         22   -1    0    0    0    0  0.00000000000E+00  0.00000000000E+00  0.47469220802E+03  0.47469220802E+03  0.00000000000E+00 0. -1.
         22   -1    0    0    0    0 -0.00000000000E+00 -0.00000000000E+00 -0.48194575182E+03  0.48194575182E+03  0.00000000000E+00 0. -1.
        -24    2    1    2    0    0 -0.63987475828E+02 -0.12645604898E+02 -0.28800691887E+03  0.30555136873E+03  0.78481496087E+02 0.  0.
         25    2    1    2    0    0  0.45021691834E+02  0.29551605012E+02 -0.15545447553E+03  0.20667242563E+03  0.12508855846E+03 0.  0.
         24    2    1    2    0    0  0.18965783994E+02 -0.16906000114E+02  0.43620785060E+03  0.44441416549E+03  0.81124273524E+02 0.  0.
        -13    1    5    5    0    0 -0.92623825365E+01 -0.29483470763E+02  0.65544739264E+02  0.72465023451E+02  0.00000000000E+00 0.  1.
         14    1    5    5    0    0  0.28228166531E+02  0.12577470649E+02  0.37066311134E+03  0.37194914204E+03  0.00000000000E+00 0. -1.
         13    1    3    3    0    0 -0.47227962900E+02 -0.10349468791E+02 -0.28410699340E+03  0.28819156074E+03  0.00000000000E+00 0. -1.
        -14    1    3    3    0    0 -0.16759512928E+02 -0.22961361065E+01 -0.38999254697E+01  0.17359807985E+02  0.00000000000E+00 0.  1.
          5    1    4    4  501    0  0.18063962772E+02 -0.16060569225E+02  0.14572793701E+02  0.28532216022E+02  0.41800000000E+01 0. -1.
         -5    1    4    4    0  501  0.26957729062E+02  0.45612174237E+02 -0.17002726924E+03  0.17814020961E+03  0.41800000000E+01 0. -1.
</event>
<event>
11    1  0.1078607E-008  0.1617972E+03  0.7561462E-02  0.1085399E+00
         22   -1    0    0    0    0  0.00000000000E+00  0.00000000000E+00  0.14564068423E+04  0.14564068423E+04  0.00000000000E+00 0.  1.
         22   -1    0    0    0    0 -0.00000000000E+00 -0.00000000000E+00 -0.25517916840E+03  0.25517916840E+03  0.00000000000E+00 0.  1.
         24    2    1    2    0    0 -0.22167090153E+02 -0.12255272762E+02 -0.18542103962E+03  0.20081259870E+03  0.72822841649E+02 0.  0.
         25    2    1    2    0    0  0.46431341729E+02  0.11104634474E+03  0.69144242566E+02  0.18685725415E+03  0.12509015539E+03 0.  0.
        -24    2    1    2    0    0 -0.24264251577E+02 -0.98791071976E+02  0.13175044710E+04  0.13239161579E+04  0.81163613912E+02 0.  0.
        -13    1    3    3    0    0 -0.42492865774E+02  0.98315762239E+01 -0.13764520280E+03  0.14439011527E+03  0.00000000000E+00 0.  1.
         14    1    3    3    0    0  0.20325775621E+02 -0.22086848986E+02 -0.47775836817E+02  0.56422483429E+02  0.00000000000E+00 0. -1.
         13    1    5    5    0    0  0.14564103124E+02 -0.24560072527E+02  0.11480162187E+03  0.11829929267E+03  0.00000000000E+00 0. -1.
        -14    1    5    5    0    0 -0.38828354701E+02 -0.74230999449E+02  0.12027028491E+04  0.12056168652E+04  0.00000000000E+00 0.  1.
          5    1    4    4  501    0  0.35181513720E+02  0.16034812589E+02  0.81494452584E+02  0.90297687259E+02  0.41800000000E+01 0. -1.
         -5    1    4    4    0  501  0.11249828010E+02  0.95011532149E+02 -0.12350210018E+02  0.96559566895E+02  0.41800000000E+01 0. -1.
</event>
<event>
11    1  0.1078607E-008  0.2719701E+03  0.7561462E-02  0.1012805E+00
         22   -1    0    0    0    0  0.00000000000E+00  0.00000000000E+00  0.43502635817E+03  0.43502635817E+03  0.00000000000E+00 0. -1.
         22   -1    0    0    0    0 -0.00000000000E+00 -0.00000000000E+00 -0.11790934942E+04  0.11790934942E+04  0.00000000000E+00 0. -1.
        -24    2    1    2    0    0 -0.15594059519E+02 -0.44079037156E+02 -0.78898799211E+03  0.79457139522E+03  0.81581334921E+02 0.  0.
         25    2    1    2    0    0  0.25498419085E+03  0.52329581932E+02 -0.28386740856E+03  0.40496135894E+03  0.12513062721E+03 0.  0.
         24    2    1    2    0    0 -0.23939013133E+03 -0.82505447761E+01  0.32878826466E+03  0.41458709817E+03  0.80031447097E+02 0.  0.
        -11    1    5    5    0    0 -0.68745740551E+02 -0.37504421116E+02  0.84994203933E+02  0.11557064138E+03  0.00000000000E+00 0.  1.
         12    1    5    5    0    0 -0.17064439078E+03  0.29253876340E+02  0.24379406073E+03  0.29901645679E+03  0.00000000000E+00 0. -1.
         13    1    3    3    0    0 -0.47424081899E+02 -0.22022461626E+02 -0.35078605777E+03  0.35466165663E+03  0.00000000000E+00 0. -1.
        -14    1    3    3    0    0  0.31830022379E+02 -0.22056575530E+02 -0.43820193434E+03  0.43990973859E+03  0.00000000000E+00 0.  1.
          5    1    4    4  501    0 -0.28528543415E+01  0.76623781903E+01  0.85397822991E+01  0.12539980030E+02  0.41800000000E+01 0. -1.
         -5    1    4    4    0  501  0.25783704520E+03  0.44667203742E+02 -0.29240719086E+03  0.39242137891E+03  0.41800000000E+01 0. -1.
</event>
<event>
11    1  0.1078607E-008  0.1748645E+03  0.7561462E-02  0.1073874E+00
         22   -1    0    0    0    0  0.00000000000E+00  0.00000000000E+00  0.35053673403E+04  0.35053673403E+04  0.00000000000E+00 0.  1.
         22   -1    0    0    0    0 -0.00000000000E+00 -0.00000000000E+00 -0.10335549563E+04  0.10335549563E+04  0.00000000000E+00 0. -1.
        -24    2    1    2    0    0  0.12199508991E+03  0.12623319774E+01 -0.10076097711E+04  0.10178648252E+04  0.76726501975E+02 0.  0.
         25    2    1    2    0    0 -0.13938615445E+03 -0.66135085265E+02  0.47544272033E+03  0.51526273509E+03  0.12509019267E+03 0.  0.
         24    2    1    2    0    0  0.17391064539E+02  0.64872753288E+02  0.30039794348E+04  0.30057947364E+04  0.79991433114E+02 0.  0.
        -11    1    5    5    0    0  0.28549280119E+02  0.77893476027E+02  0.20761285931E+04  0.20777854534E+04  0.00000000000E+00 0.  1.
         12    1    5    5    0    0 -0.11158215580E+02 -0.13020722739E+02  0.92785084163E+03  0.92800928299E+03  0.00000000000E+00 0. -1.
         13    1    3    3    0    0  0.94660060458E+02  0.97275171103E+01 -0.47230652962E+03  0.48179727018E+03  0.00000000000E+00 0. -1.
        -14    1    3    3    0    0  0.27335029450E+02 -0.84651851329E+01 -0.53530324148E+03  0.53606755501E+03  0.00000000000E+00 0.  1.
          5    1    4    4  501    0 -0.46401963492E+02  0.17866122423E+02  0.45909289406E+02  0.67804688629E+02  0.41800000000E+01 0.  1.
         -5    1    4    4    0  501 -0.92984190955E+02 -0.84001207688E+02  0.42953343093E+03  0.44745804646E+03  0.41800000000E+01 0.  1.
</event>
<event>
11    1  0.1078607E-008  0.1399133E+03  0.7561462E-02  0.1107655E+00
         22   -1    0    0    0    0  0.00000000000E+00  0.00000000000E+00  0.10403500124E+04  0.10403500124E+04  0.00000000000E+00 0.  1.
         22   -1    0    0    0    0 -0.00000000000E+00 -0.00000000000E+00 -0.70029528365E+03  0.70029528365E+03  0.00000000000E+00 0.  1.
         24    2    1    2    0    0  0.34106257020E+02 -0.34098547121E+02 -0.64461689664E+03  0.65141846297E+03  0.80555091611E+02 0.  0.
         25    2    1    2    0    0 -0.27779320813E+02  0.94865468042E+02  0.78410505545E+02  0.17767568334E+03  0.12509713578E+03 0.  0.
        -24    2    1    2    0    0 -0.63269362072E+01 -0.60766920922E+02  0.90626111986E+03  0.91155114976E+03  0.76704839848E+02 0.  0.
        -11    1    3    3    0    0  0.28949221379E+02 -0.47676227840E+02 -0.62228029444E+03  0.62477503549E+03  0.00000000000E+00 0.  1.
         12    1    3    3    0    0  0.51570356416E+01  0.13577680719E+02 -0.22336602196E+02  0.26643427482E+02  0.00000000000E+00 0. -1.
         13    1    5    5    0    0 -0.16536331008E+02  0.49888475077E+01  0.53977285285E+02  0.56673505003E+02  0.00000000000E+00 0. -1.
        -14    1    5    5    0    0  0.10209394800E+02 -0.65755768429E+02  0.85228383458E+03  0.85487764476E+03  0.00000000000E+00 0.  1.
          5    1    4    4  501    0  0.18524455222E+02  0.36965139924E+02 -0.26394255864E+02  0.49231150235E+02  0.41800000000E+01 0.  1.
         -5    1    4    4    0  501 -0.46303776035E+02  0.57900328118E+02  0.10480476141E+03  0.12844453311E+03  0.41800000000E+01 0.  1.
</event>
<event>
11    1  0.1078607E-008  0.1562133E+03  0.7561462E-02  0.1090694E+00
         22   -1    0    0    0    0  0.00000000000E+00  0.00000000000E+00  0.39180657591E+03  0.39180657591E+03  0.00000000000E+00 0.  1.
         22   -1    0    0    0    0 -0.00000000000E+00 -0.00000000000E+00 -0.19512633544E+04  0.19512633544E+04  0.00000000000E+00 0. -1.
         24    2    1    2    0    0  0.30803734961E+01  0.25797244293E+02 -0.18200145557E+04  0.18219891177E+04  0.80724071031E+02 0.  0.
         25    2    1    2    0    0 -0.89194069849E+02 -0.59700269284E+02 -0.62528215133E+02  0.17627343882E+03  0.12507135283E+03 0.  0.
        -24    2    1    2    0    0  0.86113696353E+02  0.33903024991E+02  0.32308599230E+03  0.34480737379E+03  0.77088149517E+02 0.  0.
        -13    1    3    3    0    0  0.13046465869E+02  0.39900898496E+02 -0.47179523747E+03  0.47365920034E+03  0.00000000000E+00 0.  1.
         14    1    3    3    0    0 -0.99660923734E+01 -0.14103654204E+02 -0.13482193182E+04  0.13483299174E+04  0.00000000000E+00 0. -1.
         11    1    5    5    0    0  0.22886393482E+02 -0.24558262599E+02  0.10898002126E+03  0.11403306670E+03  0.00000000000E+00 0. -1.
        -12    1    5    5    0    0  0.63227302871E+02  0.58461287590E+02  0.21410597105E+03  0.23077430709E+03  0.00000000000E+00 0.  1.
          5    1    4    4  501    0 -0.59609320541E+02 -0.92847961304E+02 -0.70412996136E+02  0.13095601337E+03  0.41800000000E+01 0.  1.
         -5    1    4    4    0  501 -0.29584749309E+02  0.33147692020E+02  0.78847810030E+01  0.45317425450E+02  0.41800000000E+01 0.  1.
</event>
<event>
11    1  0.1078607E-008  0.1482067E+03  0.7561462E-02  0.1098725E+00
         22   -1    0    0    0    0  0.00000000000E+00  0.00000000000E+00  0.97993244787E+03  0.97993244787E+03  0.00000000000E+00 0.  1.
         22   -1    0    0    0    0 -0.00000000000E+00 -0.00000000000E+00 -0.10558970666E+04  0.10558970666E+04  0.00000000000E+00 0.  1.
         24    2    1    2    0    0 -0.75029780951E+02  0.24488533024E+02 -0.10025050965E+04  0.10080174413E+04  0.69667332263E+02 0.  0.
         25    2    1    2    0    0  0.12537515851E+03  0.19212898377E+02  0.12051337307E+03  0.21507891832E+03  0.12508957663E+03 0.  0.
        -24    2    1    2    0    0 -0.50345377559E+02 -0.43701431402E+02  0.80602710465E+03  0.81273315489E+03  0.80068817201E+02 0.  0.
        -11    1    3    3    0    0 -0.56160019677E+02  0.39340676942E+02 -0.47044878443E+03  0.47541949418E+03  0.00000000000E+00 0.  1.
         12    1    3    3    0    0 -0.18869761275E+02 -0.14852143918E+02 -0.53205631205E+03  0.53259794710E+03  0.00000000000E+00 0. -1.
         13    1    5    5    0    0 -0.60992884813E+02 -0.24261620849E+01  0.43389620274E+03  0.43816884076E+03  0.00000000000E+00 0. -1.
        -14    1    5    5    0    0  0.10647507254E+02 -0.41275269317E+02  0.37213090191E+03  0.37456431414E+03  0.00000000000E+00 0.  1.
          5    1    4    4  501    0  0.76303453808E+02 -0.51363455213E+02  0.63300329345E+02  0.11173551669E+03  0.41800000000E+01 0.  1.
         -5    1    4    4    0  501  0.49071704703E+02  0.70576353590E+02  0.57213043722E+02  0.10334340163E+03  0.41800000000E+01 0.  1.
</event>
<event>
11    1  0.1078607E-008  0.1364685E+03  0.7561462E-02  0.1111567E+00
         22   -1    0    0    0    0  0.00000000000E+00  0.00000000000E+00  0.55514110818E+03  0.55514110818E+03  0.00000000000E+00 0.  1.
         22   -1    0    0    0    0 -0.00000000000E+00 -0.00000000000E+00 -0.53694035261E+03  0.53694035261E+03  0.00000000000E+00 0.  1.
        -24    2    1    2    0    0  0.53692455300E+00  0.41352794823E+02 -0.37287847227E+03  0.38357844622E+03  0.79898231495E+02 0.  0.
         25    2    1    2    0    0  0.19203586224E+02 -0.91028564212E+02 -0.11474242047E+03  0.19356737821E+03  0.12509008605E+03 0.  0.
         24    2    1    2    0    0 -0.19740510777E+02  0.49675769389E+02  0.50582164831E+03  0.51493563636E+03  0.80285738807E+02 0.  0.
        -11    1    5    5    0    0 -0.34833007052E+02 -0.46893046686E+01  0.27885636348E+03  0.28106262542E+03  0.00000000000E+00 0.  1.
         12    1    5    5    0    0  0.15092496276E+02  0.54365074058E+02  0.22696528484E+03  0.23387301093E+03  0.00000000000E+00 0. -1.
         13    1    3    3    0    0  0.31994078077E+02  0.32044602665E+02 -0.11455154741E+03  0.12317684282E+03  0.00000000000E+00 0. -1.
        -14    1    3    3    0    0 -0.31457153524E+02  0.93081921572E+01 -0.25832692486E+03  0.26040160340E+03  0.00000000000E+00 0.  1.
          5    1    4    4  501    0 -0.46485856011E+02 -0.23879759503E+02 -0.11030112339E+02  0.53575306823E+02  0.41800000000E+01 0.  1.
         -5    1    4    4    0  501  0.65689442234E+02 -0.67148804708E+02 -0.10371230813E+03  0.13999207139E+03  0.41800000000E+01 0.  1.
</event>
<event>
11    1  0.1078607E-008  0.1588038E+03  0.7561462E-02  0.1088208E+00
         22   -1    0    0    0    0  0.00000000000E+00  0.00000000000E+00  0.78154444213E+03  0.78154444213E+03  0.00000000000E+00 0.  1.
         22   -1    0    0    0    0 -0.00000000000E+00 -0.00000000000E+00 -0.56126094795E+03  0.56126094795E+03  0.00000000000E+00 0. -1.
         24    2    1    2    0    0 -0.22928509258E+02  0.83130919817E+02 -0.28678077764E+03  0.31029839426E+03  0.81273690006E+02 0.  0.
         25    2    1    2    0    0 -0.49053650148E+01 -0.13360829075E+03 -0.22711712907E+03  0.29172582634E+03  0.12508608824E+03 0.  0.
        -24    2    1    2    0    0  0.27833874273E+02  0.50477370929E+02  0.73418140089E+03  0.74078116948E+03  0.80073229688E+02 0.  0.
        -13    1    3    3    0    0 -0.41376807909E+02  0.16481031540E+02 -0.72034430096E+02  0.84691344024E+02  0.00000000000E+00 0.  1.
         14    1    3    3    0    0  0.18448298651E+02  0.66649888278E+02 -0.21474634755E+03  0.22560705024E+03  0.00000000000E+00 0. -1.
         11    1    5    5    0    0 -0.22648629757E+02 -0.38901205827E+01  0.12458862165E+03  0.12669024475E+03  0.00000000000E+00 0. -1.
        -12    1    5    5    0    0  0.50482504030E+02  0.54367491512E+02  0.60959277924E+03  0.61409092474E+03  0.00000000000E+00 0.  1.
          5    1    4    4  501    0 -0.38047371112E+02 -0.14302760257E+03 -0.19052747864E+03  0.24129378372E+03  0.41800000000E+01 0. -1.
         -5    1    4    4    0  501  0.33142006097E+02  0.94193118285E+01 -0.36589650436E+02  0.50432042616E+02  0.41800000000E+01 0. -1.
</event>
<event>
11    1  0.1078607E-008  0.1323469E+03  0.7561462E-02  0.1116419E+00
         22   -1    0    0    0    0  0.00000000000E+00  0.00000000000E+00  0.22393333060E+03  0.22393333060E+03  0.00000000000E+00 0. -1.
         22   -1    0    0    0    0 -0.00000000000E+00 -0.00000000000E+00 -0.16062032205E+04  0.16062032205E+04  0.00000000000E+00 0.  1.
         24    2    1    2    0    0 -0.92131468109E+01  0.43392570101E+02 -0.14003839049E+04  0.14032582289E+04  0.78043440759E+02 0.  0.
         25    2    1    2    0    0  0.37244970278E+02 -0.17418982850E+02 -0.17221105940E+03  0.21678342810E+03  0.12509115454E+03 0.  0.
        -24    2    1    2    0    0 -0.28031823467E+02 -0.25973587251E+02  0.19032507449E+03  0.21009489401E+03  0.80348118510E+02 0.  0.
        -11    1    3    3    0    0 -0.12080286832E+02  0.16528102751E+02 -0.12670141442E+04  0.12671795268E+04  0.00000000000E+00 0.  1.
         12    1    3    3    0    0  0.28671400206E+01  0.26864467350E+02 -0.13336976073E+03  0.13607870213E+03  0.00000000000E+00 0. -1.
         13    1    5    5    0    0 -0.35583115434E+02  0.19863018016E+02  0.10997342860E+03  0.11728108367E+03  0.00000000000E+00 0. -1.
        -14    1    5    5    0    0  0.75512919672E+01 -0.45836605267E+02  0.80351645891E+02  0.92813810342E+02  0.00000000000E+00 0.  1.
          5    1    4    4  501    0  0.65892377802E+02 -0.17388163604E+02 -0.35332271343E+02  0.76876495004E+02  0.41800000000E+01 0.  1.
         -5    1    4    4    0  501 -0.28647407524E+02 -0.30819245954E-01 -0.13687878806E+03  0.13990693310E+03  0.41800000000E+01 0.  1.
</event>
<event>
11    1  0.1078607E-008  0.1263509E+03  0.7561462E-02  0.1123836E+00
         22   -1    0    0    0    0  0.00000000000E+00  0.00000000000E+00  0.56310245175E+03  0.56310245175E+03  0.00000000000E+00 0. -1.
         22   -1    0    0    0    0 -0.00000000000E+00 -0.00000000000E+00 -0.32305508642E+03  0.32305508642E+03  0.00000000000E+00 0.  1.
         24    2    1    2    0    0 -0.15593807668E+02  0.80888515699E+01 -0.27456545400E+03  0.28832250589E+03  0.86226924534E+02 0.  0.
         25    2    1    2    0    0  0.17149393608E+02 -0.13630936459E+02  0.67374502360E+02  0.14375886920E+03  0.12508950705E+03 0.  0.
        -24    2    1    2    0    0 -0.15555859405E+01  0.55420848890E+01  0.44723831697E+03  0.45407616308E+03  0.78293774751E+02 0.  0.
        -11    1    3    3    0    0 -0.44006869292E+02 -0.19172655948E+02 -0.16764310467E+03  0.17438006143E+03  0.00000000000E+00 0.  1.
         12    1    3    3    0    0  0.28413061624E+02  0.27261507518E+02 -0.10692234933E+03  0.11394244446E+03  0.00000000000E+00 0. -1.
         13    1    5    5    0    0 -0.19528557026E+02  0.37198533430E+02  0.22878170312E+03  0.23260731525E+03  0.00000000000E+00 0. -1.
        -14    1    5    5    0    0  0.17972971085E+02 -0.31656448541E+02  0.21845661385E+03  0.22146884783E+03  0.00000000000E+00 0.  1.
          5    1    4    4  501    0  0.17782390517E+02 -0.10318416543E+02 -0.35235454471E+02  0.41008447718E+02  0.41800000000E+01 0.  1.
         -5    1    4    4    0  501 -0.63299690884E+00 -0.33125199161E+01  0.10260995683E+03  0.10275042148E+03  0.41800000000E+01 0.  1.
</event>
<event>
11    1  0.1078607E-008  0.1349764E+03  0.7561462E-02  0.1113301E+00
         22   -1    0    0    0    0  0.00000000000E+00  0.00000000000E+00  0.56672325100E+03  0.56672325100E+03  0.00000000000E+00 0.  1.
         22   -1    0    0    0    0 -0.00000000000E+00 -0.00000000000E+00 -0.52287825055E+03  0.52287825055E+03  0.00000000000E+00 0.  1.
         24    2    1    2    0    0 -0.11300970081E+02 -0.15370292486E+02 -0.45237620907E+03  0.45971760406E+03  0.79574387403E+02 0.  0.
         25    2    1    2    0    0 -0.20868419129E+02  0.54143125961E+02  0.14096876334E+02  0.13860954247E+03  0.12508762662E+03 0.  0.
        -24    2    1    2    0    0  0.32169389209E+02 -0.38772833475E+02  0.48212433319E+03  0.49127435503E+03  0.79802362355E+02 0.  0.
        -11    1    3    3    0    0 -0.35216179728E+02 -0.13718083055E+02 -0.40363252300E+03  0.40539804975E+03  0.00000000000E+00 0.  1.
         12    1    3    3    0    0  0.23915209647E+02 -0.16522094306E+01 -0.48743686079E+02  0.54319554316E+02  0.00000000000E+00 0. -1.
         11    1    5    5    0    0  0.19457275166E+02 -0.47871956800E+02  0.14758960200E+03  0.15637455171E+03  0.00000000000E+00 0. -1.
        -12    1    5    5    0    0  0.12712114043E+02  0.90991233254E+01  0.33453473120E+03  0.33489980332E+03  0.00000000000E+00 0.  1.
          5    1    4    4  501    0  0.51729049899E+02  0.20700408791E+02 -0.56843023757E+01  0.56162133338E+02  0.41800000000E+01 0.  1.
         -5    1    4    4    0  501 -0.72597469027E+02  0.33442717170E+02  0.19781178710E+02  0.82447409129E+02  0.41800000000E+01 0.  1.
</event>
<event>
11    1  0.1078607E-008  0.1267116E+03  0.7561462E-02  0.1123377E+00
         22   -1    0    0    0    0  0.00000000000E+00  0.00000000000E+00  0.16999682857E+03  0.16999682857E+03  0.00000000000E+00 0. -1.
         22   -1    0    0    0    0 -0.00000000000E+00 -0.00000000000E+00 -0.36319936265E+03  0.36319936265E+03  0.00000000000E+00 0.  1.
        -24    2    1    2    0    0  0.33250268646E+02  0.12318550091E+02 -0.25582586084E+03  0.26993002285E+03  0.78473047094E+02 0.  0.
         25    2    1    2    0    0 -0.96620101999E+01  0.18275691493E+01 -0.29524710331E+02  0.12890084974E+03  0.12508807335E+03 0.  0.
         24    2    1    2    0    0 -0.23588258446E+02 -0.14146119240E+02  0.92148037090E+02  0.13436531862E+03  0.93841672417E+02 0.  0.
        -11    1    5    5    0    0 -0.53889752876E+02  0.70618523243E+01  0.30096302290E+02  0.62126987975E+02  0.00000000000E+00 0.  1.
         12    1    5    5    0    0  0.30301494430E+02 -0.21207971564E+02  0.62051734800E+02  0.72238330644E+02  0.00000000000E+00 0. -1.
         13    1    3    3    0    0 -0.10625164288E+02  0.33808086197E+01 -0.99406933453E+00  0.11194291264E+02  0.00000000000E+00 0. -1.
        -14    1    3    3    0    0  0.43875432933E+02  0.89377414710E+01 -0.25483179151E+03  0.25873573159E+03  0.00000000000E+00 0.  1.
          5    1    4    4  501    0 -0.45684583697E+02  0.46066568165E+02 -0.30220643848E+02  0.71693581335E+02  0.41800000000E+01 0.  1.
         -5    1    4    4    0  501  0.36022573497E+02 -0.44238999015E+02  0.69593351765E+00  0.57207268408E+02  0.41800000000E+01 0.  1.
</event>
<event>
11    1  0.1078607E-008  0.1898010E+03  0.7561462E-02  0.1061980E+00
         22   -1    0    0    0    0  0.00000000000E+00  0.00000000000E+00  0.17565803901E+04  0.17565803901E+04  0.00000000000E+00 0.  1.
         22   -1    0    0    0    0 -0.00000000000E+00 -0.00000000000E+00 -0.14211554859E+03  0.14211554859E+03  0.00000000000E+00 0. -1.
        -24    2    1    2    0    0 -0.14441883606E+03 -0.91445618421E+01 -0.71576062267E+02  0.18130466767E+03  0.82509554636E+02 0.  0.
         25    2    1    2    0    0  0.12350039092E+03 -0.40002271654E+02  0.58539869684E+03  0.61252795753E+03  0.12508531570E+03 0.  0.
         24    2    1    2    0    0  0.20918445140E+02  0.49146833496E+02  0.11006422069E+04  0.11048633135E+04  0.80353476756E+02 0.  0.
        -13    1    5    5    0    0 -0.10164069534E+02  0.61614039993E+02  0.77073898584E+03  0.77326462646E+03  0.00000000000E+00 0.  1.
         14    1    5    5    0    0  0.31082514674E+02 -0.12467206497E+02  0.32990322107E+03  0.33159868702E+03  0.00000000000E+00 0. -1.
         13    1    3    3    0    0 -0.12995457998E+03 -0.25625069967E+02 -0.83266920670E+02  0.15645516018E+03  0.00000000000E+00 0. -1.
        -14    1    3    3    0    0 -0.14464256083E+02  0.16480508125E+02  0.11690858403E+02  0.24849507486E+02  0.00000000000E+00 0.  1.
          5    1    4    4  501    0  0.12668630197E+02 -0.34342626830E+02  0.34255233813E+02  0.50307093458E+02  0.41800000000E+01 0.  1.
         -5    1    4    4    0  501  0.11083176073E+03 -0.56596448242E+01  0.55114346303E+03  0.56222086408E+03  0.41800000000E+01 0.  1.
</event>
<event>
11    1  0.1078607E-008  0.1405006E+03  0.7561462E-02  0.1107001E+00
         22   -1    0    0    0    0  0.00000000000E+00  0.00000000000E+00  0.76924820688E+03  0.76924820688E+03  0.00000000000E+00 0. -1.
         22   -1    0    0    0    0 -0.00000000000E+00 -0.00000000000E+00 -0.15411550535E+03  0.15411550535E+03  0.00000000000E+00 0. -1.
        -24    2    1    2    0    0  0.29752268571E+02  0.37731069853E+02 -0.85798708419E+02  0.12720568538E+03  0.80690996459E+02 0.  0.
         25    2    1    2    0    0 -0.39920698575E+02 -0.97122480728E+02  0.11006267824E+03  0.19694234188E+03  0.12508418944E+03 0.  0.
         24    2    1    2    0    0  0.10168430004E+02  0.59391410875E+02  0.59086873171E+03  0.59921568497E+03  0.79390442410E+02 0.  0.
        -11    1    5    5    0    0 -0.23164507846E+02  0.61095630925E+02  0.35016221208E+03  0.35620618371E+03  0.00000000000E+00 0.  1.
         12    1    5    5    0    0  0.33332937850E+02 -0.17042200496E+01  0.24070651962E+03  0.24300950126E+03  0.00000000000E+00 0. -1.
         13    1    3    3    0    0  0.37576025498E+02  0.32040512445E+02 -0.99121274124E+02  0.11074104530E+03  0.00000000000E+00 0. -1.
        -14    1    3    3    0    0 -0.78237569269E+01  0.56905574076E+01  0.13322565705E+02  0.16464640082E+02  0.00000000000E+00 0.  1.
          5    1    4    4  501    0 -0.98184008279E+01 -0.23112226928E+02 -0.27707059020E+02  0.37626181681E+02  0.41800000000E+01 0.  1.
         -5    1    4    4    0  501 -0.30102297747E+02 -0.74010253800E+02  0.13776973726E+03  0.15931616020E+03  0.41800000000E+01 0.  1.
</event>
<event>
11    1  0.1078607E-008  0.1529502E+03  0.7561462E-02  0.1093902E+00
         22   -1    0    0    0    0  0.00000000000E+00  0.00000000000E+00  0.11633611654E+04  0.11633611654E+04  0.00000000000E+00 0. -1.
         22   -1    0    0    0    0 -0.00000000000E+00 -0.00000000000E+00 -0.11491119698E+04  0.11491119698E+04  0.00000000000E+00 0. -1.
         24    2    1    2    0    0  0.27885134389E+02  0.32130592418E+01 -0.98586566336E+03  0.98949803743E+03  0.79920932333E+02 0.  0.
         25    2    1    2    0    0 -0.10878187653E+03 -0.36528978567E+02 -0.11278968648E+03  0.20380603771E+03  0.12509006633E+03 0.  0.
        -24    2    1    2    0    0  0.80896742142E+02  0.33315919326E+02  0.11129045454E+04  0.11191690601E+04  0.79552651523E+02 0.  0.
        -13    1    3    3    0    0 -0.14795889522E+02 -0.19781368652E+02 -0.13426800250E+03  0.13652149057E+03  0.00000000000E+00 0.  1.
         14    1    3    3    0    0  0.42681023911E+02  0.22994427894E+02 -0.85159766086E+03  0.85297654686E+03  0.00000000000E+00 0. -1.
         11    1    5    5    0    0  0.18870242147E+02  0.47391888556E+02  0.63591019182E+03  0.63795285813E+03  0.00000000000E+00 0. -1.
        -12    1    5    5    0    0  0.62026499995E+02 -0.14075969230E+02  0.47699435362E+03  0.48121620193E+03  0.00000000000E+00 0.  1.
          5    1    4    4  501    0 -0.13518237147E+02  0.36065401997E+02  0.70696698764E+00  0.38748266530E+02  0.41800000000E+01 0.  1.
         -5    1    4    4    0  501 -0.95263639383E+02 -0.72594380564E+02 -0.11349665347E+03  0.16505777118E+03  0.41800000000E+01 0.  1.
</event>
<event>
11    1  0.1078607E-008  0.2036842E+03  0.7561462E-02  0.1051949E+00
         22   -1    0    0    0    0  0.00000000000E+00  0.00000000000E+00  0.20498783699E+04  0.20498783699E+04  0.00000000000E+00 0. -1.
         22   -1    0    0    0    0 -0.00000000000E+00 -0.00000000000E+00 -0.40337408202E+03  0.40337408202E+03  0.00000000000E+00 0. -1.
        -24    2    1    2    0    0  0.15837176101E+03  0.79134932443E+02 -0.31974791285E+03  0.37425814498E+03  0.80538680739E+02 0.  0.
         25    2    1    2    0    0 -0.92619659208E+02 -0.20794872332E+02  0.60106557026E+02  0.16815041132E+03  0.12510369556E+03 0.  0.
         24    2    1    2    0    0 -0.65752101800E+02 -0.58340060111E+02  0.19061456437E+04  0.19108438957E+04  0.10102612011E+03 0.  0.
        -13    1    5    5    0    0 -0.32795870373E+02 -0.13607210994E+02  0.16342367583E+03  0.16723642882E+03  0.00000000000E+00 0.  1.
         14    1    5    5    0    0 -0.32956231427E+02 -0.44732849117E+02  0.17427219679E+04  0.17436074668E+04  0.00000000000E+00 0. -1.
         13    1    3    3    0    0  0.12880047952E+03  0.90406410958E+02 -0.29398147979E+03  0.33344863642E+03  0.00000000000E+00 0. -1.
        -14    1    3    3    0    0  0.29571281487E+02 -0.11271478515E+02 -0.25766433055E+02  0.40809508562E+02  0.00000000000E+00 0.  1.
          5    1    4    4  501    0  0.28698025517E+02  0.11168857892E+02  0.17030130813E+02  0.35437519816E+02  0.41800000000E+01 0.  1.
         -5    1    4    4    0  501 -0.12131768472E+03 -0.31963730224E+02  0.43076426213E+02  0.13271289151E+03  0.41800000000E+01 0.  1.
</event>
<event>
11    1  0.1078607E-008  0.1508109E+03  0.7561462E-02  0.1096053E+00
         22   -1    0    0    0    0  0.00000000000E+00  0.00000000000E+00  0.11086133485E+04  0.11086133485E+04  0.00000000000E+00 0.  1.
         22   -1    0    0    0    0 -0.00000000000E+00 -0.00000000000E+00 -0.37527030658E+03  0.37527030658E+03  0.00000000000E+00 0.  1.
         24    2    1    2    0    0  0.19391493652E+02 -0.58777082288E+01 -0.32505070916E+03  0.33515111395E+03  0.79105803686E+02 0.  0.
         25    2    1    2    0    0 -0.10119664590E+03  0.18059363947E+02  0.11539849392E+03  0.19882405612E+03  0.12508913272E+03 0.  0.
        -24    2    1    2    0    0  0.81805152253E+02 -0.12181655718E+02  0.94299525716E+03  0.94990848501E+03  0.79029103422E+02 0.  0.
        -11    1    3    3    0    0  0.10394063701E+02  0.19935900308E+02 -0.28917263620E+03  0.29004532440E+03  0.00000000000E+00 0.  1.
         12    1    3    3    0    0  0.89974299510E+01 -0.25813608537E+02 -0.35878072963E+02  0.45105789550E+02  0.00000000000E+00 0. -1.
         13    1    5    5    0    0  0.33881712317E+02 -0.27265482133E+02  0.17689645026E+03  0.18216402241E+03  0.00000000000E+00 0. -1.
        -14    1    5    5    0    0  0.47923439937E+02  0.15083826414E+02  0.76609880690E+03  0.76774446260E+03  0.00000000000E+00 0.  1.
          5    1    4    4  501    0  0.29372274782E+02 -0.19940226008E+01  0.21904061324E+02  0.36931923244E+02  0.41800000000E+01 0.  1.
         -5    1    4    4    0  501 -0.13056892069E+03  0.20053386548E+02  0.93494432596E+02  0.16189213288E+03  0.41800000000E+01 0.  1.
</event>
<event>
11    1  0.1078607E-008  0.1336710E+03  0.7561462E-02  0.1114839E+00
         22   -1    0    0    0    0  0.00000000000E+00  0.00000000000E+00  0.32167838178E+03  0.32167838178E+03  0.00000000000E+00 0. -1.
         22   -1    0    0    0    0 -0.00000000000E+00 -0.00000000000E+00 -0.15692180172E+04  0.15692180172E+04  0.00000000000E+00 0. -1.
         24    2    1    2    0    0 -0.37561421984E+02  0.64232650188E+01 -0.90360391033E+03  0.90781937764E+03  0.78637630300E+02 0.  0.
         25    2    1    2    0    0  0.66070082593E+02  0.30849956989E+02 -0.64861708666E+03  0.66458223001E+03  0.12509372359E+03 0.  0.
        -24    2    1    2    0    0 -0.28508660609E+02 -0.37273222008E+02  0.30468136160E+03  0.31849479129E+03  0.80038510528E+02 0.  0.
        -13    1    3    3    0    0 -0.27303588403E+02 -0.33555222471E+02 -0.34677779921E+03  0.34946570779E+03  0.00000000000E+00 0.  1.
         14    1    3    3    0    0 -0.10257833581E+02  0.39978487490E+02 -0.55682611112E+03  0.55835366985E+03  0.00000000000E+00 0. -1.
         11    1    5    5    0    0  0.18226974255E+02 -0.99044086676E+01  0.19571237172E+03  0.19680866939E+03  0.00000000000E+00 0. -1.
        -12    1    5    5    0    0 -0.46735634864E+02 -0.27368813340E+02  0.10896898988E+03  0.12168612191E+03  0.00000000000E+00 0.  1.
          5    1    4    4  501    0 -0.10491289018E+02 -0.77363932366E+01 -0.39807643843E+01  0.14256149924E+02  0.41800000000E+01 0.  1.
         -5    1    4    4    0  501  0.76561371611E+02  0.38586350226E+02 -0.64463632227E+03  0.65032608009E+03  0.41800000000E+01 0.  1.
</event>
<event>
11    1  0.1078607E-008  0.1362010E+03  0.7561462E-02  0.1111876E+00
         22   -1    0    0    0    0  0.00000000000E+00  0.00000000000E+00  0.28645655854E+03  0.28645655854E+03  0.00000000000E+00 0.  1.
         22   -1    0    0    0    0 -0.00000000000E+00 -0.00000000000E+00 -0.26760565804E+03  0.26760565804E+03  0.00000000000E+00 0.  1.
         24    2    1    2    0    0  0.77590336173E+01 -0.14040828663E+02 -0.18948310912E+03  0.20648761052E+03  0.80473207872E+02 0.  0.
         25    2    1    2    0    0  0.69880835843E+00 -0.41763194951E+02  0.17543124587E+02  0.13303989207E+03  0.12508876399E+03 0.  0.
        -24    2    1    2    0    0 -0.84578419758E+01  0.55804023615E+02  0.19079088503E+03  0.21453471398E+03  0.80239376568E+02 0.  0.
        -13    1    3    3    0    0  0.42100925481E+02 -0.18727920643E+02 -0.89463075534E+02  0.10063232494E+03  0.00000000000E+00 0.  1.
         14    1    3    3    0    0 -0.34341891864E+02  0.46870919798E+01 -0.10002003358E+03  0.10585528558E+03  0.00000000000E+00 0. -1.
         13    1    5    5    0    0  0.10483110609E+02 -0.13368007041E+02  0.85288978050E+02  0.86964412245E+02  0.00000000000E+00 0. -1.
        -14    1    5    5    0    0 -0.18940952585E+02  0.69172030656E+02  0.10550190698E+03  0.12757030174E+03  0.00000000000E+00 0.  1.
          5    1    4    4  501    0 -0.10541180531E+02 -0.57541446606E+02  0.61402402774E+02  0.84910906431E+02  0.41800000000E+01 0.  1.
         -5    1    4    4    0  501  0.11239988889E+02  0.15778251655E+02 -0.43859278187E+02  0.48128985638E+02  0.41800000000E+01 0.  1.
</event>
<event>
11    1  0.1078607E-008  0.1380212E+03  0.7561462E-02  0.1109788E+00
         22   -1    0    0    0    0  0.00000000000E+00  0.00000000000E+00  0.11124281809E+04  0.11124281809E+04  0.00000000000E+00 0. -1.
         22   -1    0    0    0    0 -0.00000000000E+00 -0.00000000000E+00 -0.16992379987E+03  0.16992379987E+03  0.00000000000E+00 0.  1.
        -24    2    1    2    0    0 -0.51333769381E+02 -0.16371810806E+02 -0.10819711516E+03  0.14541298950E+03  0.80840149184E+02 0.  0.
         25    2    1    2    0    0  0.10242132526E+03 -0.64522953721E+01  0.12043612607E+03  0.20170254295E+03  0.12508914977E+03 0.  0.
         24    2    1    2    0    0 -0.51087555876E+02  0.22824106178E+02  0.93026537016E+03  0.93523644835E+03  0.78375233523E+02 0.  0.
        -11    1    5    5    0    0 -0.23357194080E+02  0.22078723372E+02  0.11251276785E+03  0.11701346705E+03  0.00000000000E+00 0.  1.
         12    1    5    5    0    0 -0.27730361796E+02  0.74538280603E+00  0.81775260230E+03  0.81822298130E+03  0.00000000000E+00 0. -1.
         13    1    3    3    0    0 -0.32101904924E+02  0.31796760436E+02 -0.47068456722E+02  0.65245734667E+02  0.00000000000E+00 0. -1.
        -14    1    3    3    0    0 -0.19231864457E+02 -0.48168571242E+02 -0.61128658436E+02  0.80167254838E+02  0.00000000000E+00 0.  1.
          5    1    4    4  501    0  0.42697275647E+01  0.33590301094E+02 -0.80748388129E+01  0.35060152922E+02  0.41800000000E+01 0.  1.
         -5    1    4    4    0  501  0.98151597693E+02 -0.40042596467E+02  0.12851096488E+03  0.16664239003E+03  0.41800000000E+01 0.  1.
</event>
<event>
11    1  0.1078607E-008  0.1470611E+03  0.7561462E-02  0.1099920E+00
         22   -1    0    0    0    0  0.00000000000E+00  0.00000000000E+00  0.76277356290E+03  0.76277356290E+03  0.00000000000E+00 0.  1.
         22   -1    0    0    0    0 -0.00000000000E+00 -0.00000000000E+00 -0.29555819196E+04  0.29555819196E+04  0.00000000000E+00 0. -1.
         24    2    1    2    0    0 -0.29848771720E+02  0.69167353582E+02 -0.23912782930E+04  0.23938047739E+04  0.80089630733E+02 0.  0.
         25    2    1    2    0    0  0.92137406695E+02 -0.63841067969E+02 -0.54696464459E+03  0.57217408033E+03  0.12509145495E+03 0.  0.
        -24    2    1    2    0    0 -0.62288634974E+02 -0.53262856129E+01  0.74543458095E+03  0.75237662821E+03  0.80558257428E+02 0.  0.
        -13    1    3    3    0    0 -0.74856036245E+01 -0.17481933201E+02 -0.29087920512E+03  0.29150019592E+03  0.00000000000E+00 0.  1.
         14    1    3    3    0    0 -0.22363168096E+02  0.86649286782E+02 -0.21003990879E+04  0.21023045780E+04  0.00000000000E+00 0. -1.
         13    1    5    5    0    0  0.13743416193E+02  0.10830368307E+02  0.58571909556E+02  0.61129755073E+02  0.00000000000E+00 0. -1.
        -14    1    5    5    0    0 -0.76032051168E+02 -0.16156653920E+02  0.68686267140E+03  0.69124687314E+03  0.00000000000E+00 0.  1.
          5    1    4    4  501    0  0.35229750656E+02  0.29508447693E+02 -0.27808177146E+03  0.28188442283E+03  0.41800000000E+01 0.  1.
         -5    1    4    4    0  501  0.56907656039E+02 -0.93349515662E+02 -0.26888287313E+03  0.29028965750E+03  0.41800000000E+01 0.  1.
</event>
<event>
11    1  0.1078607E-008  0.1269418E+03  0.7561462E-02  0.1123085E+00
         22   -1    0    0    0    0  0.00000000000E+00  0.00000000000E+00  0.10995153111E+04  0.10995153111E+04  0.00000000000E+00 0.  1.
         22   -1    0    0    0    0 -0.00000000000E+00 -0.00000000000E+00 -0.38066426364E+03  0.38066426364E+03  0.00000000000E+00 0. -1.
         24    2    1    2    0    0 -0.37288942346E+01  0.65347366691E+01 -0.35364942008E+03  0.36252566671E+03  0.79374676492E+02 0.  0.
         25    2    1    2    0    0  0.24267378779E+02 -0.91794131016E+00  0.18153309595E+03  0.22180069953E+03  0.12510610335E+03 0.  0.
        -24    2    1    2    0    0 -0.20538484544E+02 -0.56167953589E+01  0.89096737163E+03  0.89585320853E+03  0.90976569522E+02 0.  0.
        -13    1    3    3    0    0 -0.53662355911E+01 -0.19683986339E+02 -0.22644626882E+02  0.30480074298E+02  0.00000000000E+00 0.  1.
         14    1    3    3    0    0  0.16373413565E+01  0.26218723008E+02 -0.33100479320E+03  0.33204559241E+03  0.00000000000E+00 0. -1.
         13    1    5    5    0    0  0.12159026630E+02  0.12939450896E+02  0.36808214803E+02  0.40867052684E+02  0.00000000000E+00 0. -1.
        -14    1    5    5    0    0 -0.32697511174E+02 -0.18556246255E+02  0.85415915682E+03  0.85498615585E+03  0.00000000000E+00 0.  1.
          5    1    4    4  501    0  0.14529169720E+02 -0.53376967720E+02  0.14942087945E+03  0.15938716721E+03  0.41800000000E+01 0. -1.
         -5    1    4    4    0  501  0.97382090588E+01  0.52459026410E+02  0.32112216501E+02  0.62413532316E+02  0.41800000000E+01 0. -1.
</event>
<event>
11    1  0.1078607E-008  0.2390991E+03  0.7561462E-02  0.1029872E+00
         22   -1    0    0    0    0  0.00000000000E+00  0.00000000000E+00  0.95147226605E+03  0.95147226605E+03  0.00000000000E+00 0.  1.
         22   -1    0    0    0    0 -0.00000000000E+00 -0.00000000000E+00 -0.23368488088E+03  0.23368488088E+03  0.00000000000E+00 0. -1.
        -24    2    1    2    0    0  0.16927895601E+02  0.94816046128E+01 -0.15186546343E+03  0.17364828030E+03  0.81939927955E+02 0.  0.
         25    2    1    2    0    0  0.17153846986E+03 -0.94261922497E+02  0.20181780773E+03  0.30771419836E+03  0.12508734420E+03 0.  0.
         24    2    1    2    0    0 -0.18846636546E+03  0.84780317884E+02  0.66783504086E+03  0.70379466827E+03  0.81338921001E+02 0.  0.
        -13    1    5    5    0    0 -0.12197247451E+03  0.70990085641E+02  0.54974924313E+03  0.56757475906E+03  0.00000000000E+00 0.  1.
         14    1    5    5    0    0 -0.66493890955E+02  0.13790232243E+02  0.11808579773E+03  0.13621990921E+03  0.00000000000E+00 0. -1.
         11    1    3    3    0    0 -0.35170912567E+01 -0.34449918429E+01 -0.14923585614E+03  0.14931704075E+03  0.00000000000E+00 0. -1.
        -12    1    3    3    0    0  0.20444986858E+02  0.12926596456E+02 -0.26296072849E+01  0.24331239549E+02  0.00000000000E+00 0.  1.
          5    1    4    4  501    0  0.10202693058E+03 -0.10508678170E+03  0.18364080947E+03  0.23493434307E+03  0.41800000000E+01 0.  1.
         -5    1    4    4    0  501  0.69511539282E+02  0.10824859201E+02  0.18176998265E+02  0.72779855290E+02  0.41800000000E+01 0.  1.
</event>
<event>
11    1  0.1078607E-008  0.1336092E+03  0.7561462E-02  0.1114912E+00
         22   -1    0    0    0    0  0.00000000000E+00  0.00000000000E+00  0.23317114995E+04  0.23317114995E+04  0.00000000000E+00 0. -1.
         22   -1    0    0    0    0 -0.00000000000E+00 -0.00000000000E+00 -0.51240279787E+03  0.51240279787E+03  0.00000000000E+00 0. -1.
        -24    2    1    2    0    0  0.72399146276E+01 -0.10941071763E+02 -0.48388891115E+03  0.49039081971E+03  0.78501938241E+02 0.  0.
         25    2    1    2    0    0 -0.52973687430E+02  0.13424155929E+01  0.16687791530E+03  0.21518304895E+03  0.12508993684E+03 0.  0.
         24    2    1    2    0    0  0.45733772803E+02  0.95986561703E+01  0.21363196974E+04  0.21385404287E+04  0.85496217777E+02 0.  0.
        -11    1    5    5    0    0 -0.24494168783E+02  0.44872186765E+01  0.38399552349E+03  0.38480210693E+03  0.00000000000E+00 0.  1.
         12    1    5    5    0    0  0.70227941586E+02  0.51114374938E+01  0.17523241739E+04  0.17537383217E+04  0.00000000000E+00 0. -1.
         13    1    3    3    0    0  0.72139038563E+01 -0.32348588482E+02 -0.44298927916E+03  0.44422738889E+03  0.00000000000E+00 0. -1.
        -14    1    3    3    0    0  0.26010771355E-01  0.21407516718E+02 -0.40899631989E+02  0.46163430824E+02  0.00000000000E+00 0.  1.
          5    1    4    4  501    0 -0.34303128949E+02  0.52125460965E+02  0.14264132114E+03  0.15574911632E+03  0.41800000000E+01 0. -1.
         -5    1    4    4    0  501 -0.18670558482E+02 -0.50783045372E+02  0.24236594162E+02  0.59433932630E+02  0.41800000000E+01 0. -1.
</event>
<event>
11    1  0.1078607E-008  0.1504375E+03  0.7561462E-02  0.1096433E+00
         22   -1    0    0    0    0  0.00000000000E+00  0.00000000000E+00  0.98938366473E+03  0.98938366473E+03  0.00000000000E+00 0. -1.
         22   -1    0    0    0    0 -0.00000000000E+00 -0.00000000000E+00 -0.28948543354E+03  0.28948543354E+03  0.00000000000E+00 0.  1.
         24    2    1    2    0    0  0.95445065759E+01 -0.42230361765E+02 -0.22546625016E+03  0.24485825051E+03  0.85123626684E+02 0.  0.
         25    2    1    2    0    0  0.99682762920E+01  0.12065632179E+03  0.99627112396E+02  0.20057564609E+03  0.12509082205E+03 0.  0.
        -24    2    1    2    0    0 -0.19512782868E+02 -0.78425960022E+02  0.82573736895E+03  0.83343520167E+03  0.78997803781E+02 0.  0.
        -13    1    3    3    0    0 -0.37339190386E+02 -0.20641817803E+02 -0.82873036951E+02  0.93210729181E+02  0.00000000000E+00 0.  1.
         14    1    3    3    0    0  0.46883696962E+02 -0.21588543961E+02 -0.14259321321E+03  0.15164752133E+03  0.00000000000E+00 0. -1.
         11    1    5    5    0    0  0.36392696758E+01 -0.59423991699E+02  0.74408203560E+03  0.74645999945E+03  0.00000000000E+00 0. -1.
        -12    1    5    5    0    0 -0.23152052544E+02 -0.19001968323E+02  0.81655333350E+02  0.86975202223E+02  0.00000000000E+00 0.  1.
          5    1    4    4  501    0 -0.37379581435E+02  0.91221702278E+02  0.15968751117E+02  0.99955517541E+02  0.41800000000E+01 0.  1.
         -5    1    4    4    0  501  0.47347857727E+02  0.29434619509E+02  0.83658361279E+02  0.10062012855E+03  0.41800000000E+01 0.  1.
</event>
<event>
11    1  0.1078607E-008  0.2559479E+03  0.7561462E-02  0.1020778E+00
         22   -1    0    0    0    0  0.00000000000E+00  0.00000000000E+00  0.12048508083E+04  0.12048508083E+04  0.00000000000E+00 0. -1.
         22   -1    0    0    0    0 -0.00000000000E+00 -0.00000000000E+00 -0.87062683277E+02  0.87062683277E+02  0.00000000000E+00 0. -1.
         24    2    1    2    0    0  0.73287043543E+01  0.23877853584E+02  0.61527419546E+02  0.10724744071E+03  0.84217150173E+02 0.  0.
         25    2    1    2    0    0  0.20682200518E+03 -0.87032802920E+02  0.31480127775E+03  0.40631754768E+03  0.12507619465E+03 0.  0.
        -24    2    1    2    0    0 -0.21415070954E+03  0.63154949336E+02  0.74145942772E+03  0.77834850319E+03  0.78836764448E+02 0.  0.
        -11    1    3    3    0    0 -0.98599013260E+01 -0.31929150617E+01 -0.18405173572E+02  0.21122565540E+02  0.00000000000E+00 0.  1.
         12    1    3    3    0    0  0.17188605680E+02  0.27070768646E+02  0.79932593118E+02  0.86124875169E+02  0.00000000000E+00 0. -1.
         13    1    5    5    0    0 -0.19309102864E+03  0.29551775483E+02  0.57673604758E+03  0.60891864921E+03  0.00000000000E+00 0. -1.
        -14    1    5    5    0    0 -0.21059680897E+02  0.33603173854E+02  0.16472338014E+03  0.16942985398E+03  0.00000000000E+00 0.  1.
          5    1    4    4  501    0  0.75421306845E+01 -0.38260646390E+02  0.10835861777E+03  0.11523811541E+03  0.41800000000E+01 0.  1.
         -5    1    4    4    0  501  0.19927987450E+03 -0.48772156530E+02  0.20644265998E+03  0.29107943228E+03  0.41800000000E+01 0.  1.
</event>
<event>
11    1  0.1078607E-008  0.1334913E+03  0.7561462E-02  0.1115052E+00
         22   -1    0    0    0    0  0.00000000000E+00  0.00000000000E+00  0.80625393485E+03  0.80625393485E+03  0.00000000000E+00 0.  1.
         22   -1    0    0    0    0 -0.00000000000E+00 -0.00000000000E+00 -0.22775740924E+03  0.22775740924E+03  0.00000000000E+00 0.  1.
        -24    2    1    2    0    0 -0.23265108775E+02 -0.31391595323E+02 -0.17855456171E+03  0.19946225297E+03  0.79854626089E+02 0.  0.
         25    2    1    2    0    0 -0.16012630503E+02  0.56675201343E+02  0.10011965184E+03  0.17070334587E+03  0.12508878776E+03 0.  0.
         24    2    1    2    0    0  0.39277739278E+02 -0.25283606020E+02  0.65693143548E+03  0.66384574524E+03  0.83368225507E+02 0.  0.
        -13    1    5    5    0    0  0.19590305962E+02 -0.23170363899E+02  0.62831314857E+03  0.62904535490E+03  0.00000000000E+00 0.  1.
         14    1    5    5    0    0  0.19687433316E+02 -0.21132421208E+01  0.28618286905E+02  0.34800390346E+02  0.00000000000E+00 0. -1.
         11    1    3    3    0    0  0.35066607222E+01 -0.47290261607E+02 -0.57825778598E+02  0.74782927081E+02  0.00000000000E+00 0. -1.
        -12    1    3    3    0    0 -0.26771769498E+02  0.15898666284E+02 -0.12072878311E+03  0.12467932589E+03  0.00000000000E+00 0.  1.
          5    1    4    4  501    0 -0.43028075925E+02  0.60579642055E+02  0.11676071659E+03  0.13846243422E+03  0.41800000000E+01 0. -1.
         -5    1    4    4    0  501  0.27015445422E+02 -0.39044407115E+01 -0.16641064750E+02  0.32240911659E+02  0.41800000000E+01 0. -1.
</event>
<event>
11    1  0.1078607E-008  0.1413101E+03  0.7561462E-02  0.1106104E+00
         22   -1    0    0    0    0  0.00000000000E+00  0.00000000000E+00  0.10236579292E+04  0.10236579292E+04  0.00000000000E+00 0.  1.
         22   -1    0    0    0    0 -0.00000000000E+00 -0.00000000000E+00 -0.18671184746E+03  0.18671184746E+03  0.00000000000E+00 0. -1.
         24    2    1    2    0    0  0.19119435295E+02 -0.37713691577E+02 -0.96468978789E+02  0.13243933235E+03  0.80287219069E+02 0.  0.
         25    2    1    2    0    0 -0.70680576541E+02  0.75975558456E+02  0.25914113610E+02  0.16457818879E+03  0.12508560892E+03 0.  0.
        -24    2    1    2    0    0  0.51561141246E+02 -0.38261866878E+02  0.90750094695E+03  0.91335225557E+03  0.80819875526E+02 0.  0.
        -13    1    3    3    0    0 -0.27222822470E+02 -0.82953466917E+00 -0.13229873108E+02  0.30278700986E+02  0.00000000000E+00 0.  1.
         14    1    3    3    0    0  0.46342257765E+02 -0.36884156908E+02 -0.83239105681E+02  0.10216063136E+03  0.00000000000E+00 0. -1.
         13    1    5    5    0    0  0.42240627431E+02 -0.67425681886E+00  0.18283271795E+03  0.18765001460E+03  0.00000000000E+00 0. -1.
        -14    1    5    5    0    0  0.93205138151E+01 -0.37587610060E+02  0.72466822901E+03  0.72570224096E+03  0.00000000000E+00 0.  1.
          5    1    4    4  501    0  0.65428103946E+01  0.19949522461E+02 -0.42171923141E+02  0.47294136166E+02  0.41800000000E+01 0. -1.
         -5    1    4    4    0  501 -0.77223386936E+02  0.56026035995E+02  0.68086036752E+02  0.11728405262E+03  0.41800000000E+01 0. -1.
</event>
<event>
11    1  0.1078607E-008  0.1324542E+03  0.7561462E-02  0.1116290E+00
         22   -1    0    0    0    0  0.00000000000E+00  0.00000000000E+00  0.42118499743E+03  0.42118499743E+03  0.00000000000E+00 0.  1.
         22   -1    0    0    0    0 -0.00000000000E+00 -0.00000000000E+00 -0.67836355274E+03  0.67836355274E+03  0.00000000000E+00 0.  1.
         24    2    1    2    0    0  0.10811529990E+02 -0.42017754205E+02 -0.64053160150E+03  0.64793543931E+03  0.87505543495E+02 0.  0.
         25    2    1    2    0    0  0.29551454512E+02  0.65819717665E+02  0.23984569246E+03  0.27995883785E+03  0.12508185720E+03 0.  0.
        -24    2    1    2    0    0 -0.40362984502E+02 -0.23801963460E+02  0.14350735373E+03  0.17165427302E+03  0.81701437493E+02 0.  0.
        -13    1    3    3    0    0 -0.12324347607E+02 -0.14148811794E+01 -0.49350168132E+03  0.49365757454E+03  0.00000000000E+00 0.  1.
         14    1    3    3    0    0  0.23135877597E+02 -0.40602873025E+02 -0.14702992018E+03  0.15427786477E+03  0.00000000000E+00 0. -1.
         13    1    5    5    0    0 -0.13971462837E+02  0.30557272696E+02  0.46584870425E+02  0.57437782347E+02  0.00000000000E+00 0. -1.
        -14    1    5    5    0    0 -0.26391521665E+02 -0.54359236156E+02  0.96922483308E+02  0.11421649067E+03  0.00000000000E+00 0.  1.
          5    1    4    4  501    0 -0.40305357694E+02  0.35538084695E+02  0.43288581270E+02  0.69129233982E+02  0.41800000000E+01 0.  1.
         -5    1    4    4    0  501  0.69856812206E+02  0.30281632970E+02  0.19655711119E+03  0.21082960387E+03  0.41800000000E+01 0.  1.
</event>
<event>
11    1  0.1078607E-008  0.1420479E+03  0.7561462E-02  0.1105293E+00
         22   -1    0    0    0    0  0.00000000000E+00  0.00000000000E+00  0.12076505966E+04  0.12076505966E+04  0.00000000000E+00 0. -1.
         22   -1    0    0    0    0 -0.00000000000E+00 -0.00000000000E+00 -0.69000667875E+03  0.69000667875E+03  0.00000000000E+00 0.  1.
         24    2    1    2    0    0  0.79346844749E+01  0.67983065798E+02 -0.61945151221E+03  0.62840497701E+03  0.80548014878E+02 0.  0.
         25    2    1    2    0    0 -0.55415662973E+02 -0.39820763667E+02  0.15331219929E+02  0.14331849233E+03  0.12509418458E+03 0.  0.
        -24    2    1    2    0    0  0.47480978498E+02 -0.28162302132E+02  0.11217642102E+04  0.11259338061E+04  0.79526308998E+02 0.  0.
        -13    1    3    3    0    0  0.11021852116E+02  0.64825182186E+02 -0.62041088680E+03  0.62388576994E+03  0.00000000000E+00 0.  1.
         14    1    3    3    0    0 -0.30871676416E+01  0.31578836126E+01  0.95937459236E+00  0.45192070727E+01  0.00000000000E+00 0. -1.
         11    1    5    5    0    0  0.49630614974E+02 -0.25788311085E+01  0.10115002458E+04  0.10127203936E+04  0.00000000000E+00 0. -1.
        -12    1    5    5    0    0 -0.21496364752E+01 -0.25583471023E+02  0.11026396432E+03  0.11321341243E+03  0.00000000000E+00 0.  1.
          5    1    4    4  501    0  0.21228235086E+01 -0.60469658760E+02  0.44725409654E+02  0.75358613834E+02  0.41800000000E+01 0.  1.
         -5    1    4    4    0  501 -0.57538486482E+02  0.20648895093E+02 -0.29394189725E+02  0.67959878493E+02  0.41800000000E+01 0.  1.
</event>
<event>
11    1  0.1078607E-008  0.3086523E+03  0.7561462E-02  0.9965945E-01
         22   -1    0    0    0    0  0.00000000000E+00  0.00000000000E+00  0.27807241849E+04  0.27807241849E+04  0.00000000000E+00 0. -1.
         22   -1    0    0    0    0 -0.00000000000E+00 -0.00000000000E+00 -0.57150085864E+02  0.57150085864E+02  0.00000000000E+00 0. -1.
         24    2    1    2    0    0 -0.98896525275E+02  0.11318526512E+02  0.20497959076E+03  0.24142166466E+03  0.79744315065E+02 0.  0.
         25    2    1    2    0    0  0.23608647608E+02 -0.28660127730E+03  0.95874160325E+03  0.10087273025E+04  0.12509056202E+03 0.  0.
        -24    2    1    2    0    0  0.75287877667E+02  0.27528275079E+03  0.15598529051E+04  0.15877253036E+04  0.79257156356E+02 0.  0.
        -11    1    3    3    0    0 -0.78341082477E+00 -0.23209399909E+02  0.44251744518E+02  0.49975062476E+02  0.00000000000E+00 0.  1.
         12    1    3    3    0    0 -0.98113114450E+02  0.34527926420E+02  0.16072784624E+03  0.19144660219E+03  0.00000000000E+00 0. -1.
         11    1    5    5    0    0  0.89141530663E+02  0.21480258651E+03  0.11595286802E+04  0.11826212935E+04  0.00000000000E+00 0. -1.
        -12    1    5    5    0    0 -0.13853652996E+02  0.60480164279E+02  0.40032422490E+03  0.40510401012E+03  0.00000000000E+00 0.  1.
          5    1    4    4  501    0 -0.47167885121E+02 -0.15654912406E+03  0.55852733600E+03  0.58198169653E+03  0.41800000000E+01 0. -1.
         -5    1    4    4    0  501  0.70776532729E+02 -0.13005215325E+03  0.40021426725E+03  0.42674560602E+03  0.41800000000E+01 0. -1.
</event>
<event>
11    1  0.1078607E-008  0.1516679E+03  0.7561462E-02  0.1095187E+00
         22   -1    0    0    0    0  0.00000000000E+00  0.00000000000E+00  0.66401298062E+03  0.66401298062E+03  0.00000000000E+00 0. -1.
         22   -1    0    0    0    0 -0.00000000000E+00 -0.00000000000E+00 -0.43796247630E+03  0.43796247630E+03  0.00000000000E+00 0. -1.
         24    2    1    2    0    0  0.20563785904E+02 -0.11383607624E+02 -0.40502289870E+03  0.41364604491E+03  0.80666264240E+02 0.  0.
         25    2    1    2    0    0 -0.48247059617E+02  0.85725392588E+02  0.32203978165E+03  0.35921503990E+03  0.12509677146E+03 0.  0.
        -24    2    1    2    0    0  0.27683273712E+02 -0.74341784963E+02  0.30903362137E+03  0.32911437211E+03  0.80755347535E+02 0.  0.
        -13    1    3    3    0    0 -0.26513257954E+02 -0.18777336303E+02 -0.10656072431E+03  0.11140345224E+03  0.00000000000E+00 0.  1.
         14    1    3    3    0    0  0.47077043858E+02  0.73937286788E+01 -0.29846217438E+03  0.30224259266E+03  0.00000000000E+00 0. -1.
         11    1    5    5    0    0  0.41888653703E+01 -0.72712209653E+02  0.28948725519E+03  0.29850876527E+03  0.00000000000E+00 0. -1.
        -12    1    5    5    0    0  0.23494408342E+02 -0.16295753099E+01  0.19546366181E+02  0.30605606838E+02  0.00000000000E+00 0.  1.
          5    1    4    4  501    0 -0.75383350992E+02  0.26012463142E+02  0.24636989680E+03  0.25898821652E+03  0.41800000000E+01 0. -1.
         -5    1    4    4    0  501  0.27136291375E+02  0.59712929446E+02  0.75669884853E+02  0.10022682339E+03  0.41800000000E+01 0. -1.
</event>
<event>
11    1  0.2318929E-008  0.1527993E+03  0.7561462E-02  0.1094052E+00
         22   -1    0    0    0    0  0.00000000000E+00  0.00000000000E+00  0.25713445942E+04  0.25713445942E+04  0.00000000000E+00 0. -1.
         22   -1    0    0    0    0 -0.00000000000E+00 -0.00000000000E+00 -0.67400215022E+03  0.67400215022E+03  0.00000000000E+00 0.  1.
        -24    2    1    2    0    0  0.19805333416E+02 -0.85683430041E+02 -0.53335339677E+03  0.54654581566E+03  0.80700566034E+02 0.  0.
         25    2    1    2    0    0 -0.60535063469E+02  0.71482162018E+01 -0.96098330363E+02  0.16911082120E+03  0.12509192558E+03 0.  0.
         24    2    1    2    0    0  0.40729730052E+02  0.78535213840E+02  0.25267941711E+04  0.25296901076E+04  0.82562500061E+02 0.  0.
        -11    1    5    5    0    0  0.53056205761E+01  0.51553998811E+02  0.56028795629E+03  0.56267980093E+03  0.00000000000E+00 0.  1.
         12    1    5    5    0    0  0.35424109476E+02  0.26981215028E+02  0.19665062148E+04  0.19670103067E+04  0.00000000000E+00 0. -1.
         13    1    3    3    0    0 -0.29161074959E+01 -0.28462942543E+02 -0.38980803367E+02  0.48354377385E+02  0.00000000000E+00 0. -1.
        -14    1    3    3    0    0  0.22721440912E+02 -0.57220487498E+02 -0.49437259340E+03  0.49819143828E+03  0.00000000000E+00 0.  1.
          5    1    4    4  501    0 -0.62311091543E+02 -0.50553701152E+02 -0.65359049548E+02  0.10357425639E+03  0.41800000000E+01 0. -1.
         -5    1    4    4    0  501  0.17760280744E+01  0.57701917354E+02 -0.30739280816E+02  0.65536564810E+02  0.41800000000E+01 0. -1.
</event>
<event>
11    1  0.1078607E-008  0.1334458E+03  0.7561462E-02  0.1115106E+00
         22   -1    0    0    0    0  0.00000000000E+00  0.00000000000E+00  0.38437895402E+03  0.38437895402E+03  0.00000000000E+00 0. -1.
         22   -1    0    0    0    0 -0.00000000000E+00 -0.00000000000E+00 -0.13107777364E+04  0.13107777364E+04  0.00000000000E+00 0.  1.
         24    2    1    2    0    0  0.22766409349E+02 -0.39977760066E+02 -0.12323824989E+04  0.12381067454E+04  0.10965928476E+03 0.  0.
         25    2    1    2    0    0  0.18877231514E+02  0.78460276197E+02  0.15185141628E+02  0.14963603275E+03  0.12509192204E+03 0.  0.
        -24    2    1    2    0    0 -0.41643640863E+02 -0.38482516131E+02  0.29079857491E+03  0.30741391224E+03  0.82002471911E+02 0.  0.
        -13    1    3    3    0    0 -0.25681410279E+02 -0.60826730136E+02 -0.71576098619E+03  0.71879984368E+03  0.00000000000E+00 0.  1.
         14    1    3    3    0    0  0.48447819628E+02  0.20848970070E+02 -0.51662151273E+03  0.51930690174E+03  0.00000000000E+00 0. -1.
         11    1    5    5    0    0 -0.14593921167E+02 -0.37079819536E+02  0.27087273426E+03  0.27378811829E+03  0.00000000000E+00 0. -1.
        -12    1    5    5    0    0 -0.27049719696E+02 -0.14026965951E+01  0.19925840650E+02  0.33625793953E+02  0.00000000000E+00 0.  1.
          5    1    4    4  501    0 -0.28432615404E+02  0.32454863794E+02 -0.43365034133E+02  0.61316640384E+02  0.41800000000E+01 0. -1.
         -5    1    4    4    0  501  0.47309846918E+02  0.46005412403E+02  0.58550175761E+02  0.88319392363E+02  0.41800000000E+01 0. -1.
</event>
<event>
11    1  0.1078607E-008  0.3796016E+03  0.7561462E-02  0.9711939E-01
         22   -1    0    0    0    0  0.00000000000E+00  0.00000000000E+00  0.98936231328E+03  0.98936231328E+03  0.00000000000E+00 0. -1.
         22   -1    0    0    0    0 -0.00000000000E+00 -0.00000000000E+00 -0.30525595098E+03  0.30525595098E+03  0.00000000000E+00 0. -1.
         24    2    1    2    0    0  0.35504204725E+03 -0.66193359970E+02 -0.96509933032E+02  0.38229552267E+03  0.79995520284E+02 0.  0.
         25    2    1    2    0    0 -0.34918941688E+03  0.13831657253E+02  0.56155405099E+03  0.67313775110E+03  0.12508763396E+03 0.  0.
        -24    2    1    2    0    0 -0.58526303643E+01  0.52361702717E+02  0.21906224435E+03  0.23918499049E+03  0.80281950523E+02 0.  0.
        -11    1    3    3    0    0  0.12127166795E+02  0.21220448490E+01  0.10976143237E+02  0.16493846403E+02  0.00000000000E+00 0.  1.
         12    1    3    3    0    0  0.34291488045E+03 -0.68315404819E+02 -0.10748607627E+03  0.36580167627E+03  0.00000000000E+00 0. -1.
         13    1    5    5    0    0 -0.26339169485E+02  0.47515383168E+02  0.69825371340E+02  0.88470593812E+02  0.00000000000E+00 0. -1.
        -14    1    5    5    0    0  0.20486539121E+02  0.48463195489E+01  0.14923687301E+03  0.15071439667E+03  0.00000000000E+00 0.  1.
          5    1    4    4  501    0 -0.29384155070E+02  0.37914034947E+02  0.50520960457E+02  0.69790704686E+02  0.41800000000E+01 0. -1.
         -5    1    4    4    0  501 -0.31980526181E+03 -0.24082377694E+02  0.51103309053E+03  0.60334704641E+03  0.41800000000E+01 0. -1.
</event>
<event>
11    1  0.1078607E-008  0.1257831E+03  0.7561462E-02  0.1124562E+00
         22   -1    0    0    0    0  0.00000000000E+00  0.00000000000E+00  0.44279651183E+03  0.44279651183E+03  0.00000000000E+00 0. -1.
         22   -1    0    0    0    0 -0.00000000000E+00 -0.00000000000E+00 -0.27012390354E+03  0.27012390354E+03  0.00000000000E+00 0. -1.
         24    2    1    2    0    0 -0.24036658395E+01  0.14887725549E+01 -0.17659114782E+03  0.19583901079E+03  0.84619682138E+02 0.  0.
         25    2    1    2    0    0  0.12842596570E+02 -0.92342720225E+01 -0.27758436270E+02  0.12910592012E+03  0.12509038236E+03 0.  0.
        -24    2    1    2    0    0 -0.10438930730E+02  0.77454994676E+01  0.37702219238E+03  0.38797548446E+03  0.90610589658E+02 0.  0.
        -13    1    3    3    0    0  0.40348999012E+02  0.68034449776E+01 -0.73798201394E+02  0.84383073622E+02  0.00000000000E+00 0.  1.
         14    1    3    3    0    0 -0.42752664851E+02 -0.53146724227E+01 -0.10279294643E+03  0.11145593717E+03  0.00000000000E+00 0. -1.
         11    1    5    5    0    0 -0.12063911249E+02 -0.20559185819E+02  0.34238891051E+03  0.34321769203E+03  0.00000000000E+00 0. -1.
        -12    1    5    5    0    0  0.16249805185E+01  0.28304685286E+02  0.34633281867E+02  0.44757792436E+02  0.00000000000E+00 0.  1.
          5    1    4    4  501    0 -0.39734638765E+02 -0.39179391404E+02  0.11135183916E+02  0.57055507617E+02  0.41800000000E+01 0.  1.
         -5    1    4    4    0  501  0.52577235335E+02  0.29945119381E+02 -0.38893620187E+02  0.72050412500E+02  0.41800000000E+01 0.  1.
</event>
<event>
11    1  0.1078607E-008  0.2343717E+03  0.7561462E-02  0.1032570E+00
         22   -1    0    0    0    0  0.00000000000E+00  0.00000000000E+00  0.31336752703E+03  0.31336752703E+03  0.00000000000E+00 0. -1.
         22   -1    0    0    0    0 -0.00000000000E+00 -0.00000000000E+00 -0.33337551908E+03  0.33337551908E+03  0.00000000000E+00 0. -1.
        -24    2    1    2    0    0 -0.63993830799E+02  0.40151102852E+02 -0.14077322092E+02  0.11141701289E+03  0.80673777174E+02 0.  0.
         25    2    1    2    0    0 -0.81141276486E+02  0.11713134805E+03 -0.16930712962E+03  0.25419587891E+03  0.12508789417E+03 0.  0.
         24    2    1    2    0    0  0.14513510728E+03 -0.15728245090E+03  0.16337645966E+03  0.28113015431E+03  0.80872290459E+02 0.  0.
        -13    1    5    5    0    0  0.49637598523E+02 -0.11176278427E+02  0.58364008785E+02  0.77428405047E+02  0.00000000000E+00 0.  1.
         14    1    5    5    0    0  0.95497508762E+02 -0.14610617247E+03  0.10501245087E+03  0.20370174926E+03  0.00000000000E+00 0. -1.
         11    1    3    3    0    0 -0.82113063797E+02  0.41890232980E+02 -0.96572788277E+01  0.92685543099E+02  0.00000000000E+00 0. -1.
        -12    1    3    3    0    0  0.18119232998E+02 -0.17391301277E+01 -0.44200432643E+01  0.18731469790E+02  0.00000000000E+00 0.  1.
          5    1    4    4  501    0 -0.10873180835E+02  0.72875102743E+02 -0.15242420077E+03  0.16935057143E+03  0.41800000000E+01 0.  1.
         -5    1    4    4    0  501 -0.70268095651E+02  0.44256245307E+02 -0.16882928843E+02  0.84845307480E+02  0.41800000000E+01 0.  1.
</event>
<event>
11    1  0.1078607E-008  0.1324461E+03  0.7561462E-02  0.1116299E+00
         22   -1    0    0    0    0  0.00000000000E+00  0.00000000000E+00  0.14855500279E+03  0.14855500279E+03  0.00000000000E+00 0.  1.
         22   -1    0    0    0    0 -0.00000000000E+00 -0.00000000000E+00 -0.44690731805E+03  0.44690731805E+03  0.00000000000E+00 0.  1.
        -24    2    1    2    0    0 -0.25630104531E+02 -0.64147701528E+00 -0.27706333365E+03  0.28968974941E+03  0.80614802061E+02 0.  0.
         25    2    1    2    0    0  0.64997401833E+02  0.10994244681E+02 -0.11027390403E+03  0.17930266056E+03  0.12507427598E+03 0.  0.
         24    2    1    2    0    0 -0.39367297302E+02 -0.10352767666E+02  0.88984922424E+02  0.12646991087E+03  0.80120896402E+02 0.  0.
        -13    1    5    5    0    0 -0.60775077055E+01  0.18928899652E+02  0.78409618491E+02  0.80890714015E+02  0.00000000000E+00 0.  1.
         14    1    5    5    0    0 -0.33289789597E+02 -0.29281667318E+02  0.10575303933E+02  0.45579196851E+02  0.00000000000E+00 0. -1.
         13    1    3    3    0    0 -0.47597135833E+01  0.33866220295E+02 -0.61341552088E+02  0.70230775043E+02  0.00000000000E+00 0. -1.
        -14    1    3    3    0    0 -0.20870390948E+02 -0.34507697311E+02 -0.21572178156E+03  0.21945897437E+03  0.00000000000E+00 0.  1.
          5    1    4    4  501    0 -0.25078908767E+02 -0.32133001696E+02 -0.25699348970E+02  0.48367451870E+02  0.41800000000E+01 0.  1.
         -5    1    4    4    0  501  0.90076310600E+02  0.43127246377E+02 -0.84574555057E+02  0.13093520869E+03  0.41800000000E+01 0.  1.
</event>
<event>
11    1  0.1078607E-008  0.1305964E+03  0.7561462E-02  0.1118538E+00
         22   -1    0    0    0    0  0.00000000000E+00  0.00000000000E+00  0.80120938869E+03  0.80120938869E+03  0.00000000000E+00 0. -1.
         22   -1    0    0    0    0 -0.00000000000E+00 -0.00000000000E+00 -0.32972690329E+03  0.32972690329E+03  0.00000000000E+00 0. -1.
        -24    2    1    2    0    0 -0.73334175298E+01 -0.37387001613E+01 -0.29408438454E+03  0.30497952282E+03  0.80368695485E+02 0.  0.
         25    2    1    2    0    0  0.32330677378E+02  0.30627030870E+02  0.13592501722E+03  0.19001718135E+03  0.12509049197E+03 0.  0.
         24    2    1    2    0    0 -0.24997259848E+02 -0.26888330709E+02  0.62964185272E+03  0.63593958782E+03  0.81378445111E+02 0.  0.
        -11    1    5    5    0    0 -0.49782298452E+02 -0.17314645768E+02  0.25685660456E+03  0.26220867549E+03  0.00000000000E+00 0.  1.
         12    1    5    5    0    0  0.24785038604E+02 -0.95736849406E+01  0.37278524816E+03  0.37373091233E+03  0.00000000000E+00 0. -1.
         13    1    3    3    0    0 -0.13065717533E+02 -0.40610923716E+02 -0.17820566899E+03  0.18324088125E+03  0.00000000000E+00 0. -1.
        -14    1    3    3    0    0  0.57323000032E+01  0.36872223555E+02 -0.11587871555E+03  0.12173864157E+03  0.00000000000E+00 0.  1.
          5    1    4    4  501    0  0.25827462877E+01  0.71483837493E+02  0.41412761950E+02  0.82759282582E+02  0.41800000000E+01 0. -1.
         -5    1    4    4    0  501  0.29747931090E+02 -0.40856806623E+02  0.94512255271E+02  0.10725789877E+03  0.41800000000E+01 0. -1.
</event>
<event>
11    1  0.1078607E-008  0.1410566E+03  0.7561462E-02  0.1106384E+00
         22   -1    0    0    0    0  0.00000000000E+00  0.00000000000E+00  0.14426355171E+04  0.14426355171E+04  0.00000000000E+00 0.  1.
         22   -1    0    0    0    0 -0.00000000000E+00 -0.00000000000E+00 -0.57213715294E+02  0.57213715294E+02  0.00000000000E+00 0.  1.
        -24    2    1    2    0    0  0.50206635065E+02 -0.40164683722E+02  0.74639806771E+01  0.10122363061E+03  0.77824188802E+02 0.  0.
         25    2    1    2    0    0 -0.82211043101E+02  0.22577446529E+02  0.81277965094E+03  0.82675576203E+03  0.12508370144E+03 0.  0.
         24    2    1    2    0    0  0.32004408036E+02  0.17587237193E+02  0.56517817016E+03  0.57186983973E+03  0.79215885537E+02 0.  0.
        -11    1    5    5    0    0  0.57499418569E+02  0.10648326889E+02  0.44469869438E+03  0.44852703239E+03  0.00000000000E+00 0.  1.
         12    1    5    5    0    0 -0.25495010533E+02  0.69389103045E+01  0.12047947578E+03  0.12334280734E+03  0.00000000000E+00 0. -1.
         11    1    3    3    0    0  0.10963349086E+02  0.12344478343E+02  0.28020451316E+02  0.32522712998E+02  0.00000000000E+00 0. -1.
        -12    1    3    3    0    0  0.39243285978E+02 -0.52509162066E+02 -0.20556470639E+02  0.68700917609E+02  0.00000000000E+00 0.  1.
          5    1    4    4  501    0 -0.84095663318E+02 -0.25552917154E+02  0.67558729191E+03  0.68129339756E+03  0.41800000000E+01 0. -1.
         -5    1    4    4    0  501  0.18846202168E+01  0.48130363684E+02  0.13719235903E+03  0.14546236447E+03  0.41800000000E+01 0. -1.
</event>
<event>
11    1  0.1078607E-008  0.1332908E+03  0.7561462E-02  0.1115291E+00
         22   -1    0    0    0    0  0.00000000000E+00  0.00000000000E+00  0.40262367065E+03  0.40262367065E+03  0.00000000000E+00 0. -1.
         22   -1    0    0    0    0 -0.00000000000E+00 -0.00000000000E+00 -0.47934178496E+03  0.47934178496E+03  0.00000000000E+00 0.  1.
         24    2    1    2    0    0 -0.45090827572E+02  0.92286240317E+01 -0.40254423624E+03  0.41309132549E+03  0.80524721848E+02 0.  0.
         25    2    1    2    0    0  0.51799116282E+02  0.29399068000E+02  0.82608597415E+01  0.13879524418E+03  0.12509366234E+03 0.  0.
        -24    2    1    2    0    0 -0.67082887103E+01 -0.38627692032E+02  0.31756526220E+03  0.33007888594E+03  0.81038728128E+02 0.  0.
        -13    1    3    3    0    0 -0.55104359415E+02  0.28468457070E+02 -0.36034944398E+03  0.36564828080E+03  0.00000000000E+00 0.  1.
         14    1    3    3    0    0  0.10013531843E+02 -0.19239833038E+02 -0.42194792265E+02  0.47443044691E+02  0.00000000000E+00 0. -1.
         11    1    5    5    0    0  0.44334472325E+01  0.11048515308E+02  0.21732896462E+03  0.21765478173E+03  0.00000000000E+00 0. -1.
        -12    1    5    5    0    0 -0.11141735943E+02 -0.49676207340E+02  0.10023629758E+03  0.11242410421E+03  0.00000000000E+00 0.  1.
          5    1    4    4  501    0  0.47439404959E+02  0.45422682230E+02  0.57044493405E+02  0.87093420140E+02  0.41800000000E+01 0.  1.
         -5    1    4    4    0  501  0.43597113230E+01 -0.16023614230E+02 -0.48783633664E+02  0.51701824042E+02  0.41800000000E+01 0.  1.
</event>
<event>
11    1  0.1078607E-008  0.1900677E+03  0.7561462E-02  0.1061778E+00
         22   -1    0    0    0    0  0.00000000000E+00  0.00000000000E+00  0.42436673834E+03  0.42436673834E+03  0.00000000000E+00 0. -1.
         22   -1    0    0    0    0 -0.00000000000E+00 -0.00000000000E+00 -0.36409195765E+04  0.36409195765E+04  0.00000000000E+00 0.  1.
        -24    2    1    2    0    0  0.75537886796E+02 -0.11769373493E+03 -0.30019711527E+04  0.30063260118E+04  0.81286528242E+02 0.  0.
         25    2    1    2    0    0 -0.64385654035E+02  0.16012979970E+03 -0.61353468167E+03  0.64950799200E+03  0.12509500734E+03 0.  0.
         24    2    1    2    0    0 -0.11152232761E+02 -0.42436064767E+02  0.39895299623E+03  0.40945231108E+03  0.81009320209E+02 0.  0.
        -11    1    5    5    0    0 -0.35416841559E+01  0.15631864072E+02  0.18326297506E+02  0.24346496284E+02  0.00000000000E+00 0.  1.
         12    1    5    5    0    0 -0.76105486052E+01 -0.58067928839E+02  0.38062669872E+03  0.38510581480E+03  0.00000000000E+00 0. -1.
         11    1    3    3    0    0 -0.13955802766E+02 -0.19459720326E+01 -0.17248632770E+03  0.17306092708E+03  0.00000000000E+00 0. -1.
        -12    1    3    3    0    0  0.89493689563E+02 -0.11574776290E+03 -0.28294848250E+04  0.28332650847E+04  0.00000000000E+00 0.  1.
          5    1    4    4  501    0  0.32829633255E+02  0.11409437758E+02 -0.11702628487E+03  0.12214984175E+03  0.41800000000E+01 0. -1.
         -5    1    4    4    0  501 -0.97215287290E+02  0.14872036194E+03 -0.49650839680E+03  0.52735815025E+03  0.41800000000E+01 0. -1.
</event>
<event>
11    1  0.1078607E-008  0.1697826E+03  0.7561462E-02  0.1078221E+00
         22   -1    0    0    0    0  0.00000000000E+00  0.00000000000E+00  0.27355004432E+03  0.27355004432E+03  0.00000000000E+00 0. -1.
         22   -1    0    0    0    0 -0.00000000000E+00 -0.00000000000E+00 -0.87679385747E+03  0.87679385747E+03  0.00000000000E+00 0.  1.
        -24    2    1    2    0    0 -0.11332207526E+03 -0.29845356287E+02 -0.68929063885E+03  0.70377431909E+03  0.80274961056E+02 0.  0.
         25    2    1    2    0    0  0.11014887207E+03 -0.30791723460E+02 -0.12669631843E+03  0.21161347209E+03  0.12508956878E+03 0.  0.
         24    2    1    2    0    0  0.31732031980E+01  0.60637079747E+02  0.21274314413E+03  0.23495611060E+03  0.79106282169E+02 0.  0.
        -13    1    5    5    0    0  0.54381930599E+01 -0.45855674225E+01 -0.43009680975E+01  0.83126228664E+01  0.00000000000E+00 0.  1.
         14    1    5    5    0    0 -0.22649898618E+01  0.65222647170E+02  0.21704411222E+03  0.22664348774E+03  0.00000000000E+00 0. -1.
         13    1    3    3    0    0 -0.87621535256E+01 -0.31765085108E+02 -0.25239496894E+03  0.25453686631E+03  0.00000000000E+00 0. -1.
        -14    1    3    3    0    0 -0.10455992174E+03  0.19197288209E+01 -0.43689566991E+03  0.44923745278E+03  0.00000000000E+00 0.  1.
          5    1    4    4  501    0  0.98713799779E+02  0.23217160794E+02 -0.40728524652E+02  0.10936057764E+03  0.41800000000E+01 0.  1.
         -5    1    4    4    0  501  0.11435072287E+02 -0.54008884255E+02 -0.85967793776E+02  0.10225289445E+03  0.41800000000E+01 0.  1.
</event>
<event>
11    1  0.1078607E-008  0.7665070E+03  0.7561462E-02  0.8939655E-01
         22   -1    0    0    0    0  0.00000000000E+00  0.00000000000E+00  0.44953082578E+03  0.44953082578E+03  0.00000000000E+00 0.  1.
         22   -1    0    0    0    0 -0.00000000000E+00 -0.00000000000E+00 -0.20566848558E+04  0.20566848558E+04  0.00000000000E+00 0.  1.
        -24    2    1    2    0    0 -0.14137746612E+03 -0.60931593275E+02 -0.13122922886E+03  0.21792694897E+03  0.81060456413E+02 0.  0.
         25    2    1    2    0    0  0.28019741522E+03 -0.70012217890E+03 -0.12720794130E+04  0.14840872277E+04  0.12508880739E+03 0.  0.
         24    2    1    2    0    0 -0.13881994910E+03  0.76105377218E+03 -0.20384538822E+03  0.80420150490E+03  0.81934704336E+02 0.  0.
        -11    1    5    5    0    0 -0.40747317619E+02  0.37233133760E+03 -0.13054597616E+03  0.39665251889E+03  0.00000000000E+00 0.  1.
         12    1    5    5    0    0 -0.98072631484E+02  0.38872243458E+03 -0.73299412066E+02  0.40754898601E+03  0.00000000000E+00 0. -1.
         11    1    3    3    0    0 -0.85818422660E+01 -0.60337985463E+01  0.11379762231E+02  0.15477523381E+02  0.00000000000E+00 0. -1.
        -12    1    3    3    0    0 -0.13279562385E+03 -0.54897794729E+02 -0.14260899109E+03  0.20244942558E+03  0.00000000000E+00 0.  1.
          5    1    4    4  501    0  0.22789661379E+03 -0.54468492796E+03 -0.88740379622E+03  0.10658900071E+04  0.41800000000E+01 0.  1.
         -5    1    4    4    0  501  0.52300801431E+02 -0.15543725095E+03 -0.38467561676E+03  0.41819722063E+03  0.41800000000E+01 0.  1.
</event>
<event>
11    1  0.1078607E-008  0.1333506E+03  0.7561462E-02  0.1115219E+00
         22   -1    0    0    0    0  0.00000000000E+00  0.00000000000E+00  0.38213507753E+03  0.38213507753E+03  0.00000000000E+00 0.  1.
         22   -1    0    0    0    0 -0.00000000000E+00 -0.00000000000E+00 -0.99571799036E+03  0.99571799036E+03  0.00000000000E+00 0.  1.
        -24    2    1    2    0    0 -0.41111127748E+02  0.20536105187E+02 -0.94540320926E+03  0.95014252803E+03  0.82895953167E+02 0.  0.
         25    2    1    2    0    0  0.49406155254E+02 -0.31201532471E+02  0.71246273627E+02  0.15536417369E+03  0.12508993227E+03 0.  0.
         24    2    1    2    0    0 -0.82950275061E+01  0.10665427284E+02  0.26057402281E+03  0.27234636617E+03  0.78045903034E+02 0.  0.
        -13    1    5    5    0    0 -0.15242271861E+02 -0.44311653442E+01  0.25396727252E+03  0.25446284128E+03  0.00000000000E+00 0.  1.
         14    1    5    5    0    0  0.69472443546E+01  0.15096592628E+02  0.66067502850E+01  0.17883524888E+02  0.00000000000E+00 0. -1.
         13    1    3    3    0    0 -0.54817270620E+02 -0.12989361576E+02 -0.47060940912E+03  0.47396927392E+03  0.00000000000E+00 0. -1.
        -14    1    3    3    0    0  0.13706142872E+02  0.33525466763E+02 -0.47479380014E+03  0.47617325411E+03  0.00000000000E+00 0.  1.
          5    1    4    4  501    0  0.56810064695E+02 -0.73725551944E+02  0.37569633746E+02  0.10045790282E+03  0.41800000000E+01 0. -1.
         -5    1    4    4    0  501 -0.74039094409E+01  0.42524019473E+02  0.33676639881E+02  0.54906270870E+02  0.41800000000E+01 0. -1.
</event>
<event>
11    1  0.1078607E-008  0.1401272E+03  0.7561462E-02  0.1107416E+00
         22   -1    0    0    0    0  0.00000000000E+00  0.00000000000E+00  0.52590393498E+03  0.52590393498E+03  0.00000000000E+00 0. -1.
         22   -1    0    0    0    0 -0.00000000000E+00 -0.00000000000E+00 -0.98051888224E+02  0.98051888224E+02  0.00000000000E+00 0. -1.
         24    2    1    2    0    0  0.65500568623E+02  0.19686698761E+02 -0.10188557443E+02  0.10776362987E+03  0.82651694607E+02 0.  0.
         25    2    1    2    0    0 -0.72472351202E+01 -0.61912354805E+02  0.13656582856E+03  0.19540786077E+03  0.12509334286E+03 0.  0.
        -24    2    1    2    0    0 -0.58253333503E+02  0.42225656044E+02  0.30147477564E+03  0.32078433256E+03  0.82698795493E+02 0.  0.
        -11    1    3    3    0    0  0.14784152988E+02 -0.25036189633E+02  0.18336408494E+02  0.34374494140E+02  0.00000000000E+00 0.  1.
         12    1    3    3    0    0  0.50716415634E+02  0.44722888394E+02 -0.28524965936E+02  0.73389135727E+02  0.00000000000E+00 0. -1.
         13    1    5    5    0    0 -0.33206827396E+02  0.65604250351E+02  0.23104029581E+03  0.24245871677E+03  0.00000000000E+00 0. -1.
        -14    1    5    5    0    0 -0.25046506106E+02 -0.23378594307E+02  0.70434479836E+02  0.78325615795E+02  0.00000000000E+00 0.  1.
          5    1    4    4  501    0  0.27920485344E+02 -0.85142489361E+02  0.60030639633E+02  0.10793492063E+03  0.41800000000E+01 0.  1.
         -5    1    4    4    0  501 -0.35167720464E+02  0.23230134556E+02  0.76535188923E+02  0.87472940145E+02  0.41800000000E+01 0.  1.
</event>
<event>
11    1  0.1078607E-008  0.1804495E+03  0.7561462E-02  0.1069280E+00
         22   -1    0    0    0    0  0.00000000000E+00  0.00000000000E+00  0.13125287810E+04  0.13125287810E+04  0.00000000000E+00 0. -1.
         22   -1    0    0    0    0 -0.00000000000E+00 -0.00000000000E+00 -0.48032431347E+02  0.48032431347E+02  0.00000000000E+00 0.  1.
        -24    2    1    2    0    0 -0.21863974562E+02  0.13582579565E+03  0.23346329999E+03  0.28195722419E+03  0.77897905507E+02 0.  0.
         25    2    1    2    0    0  0.10468213673E+03 -0.88874069302E+02  0.51887312970E+03  0.55111966364E+03  0.12508640605E+03 0.  0.
         24    2    1    2    0    0 -0.82818162164E+02 -0.46951726344E+02  0.51215991997E+03  0.52748432453E+03  0.82877116332E+02 0.  0.
        -11    1    5    5    0    0 -0.65253505508E+02 -0.57627953990E+02  0.25395508604E+03  0.26846263574E+03  0.00000000000E+00 0.  1.
         12    1    5    5    0    0 -0.17564656656E+02  0.10676227645E+02  0.25820483393E+03  0.25902168879E+03  0.00000000000E+00 0. -1.
         11    1    3    3    0    0 -0.29309204274E+02  0.16794303568E+02  0.85375802772E+02  0.91815607532E+02  0.00000000000E+00 0. -1.
        -12    1    3    3    0    0  0.74452297122E+01  0.11903149208E+03  0.14808749722E+03  0.19014161666E+03  0.00000000000E+00 0.  1.
          5    1    4    4  501    0  0.94845294383E+02 -0.83671381737E+02  0.23423186436E+03  0.26623029255E+03  0.41800000000E+01 0.  1.
         -5    1    4    4    0  501  0.98368423432E+01 -0.52026875649E+01  0.28464126534E+03  0.28488937109E+03  0.41800000000E+01 0.  1.
</event>
<event>
11    1  0.1078607E-008  0.1255941E+03  0.7561462E-02  0.1124804E+00
         22   -1    0    0    0    0  0.00000000000E+00  0.00000000000E+00  0.41606117698E+03  0.41606117698E+03  0.00000000000E+00 0.  1.
         22   -1    0    0    0    0 -0.00000000000E+00 -0.00000000000E+00 -0.12378807562E+03  0.12378807562E+03  0.00000000000E+00 0. -1.
        -24    2    1    2    0    0 -0.24729228159E+02  0.79937132105E+01 -0.59448383110E+02  0.99247883711E+02  0.75103914615E+02 0.  0.
         25    2    1    2    0    0  0.23768178220E+02  0.40907288244E+01  0.66178676413E+02  0.14355504892E+03  0.12508706767E+03 0.  0.
         24    2    1    2    0    0  0.96104993915E+00 -0.12084442035E+02  0.28554280806E+03  0.29704631998E+03  0.80962112266E+02 0.  0.
        -13    1    5    5    0    0 -0.18848231169E+02  0.17865601090E+02  0.22619395297E+03  0.22767990663E+03  0.00000000000E+00 0.  1.
         14    1    5    5    0    0  0.19809281108E+02 -0.29950043125E+02  0.59348855087E+02  0.69366413353E+02  0.00000000000E+00 0. -1.
         11    1    3    3    0    0 -0.33903013296E+02  0.20796480694E+02 -0.69845101981E+02  0.80375656703E+02  0.00000000000E+00 0. -1.
        -12    1    3    3    0    0  0.91737851363E+01 -0.12802767483E+02  0.10396718871E+02  0.18872227008E+02  0.00000000000E+00 0.  1.
          5    1    4    4  501    0 -0.16597741262E+02  0.57646210728E+02  0.29001469259E+02  0.66761727400E+02  0.41800000000E+01 0. -1.
         -5    1    4    4    0  501  0.40365919482E+02 -0.53555481904E+02  0.37177207154E+02  0.76793321515E+02  0.41800000000E+01 0. -1.
</event>
<event>
11    1  0.1078607E-008  0.1628220E+03  0.7561462E-02  0.1084453E+00
         22   -1    0    0    0    0  0.00000000000E+00  0.00000000000E+00  0.16180490247E+04  0.16180490247E+04  0.00000000000E+00 0. -1.
         22   -1    0    0    0    0 -0.00000000000E+00 -0.00000000000E+00 -0.22714404199E+03  0.22714404199E+03  0.00000000000E+00 0.  1.
        -24    2    1    2    0    0 -0.19196300945E+01 -0.46083259955E+02 -0.19384804278E+03  0.21428837894E+03  0.78835866410E+02 0.  0.
         25    2    1    2    0    0 -0.98365485233E+02  0.68534275847E+02  0.36334621784E+03  0.40254309003E+03  0.12509096554E+03 0.  0.
         24    2    1    2    0    0  0.10028511533E+03 -0.22451015892E+02  0.12214068076E+04  0.12283615977E+04  0.80476534176E+02 0.  0.
        -13    1    5    5    0    0 -0.63832083411E+01 -0.21535023515E+02  0.15249460741E+03  0.15413989709E+03  0.00000000000E+00 0.  1.
         14    1    5    5    0    0  0.10666832367E+03 -0.91599237685E+00  0.10689122002E+04  0.10742217006E+04  0.00000000000E+00 0. -1.
         11    1    3    3    0    0  0.36651522414E+02 -0.35079555784E+02 -0.97092199809E+02  0.10954818389E+03  0.00000000000E+00 0. -1.
        -12    1    3    3    0    0 -0.38571152508E+02 -0.11003704171E+02 -0.96755842966E+02  0.10474019505E+03  0.00000000000E+00 0.  1.
          5    1    4    4  501    0 -0.10100163687E+03 -0.21123232739E+01  0.23774024079E+03  0.25834799603E+03  0.41800000000E+01 0. -1.
         -5    1    4    4    0  501  0.26361516403E+01  0.70646599121E+02  0.12560597706E+03  0.14419509400E+03  0.41800000000E+01 0. -1.
</event>
<event>
11    1  0.1078607E-008  0.1372018E+03  0.7561462E-02  0.1110724E+00
         22   -1    0    0    0    0  0.00000000000E+00  0.00000000000E+00  0.26301526808E+03  0.26301526808E+03  0.00000000000E+00 0.  1.
         22   -1    0    0    0    0 -0.00000000000E+00 -0.00000000000E+00 -0.19128448592E+04  0.19128448592E+04  0.00000000000E+00 0.  1.
        -24    2    1    2    0    0  0.30418374138E+02 -0.46226603165E+02 -0.17867651738E+04  0.17894201805E+04  0.80203613582E+02 0.  0.
         25    2    1    2    0    0 -0.44676403393E+02  0.89586298753E+02 -0.58613861420E+02  0.17060300490E+03  0.12509242417E+03 0.  0.
         24    2    1    2    0    0  0.14258029254E+02 -0.43359695587E+02  0.19554944414E+03  0.21583694186E+03  0.79136879952E+02 0.  0.
        -13    1    5    5    0    0  0.43114672531E+01 -0.17804370498E+02  0.18584803017E+03  0.18674869391E+03  0.00000000000E+00 0.  1.
         14    1    5    5    0    0  0.99465620012E+01 -0.25555325089E+02  0.97014139759E+01  0.29088247957E+02  0.00000000000E+00 0. -1.
         13    1    3    3    0    0 -0.16147763816E+02 -0.30763766421E+02 -0.32900276718E+03  0.33083225419E+03  0.00000000000E+00 0. -1.
        -14    1    3    3    0    0  0.46566137955E+02 -0.15462836745E+02 -0.14577624066E+04  0.14585879263E+04  0.00000000000E+00 0.  1.
          5    1    4    4  501    0  0.19968067705E+02  0.84324133511E+02 -0.60189024168E+02  0.10559107089E+03  0.41800000000E+01 0.  1.
         -5    1    4    4    0  501 -0.64644471098E+02  0.52621652413E+01  0.15751627486E+01  0.65011934014E+02  0.41800000000E+01 0.  1.
</event>
<event>
11    1  0.1078607E-008  0.1553549E+03  0.7561462E-02  0.1091529E+00
         22   -1    0    0    0    0  0.00000000000E+00  0.00000000000E+00  0.84842996975E+03  0.84842996975E+03  0.00000000000E+00 0.  1.
         22   -1    0    0    0    0 -0.00000000000E+00 -0.00000000000E+00 -0.17620798869E+03  0.17620798869E+03  0.00000000000E+00 0. -1.
         24    2    1    2    0    0  0.10087731797E+03 -0.18861503962E+02 -0.11694055511E+03  0.17651567388E+03  0.83370858706E+02 0.  0.
         25    2    1    2    0    0 -0.33066520916E+02 -0.30994567201E+02  0.15815075714E+03  0.20667315377E+03  0.12509225596E+03 0.  0.
        -24    2    1    2    0    0 -0.67810797056E+02  0.49856071163E+02  0.63101177903E+03  0.64144913079E+03  0.78722233774E+02 0.  0.
        -13    1    3    3    0    0  0.99344481389E+01 -0.57863585645E+01  0.13012436447E+02  0.17363718137E+02  0.00000000000E+00 0.  1.
         14    1    3    3    0    0  0.90942869833E+02 -0.13075145398E+02 -0.12995299156E+03  0.15915195574E+03  0.00000000000E+00 0. -1.
         11    1    5    5    0    0 -0.28188941205E+02  0.15273925513E+02  0.60071491540E+02  0.68091800554E+02  0.00000000000E+00 0. -1.
        -12    1    5    5    0    0 -0.39621855851E+02  0.34582145650E+02  0.57094028749E+03  0.57335733024E+03  0.00000000000E+00 0.  1.
          5    1    4    4  501    0  0.20463933878E+02 -0.58344576736E+02  0.12082804420E+03  0.13579304433E+03  0.41800000000E+01 0.  1.
         -5    1    4    4    0  501 -0.53530454794E+02  0.27350009535E+02  0.37322712947E+02  0.70880109437E+02  0.41800000000E+01 0.  1.
</event>
<event>
11    1  0.1078607E-008  0.1467485E+03  0.7561462E-02  0.1100248E+00
         22   -1    0    0    0    0  0.00000000000E+00  0.00000000000E+00  0.89614185151E+03  0.89614185151E+03  0.00000000000E+00 0. -1.
         22   -1    0    0    0    0 -0.00000000000E+00 -0.00000000000E+00 -0.39939092433E+03  0.39939092433E+03  0.00000000000E+00 0. -1.
         24    2    1    2    0    0  0.49376586887E+02 -0.44962894004E+02 -0.32387993662E+03  0.34030659405E+03  0.80315972526E+02 0.  0.
         25    2    1    2    0    0 -0.36183789163E+02  0.11839479569E+03  0.58744756790E+02  0.18553729491E+03  0.12508615874E+03 0.  0.
        -24    2    1    2    0    0 -0.13192797724E+02 -0.73431901684E+02  0.76188610701E+03  0.76968888688E+03  0.79901492106E+02 0.  0.
        -13    1    3    3    0    0  0.46198022725E+02  0.21619828456E+01 -0.84664167698E+02  0.96472549285E+02  0.00000000000E+00 0.  1.
         14    1    3    3    0    0  0.31785641623E+01 -0.47124876850E+02 -0.23921576892E+03  0.24383404477E+03  0.00000000000E+00 0. -1.
         13    1    5    5    0    0  0.28859094591E+02 -0.56893347434E+02  0.41582393650E+03  0.42068901399E+03  0.00000000000E+00 0. -1.
        -14    1    5    5    0    0 -0.42051892315E+02 -0.16538554250E+02  0.34606217050E+03  0.34899987289E+03  0.00000000000E+00 0.  1.
          5    1    4    4  501    0  0.53951883775E+00 -0.15368800116E+01 -0.30955172580E+02  0.31278557995E+02  0.41800000000E+01 0. -1.
         -5    1    4    4    0  501 -0.36723308001E+02  0.11993167570E+03  0.89699929371E+02  0.15425873692E+03  0.41800000000E+01 0. -1.
</event>
<event>
11    1  0.1078607E-008  0.1383014E+03  0.7561462E-02  0.1109470E+00
         22   -1    0    0    0    0  0.00000000000E+00  0.00000000000E+00  0.12068929655E+04  0.12068929655E+04  0.00000000000E+00 0.  1.
         22   -1    0    0    0    0 -0.00000000000E+00 -0.00000000000E+00 -0.53493108383E+03  0.53493108383E+03  0.00000000000E+00 0.  1.
         24    2    1    2    0    0  0.49735535862E+02  0.30862732137E+02 -0.44608229482E+03  0.45670150404E+03  0.78490243218E+02 0.  0.
         25    2    1    2    0    0 -0.36532058758E+02 -0.61931896706E+02 -0.18292067901E+02  0.14543912775E+03  0.12509112273E+03 0.  0.
        -24    2    1    2    0    0 -0.13203477104E+02  0.31069164569E+02  0.11363362444E+04  0.11396834175E+04  0.80489794995E+02 0.  0.
        -11    1    3    3    0    0  0.40816110000E+02  0.25425408146E+02 -0.10531522747E+03  0.11577436397E+03  0.00000000000E+00 0.  1.
         12    1    3    3    0    0  0.89194258620E+01  0.54373239907E+01 -0.34076706735E+03  0.34092714007E+03  0.00000000000E+00 0. -1.
         13    1    5    5    0    0 -0.22403188953E+02  0.53403635272E+02  0.59586136637E+03  0.59866903968E+03  0.00000000000E+00 0. -1.
        -14    1    5    5    0    0  0.91997118491E+01 -0.22334470704E+02  0.54047487803E+03  0.54101437787E+03  0.00000000000E+00 0.  1.
          5    1    4    4  501    0  0.26394852508E+02 -0.60459881457E+02 -0.41696435457E+02  0.78154658431E+02  0.41800000000E+01 0.  1.
         -5    1    4    4    0  501 -0.62926911266E+02 -0.14720152490E+01  0.23404367557E+02  0.67284469315E+02  0.41800000000E+01 0.  1.
</event>
<event>
11    1  0.1078607E-008  0.1251791E+03  0.7561462E-02  0.1125338E+00
         22   -1    0    0    0    0  0.00000000000E+00  0.00000000000E+00  0.40774137009E+03  0.40774137009E+03  0.00000000000E+00 0.  1.
         22   -1    0    0    0    0 -0.00000000000E+00 -0.00000000000E+00 -0.30630270674E+03  0.30630270674E+03  0.00000000000E+00 0. -1.
        -24    2    1    2    0    0 -0.15597974172E+01 -0.13617177610E+00 -0.23000990273E+03  0.25040817973E+03  0.98981056816E+02 0.  0.
         25    2    1    2    0    0 -0.27623713853E+02  0.34269102147E+02  0.14445441420E+02  0.13339314424E+03  0.12509044417E+03 0.  0.
         24    2    1    2    0    0  0.29183511270E+02 -0.34132930371E+02  0.31700312465E+03  0.33024275286E+03  0.80947887638E+02 0.  0.
        -11    1    5    5    0    0 -0.16299921673E+02 -0.84034905482E+01  0.21359515226E+03  0.21438095804E+03  0.00000000000E+00 0.  1.
         12    1    5    5    0    0  0.45483432943E+02 -0.25729439822E+02  0.10340797240E+03  0.11586179483E+03  0.00000000000E+00 0. -1.
         11    1    3    3    0    0  0.27030573836E+02  0.37180747016E+02 -0.15684423918E+03  0.16344165697E+03  0.00000000000E+00 0. -1.
        -12    1    3    3    0    0 -0.28590371253E+02 -0.37316918793E+02 -0.73165663553E+02  0.86966522753E+02  0.00000000000E+00 0.  1.
          5    1    4    4  501    0 -0.75180176256E+02  0.41478971787E+01  0.15261441100E+02  0.76939248354E+02  0.41800000000E+01 0.  1.
         -5    1    4    4    0  501  0.47556462403E+02  0.30121204968E+02 -0.81599967983E+00  0.56453895884E+02  0.41800000000E+01 0.  1.
</event>
<event>
11    1  0.1078607E-008  0.1670500E+03  0.7561462E-02  0.1080628E+00
         22   -1    0    0    0    0  0.00000000000E+00  0.00000000000E+00  0.16661944708E+04  0.16661944708E+04  0.00000000000E+00 0. -1.
         22   -1    0    0    0    0 -0.00000000000E+00 -0.00000000000E+00 -0.92064041130E+03  0.92064041130E+03  0.00000000000E+00 0.  1.
         24    2    1    2    0    0  0.10878461510E+03  0.17324637154E+02 -0.86662322850E+03  0.87727279452E+03  0.80234034515E+02 0.  0.
         25    2    1    2    0    0 -0.14146213404E+03  0.49177383542E+02  0.15760652484E+03  0.25082980143E+03  0.12508326104E+03 0.  0.
        -24    2    1    2    0    0  0.32677518940E+02 -0.66502020695E+02  0.14545707632E+04  0.14587322862E+04  0.81445924488E+02 0.  0.
        -11    1    3    3    0    0  0.12810409077E+02  0.21606049062E+02 -0.40398424870E+03  0.40476437730E+03  0.00000000000E+00 0.  1.
         12    1    3    3    0    0  0.95974206022E+02 -0.42814119079E+01 -0.46263897980E+03  0.47250841722E+03  0.00000000000E+00 0. -1.
         13    1    5    5    0    0  0.27224539278E+02 -0.75557239069E+02  0.14261487812E+04  0.14284083513E+04  0.00000000000E+00 0. -1.
        -14    1    5    5    0    0  0.54529796615E+01  0.90552183739E+01  0.28421981985E+02  0.30323934885E+02  0.00000000000E+00 0.  1.
          5    1    4    4  501    0 -0.14153130600E+03  0.79593202146E+02  0.11825097967E+03  0.20091529310E+03  0.41800000000E+01 0.  1.
         -5    1    4    4    0  501  0.69171964588E-01 -0.30415818604E+02  0.39355545170E+02  0.49914508330E+02  0.41800000000E+01 0.  1.
</event>
<event>
11    1  0.1078607E-008  0.1640382E+03  0.7561462E-02  0.1083340E+00
         22   -1    0    0    0    0  0.00000000000E+00  0.00000000000E+00  0.16678569499E+03  0.16678569499E+03  0.00000000000E+00 0. -1.
         22   -1    0    0    0    0 -0.00000000000E+00 -0.00000000000E+00 -0.69152920006E+03  0.69152920006E+03  0.00000000000E+00 0. -1.
        -24    2    1    2    0    0  0.16804870325E+02 -0.90857300749E+02 -0.37907159847E+03  0.40022933090E+03  0.89167190056E+02 0.  0.
         25    2    1    2    0    0 -0.47671842189E+02  0.14398889855E+03 -0.24651065786E+03  0.31530988916E+03  0.12508962516E+03 0.  0.
         24    2    1    2    0    0  0.30866971863E+02 -0.53131597805E+02  0.10083875125E+03  0.14277567498E+03  0.80253990399E+02 0.  0.
        -11    1    5    5    0    0 -0.94581565088E+01 -0.18172795219E+01  0.69882330316E+02  0.70542889931E+02  0.00000000000E+00 0.  1.
         12    1    5    5    0    0  0.40325128372E+02 -0.51314318283E+02  0.30956420938E+02  0.72232785052E+02  0.00000000000E+00 0. -1.
         11    1    3    3    0    0  0.34872009100E+02 -0.81546999874E+02 -0.36471868064E+03  0.37534742068E+03  0.00000000000E+00 0. -1.
        -12    1    3    3    0    0 -0.18067138775E+02 -0.93103008759E+01 -0.14352917831E+02  0.24881910220E+02  0.00000000000E+00 0.  1.
          5    1    4    4  501    0 -0.59374689713E+02  0.33607952846E+02 -0.35914481302E+02  0.77215093345E+02  0.41800000000E+01 0.  1.
         -5    1    4    4    0  501  0.11702847525E+02  0.11038094571E+03 -0.21059617656E+03  0.23809479582E+03  0.41800000000E+01 0.  1.
</event>
<event>
11    1  0.1078607E-008  0.1558616E+03  0.7561462E-02  0.1091035E+00
         22   -1    0    0    0    0  0.00000000000E+00  0.00000000000E+00  0.24954481385E+04  0.24954481385E+04  0.00000000000E+00 0. -1.
         22   -1    0    0    0    0 -0.00000000000E+00 -0.00000000000E+00 -0.48550458264E+03  0.48550458264E+03  0.00000000000E+00 0.  1.
         24    2    1    2    0    0  0.12404363998E+02 -0.40224113530E+02 -0.39679189656E+03  0.40696812551E+03  0.80046226959E+02 0.  0.
         25    2    1    2    0    0 -0.10182530706E+03  0.64122635202E+02  0.97189646667E+01  0.17384537259E+03  0.12509056636E+03 0.  0.
        -24    2    1    2    0    0  0.89420943065E+02 -0.23898521673E+02  0.23970164877E+04  0.24001392230E+04  0.80081228100E+02 0.  0.
        -13    1    3    3    0    0  0.38257930397E+01 -0.64437953901E+02 -0.29564979236E+03  0.30261474901E+03  0.00000000000E+00 0.  1.
         14    1    3    3    0    0  0.85785709586E+01  0.24213840371E+02 -0.10114210420E+03  0.10435337650E+03  0.00000000000E+00 0. -1.
         13    1    5    5    0    0  0.85253216499E+02 -0.31575638191E+02  0.23700528140E+04  0.23717958329E+04  0.00000000000E+00 0. -1.
        -14    1    5    5    0    0  0.41677265664E+01  0.76771165187E+01  0.26963673741E+02  0.28343390135E+02  0.00000000000E+00 0.  1.
          5    1    4    4  501    0  0.23577176861E+02  0.33278593137E+02 -0.12238017138E+02  0.42785388784E+02  0.41800000000E+01 0. -1.
         -5    1    4    4    0  501 -0.12540248392E+03  0.30844042065E+02  0.21956981804E+02  0.13105998381E+03  0.41800000000E+01 0. -1.
</event>
<event>
11    1  0.1078607E-008  0.1573955E+03  0.7561462E-02  0.1089553E+00
         22   -1    0    0    0    0  0.00000000000E+00  0.00000000000E+00  0.80805117986E+03  0.80805117986E+03  0.00000000000E+00 0. -1.
         22   -1    0    0    0    0 -0.00000000000E+00 -0.00000000000E+00 -0.34936967974E+03  0.34936967974E+03  0.00000000000E+00 0.  1.
        -24    2    1    2    0    0 -0.22504406359E+02  0.18346948787E+02 -0.27304977125E+03  0.28483272172E+03  0.75699689230E+02 0.  0.
         25    2    1    2    0    0  0.86949000078E+02  0.51947248555E+02  0.34900582443E+02  0.16469739493E+03  0.12509410855E+03 0.  0.
         24    2    1    2    0    0 -0.64444593720E+02 -0.70294197342E+02  0.69683068892E+03  0.70789074295E+03  0.80261541799E+02 0.  0.
        -13    1    5    5    0    0 -0.41628190817E+02 -0.14311652009E+02  0.11855155325E+03  0.12646027215E+03  0.00000000000E+00 0.  1.
         14    1    5    5    0    0 -0.22816402902E+02 -0.55982545333E+02  0.57827913567E+03  0.58143047080E+03  0.00000000000E+00 0. -1.
         11    1    3    3    0    0  0.11794252758E+02  0.39145778939E+02 -0.13145945869E+03  0.13767020623E+03  0.00000000000E+00 0. -1.
        -12    1    3    3    0    0 -0.34298659117E+02 -0.20798830152E+02 -0.14159031256E+03  0.14716251549E+03  0.00000000000E+00 0.  1.
          5    1    4    4  501    0  0.10043996040E+03 -0.35858276732E+01  0.66489494042E+01  0.10081034041E+03  0.41800000000E+01 0.  1.
         -5    1    4    4    0  501 -0.13490960321E+02  0.55533076228E+02  0.28251633039E+02  0.63887054519E+02  0.41800000000E+01 0.  1.
</event>
<event>
11    1  0.1078607E-008  0.1762033E+03  0.7561462E-02  0.1072756E+00
         22   -1    0    0    0    0  0.00000000000E+00  0.00000000000E+00  0.11647029801E+04  0.11647029801E+04  0.00000000000E+00 0.  1.
         22   -1    0    0    0    0 -0.00000000000E+00 -0.00000000000E+00 -0.49898409629E+03  0.49898409629E+03  0.00000000000E+00 0. -1.
        -24    2    1    2    0    0 -0.85126574770E+01  0.11457479885E+01 -0.44124455815E+03  0.45021489754E+03  0.89010762259E+02 0.  0.
         25    2    1    2    0    0 -0.11334527449E+03  0.26631116330E+02  0.10518515257E+03  0.20066778727E+03  0.12508907595E+03 0.  0.
         24    2    1    2    0    0  0.12185793196E+03 -0.27776864318E+02  0.10017782894E+04  0.10128043916E+04  0.81191654375E+02 0.  0.
        -13    1    5    5    0    0  0.92039692663E+02 -0.44403464552E+02  0.89213592230E+03  0.89796964122E+03  0.00000000000E+00 0.  1.
         14    1    5    5    0    0  0.29818239300E+02  0.16626600234E+02  0.10964236711E+03  0.11483475038E+03  0.00000000000E+00 0. -1.
         11    1    3    3    0    0 -0.16726246226E+02 -0.38616361153E+02 -0.30972377511E+03  0.31256968428E+03  0.00000000000E+00 0. -1.
        -12    1    3    3    0    0  0.82135887487E+01  0.39762109141E+02 -0.13152078304E+03  0.13764521326E+03  0.00000000000E+00 0.  1.
          5    1    4    4  501    0 -0.27229061184E+02 -0.59382020676E+01 -0.27328063187E+02  0.39255311161E+02  0.41800000000E+01 0.  1.
         -5    1    4    4    0  501 -0.86116213302E+02  0.32569318398E+02  0.13251321576E+03  0.16141247611E+03  0.41800000000E+01 0.  1.
</event>
<event>
11    1  0.1078607E-008  0.1913053E+03  0.7561462E-02  0.1060848E+00
         22   -1    0    0    0    0  0.00000000000E+00  0.00000000000E+00  0.22768481164E+03  0.22768481164E+03  0.00000000000E+00 0.  1.
         22   -1    0    0    0    0 -0.00000000000E+00 -0.00000000000E+00 -0.72540463255E+03  0.72540463255E+03  0.00000000000E+00 0. -1.
         24    2    1    2    0    0 -0.14291725784E+03 -0.35100814091E+02 -0.37078549991E+03  0.40695065424E+03  0.80433440243E+02 0.  0.
         25    2    1    2    0    0  0.14696336793E+03 -0.33419457866E+02 -0.29057538756E+03  0.35042438907E+03  0.12509238554E+03 0.  0.
        -24    2    1    2    0    0 -0.40461100945E+01  0.68520271957E+02  0.16364106656E+03  0.19571440088E+03  0.82548951379E+02 0.  0.
        -13    1    3    3    0    0 -0.61906999470E+02 -0.38819652589E+02 -0.25725364610E+03  0.26743014123E+03  0.00000000000E+00 0.  1.
         14    1    3    3    0    0 -0.81010258366E+02  0.37188384975E+01 -0.11353185381E+03  0.13952051301E+03  0.00000000000E+00 0. -1.
         13    1    5    5    0    0  0.32730800405E+02  0.32025109481E+02  0.36957674767E+02  0.58845413216E+02  0.00000000000E+00 0. -1.
        -14    1    5    5    0    0 -0.36776910499E+02  0.36495162477E+02  0.12668339179E+03  0.13686898767E+03  0.00000000000E+00 0.  1.
          5    1    4    4  501    0  0.68943722671E+02 -0.14775369015E+02 -0.28243764160E+02  0.76070566182E+02  0.41800000000E+01 0. -1.
         -5    1    4    4    0  501  0.78019645259E+02 -0.18644088851E+02 -0.26233162340E+03  0.27435382289E+03  0.41800000000E+01 0. -1.
</event>
<event>
11    1  0.1078607E-008  0.1827706E+03  0.7561462E-02  0.1067424E+00
         22   -1    0    0    0    0  0.00000000000E+00  0.00000000000E+00  0.11327742158E+04  0.11327742158E+04  0.00000000000E+00 0. -1.
         22   -1    0    0    0    0 -0.00000000000E+00 -0.00000000000E+00 -0.16272167849E+04  0.16272167849E+04  0.00000000000E+00 0.  1.
        -24    2    1    2    0    0 -0.13294631896E+03  0.91742866046E+01 -0.15401001245E+04  0.15479691688E+04  0.80878074716E+02 0.  0.
         25    2    1    2    0    0  0.12907413331E+03 -0.59292496699E+02  0.29682183056E+02  0.19158226651E+03  0.12508797223E+03 0.  0.
         24    2    1    2    0    0  0.38721856543E+01  0.50118210094E+02  0.10159753724E+04  0.10204395653E+04  0.81019259881E+02 0.  0.
        -11    1    5    5    0    0  0.61553683925E+01 -0.19179872858E+02  0.11107312311E+03  0.11288487393E+03  0.00000000000E+00 0.  1.
         12    1    5    5    0    0 -0.22831827382E+01  0.69298082952E+02  0.90490224924E+03  0.90755469141E+03  0.00000000000E+00 0. -1.
         11    1    3    3    0    0 -0.37941878530E+02  0.28621520757E+02 -0.26827157259E+03  0.27244892046E+03  0.00000000000E+00 0. -1.
        -12    1    3    3    0    0 -0.95004440431E+02 -0.19447234152E+02 -0.12718285519E+04  0.12755202484E+04  0.00000000000E+00 0.  1.
          5    1    4    4  501    0  0.87726514651E+02 -0.86096687662E+02  0.56478699325E+02  0.13533623638E+03  0.41800000000E+01 0.  1.
         -5    1    4    4    0  501  0.41347618656E+02  0.26804190964E+02 -0.26796516269E+02  0.56246030134E+02  0.41800000000E+01 0.  1.
</event>
<event>
11    1  0.1078607E-008  0.2239493E+03  0.7561462E-02  0.1038771E+00
         22   -1    0    0    0    0  0.00000000000E+00  0.00000000000E+00  0.95209637654E+03  0.95209637654E+03  0.00000000000E+00 0.  1.
         22   -1    0    0    0    0 -0.00000000000E+00 -0.00000000000E+00 -0.27985550060E+04  0.27985550060E+04  0.00000000000E+00 0.  1.
        -24    2    1    2    0    0 -0.18552266055E+03  0.10140082851E+02 -0.27439353760E+04  0.27513201280E+04  0.77843561940E+02 0.  0.
         25    2    1    2    0    0  0.18396218629E+03  0.15990540957E+02  0.20877849980E+03  0.30550550725E+03  0.12508944637E+03 0.  0.
         24    2    1    2    0    0  0.15604742516E+01 -0.26130623809E+02  0.68869824674E+03  0.69382574730E+03  0.80022796635E+02 0.  0.
        -13    1    5    5    0    0 -0.35021789138E+02 -0.16404175879E+01  0.42828434063E+03  0.42971699188E+03  0.00000000000E+00 0.  1.
         14    1    5    5    0    0  0.36582263390E+02 -0.24490206221E+02  0.26041390611E+03  0.26410875542E+03  0.00000000000E+00 0. -1.
         11    1    3    3    0    0  0.36145434871E+00 -0.10244132821E+02 -0.32735423466E+03  0.32751468342E+03  0.00000000000E+00 0. -1.
        -12    1    3    3    0    0 -0.18588411489E+03  0.20384215672E+02 -0.24165811413E+04  0.24238054445E+04  0.00000000000E+00 0.  1.
          5    1    4    4  501    0  0.79324315178E+02 -0.82909565461E+01  0.11296985130E+02  0.80660902623E+02  0.41800000000E+01 0.  1.
         -5    1    4    4    0  501  0.10463787112E+03  0.24281497504E+02  0.19748151467E+03  0.22484460463E+03  0.41800000000E+01 0.  1.
</event>
<event>
11    1  0.1078607E-008  0.1929640E+03  0.7561462E-02  0.1059614E+00
         22   -1    0    0    0    0  0.00000000000E+00  0.00000000000E+00  0.31310676526E+04  0.31310676526E+04  0.00000000000E+00 0.  1.
         22   -1    0    0    0    0 -0.00000000000E+00 -0.00000000000E+00 -0.10874152347E+04  0.10874152347E+04  0.00000000000E+00 0. -1.
        -24    2    1    2    0    0 -0.45694816427E+02  0.88691143456E+01 -0.96131277841E+03  0.96582964522E+03  0.80857703409E+02 0.  0.
         25    2    1    2    0    0 -0.23966215450E+01  0.13037857470E+03 -0.54317902152E+02  0.18872010774E+03  0.12514203146E+03 0.  0.
         24    2    1    2    0    0  0.48091437972E+02 -0.13924768904E+03  0.30592830985E+04  0.30639331343E+04  0.82282861888E+02 0.  0.
        -13    1    5    5    0    0  0.62104368174E+02 -0.63428176926E+02  0.13530950746E+04  0.13560038227E+04  0.00000000000E+00 0.  1.
         14    1    5    5    0    0 -0.14012930202E+02 -0.75819512117E+02  0.17061880239E+04  0.17079293116E+04  0.00000000000E+00 0. -1.
         11    1    3    3    0    0  0.40806959641E+01  0.35871436799E+02 -0.32365957446E+03  0.32566690375E+03  0.00000000000E+00 0. -1.
        -12    1    3    3    0    0 -0.49775512391E+02 -0.27002322453E+02 -0.63765320395E+03  0.64016274146E+03  0.00000000000E+00 0.  1.
          5    1    4    4  501    0  0.41701711622E+02  0.93787225576E+01  0.10890729330E+02  0.44306586128E+02  0.41800000000E+01 0. -1.
         -5    1    4    4    0  501 -0.44098333167E+02  0.12099985214E+03 -0.65208631482E+02  0.14441352162E+03  0.41800000000E+01 0. -1.
</event>
<event>
11    1  0.1078607E-008  0.1854357E+03  0.7561462E-02  0.1065329E+00
         22   -1    0    0    0    0  0.00000000000E+00  0.00000000000E+00  0.69322362920E+03  0.69322362920E+03  0.00000000000E+00 0.  1.
         22   -1    0    0    0    0 -0.00000000000E+00 -0.00000000000E+00 -0.43717386659E+03  0.43717386659E+03  0.00000000000E+00 0. -1.
        -24    2    1    2    0    0 -0.12447712120E+03 -0.30488980031E+02 -0.28977181971E+03  0.32730942546E+03  0.82095194057E+02 0.  0.
         25    2    1    2    0    0  0.17378125785E+03  0.59329452504E+02 -0.25133159170E+02  0.22360529236E+03  0.12509093319E+03 0.  0.
         24    2    1    2    0    0 -0.49304136653E+02 -0.28840472472E+02  0.57095474149E+03  0.57948277797E+03  0.80921581725E+02 0.  0.
        -11    1    5    5    0    0 -0.41872928729E+02 -0.52533385447E+02  0.49583816955E+03  0.50036845337E+03  0.00000000000E+00 0.  1.
         12    1    5    5    0    0 -0.74312079237E+01  0.23692912974E+02  0.75116571938E+02  0.79114324595E+02  0.00000000000E+00 0. -1.
         13    1    3    3    0    0 -0.12120395892E+03 -0.11046179827E+02 -0.27999415442E+03  0.30530172658E+03  0.00000000000E+00 0. -1.
        -14    1    3    3    0    0 -0.32731622811E+01 -0.19442800204E+02 -0.97776652956E+01  0.22007698874E+02  0.00000000000E+00 0.  1.
          5    1    4    4  501    0  0.50301989952E+02 -0.35738989616E+02 -0.27521740665E+02  0.67694048344E+02  0.41800000000E+01 0.  1.
         -5    1    4    4    0  501  0.12347926790E+03  0.95068442120E+02  0.23885814949E+01  0.15591124401E+03  0.41800000000E+01 0.  1.
</event>
<event>
11    1  0.1078607E-008  0.1390438E+03  0.7561462E-02  0.1108631E+00
         22   -1    0    0    0    0  0.00000000000E+00  0.00000000000E+00  0.45981573696E+03  0.45981573696E+03  0.00000000000E+00 0. -1.
         22   -1    0    0    0    0 -0.00000000000E+00 -0.00000000000E+00 -0.59057287918E+03  0.59057287918E+03  0.00000000000E+00 0. -1.
        -24    2    1    2    0    0  0.54810455710E+02 -0.23736869579E+02 -0.30357836915E+03  0.32024034956E+03  0.82622213966E+02 0.  0.
         25    2    1    2    0    0 -0.30999349462E+02 -0.33187886436E+02 -0.25590025073E+03  0.28843544694E+03  0.12509066014E+03 0.  0.
         24    2    1    2    0    0 -0.23811106248E+02  0.56924756015E+02  0.42872147766E+03  0.44171281964E+03  0.86606656783E+02 0.  0.
        -11    1    5    5    0    0  0.14239222125E+02  0.38723858315E+02  0.75989392843E+02  0.86467800216E+02  0.00000000000E+00 0.  1.
         12    1    5    5    0    0 -0.38050328373E+02  0.18200897700E+02  0.35273208481E+03  0.35524501942E+03  0.00000000000E+00 0. -1.
         13    1    3    3    0    0  0.24619768333E+02  0.15309085420E+02 -0.22887949841E+03  0.23070831342E+03  0.00000000000E+00 0. -1.
        -14    1    3    3    0    0  0.30190687377E+02 -0.39045954999E+02 -0.74698870739E+02  0.89532036142E+02  0.00000000000E+00 0.  1.
          5    1    4    4  501    0  0.69174079658E+01 -0.63196123586E+02 -0.63287800201E+02  0.89802108124E+02  0.41800000000E+01 0. -1.
         -5    1    4    4    0  501 -0.37916757428E+02  0.30008237150E+02 -0.19261245053E+03  0.19863333882E+03  0.41800000000E+01 0. -1.
</event>
<event>
11    1  0.1078607E-008  0.1861118E+03  0.7561462E-02  0.1064804E+00
         22   -1    0    0    0    0  0.00000000000E+00  0.00000000000E+00  0.14123136372E+04  0.14123136372E+04  0.00000000000E+00 0. -1.
         22   -1    0    0    0    0 -0.00000000000E+00 -0.00000000000E+00 -0.30778621264E+03  0.30778621264E+03  0.00000000000E+00 0. -1.
        -24    2    1    2    0    0  0.10385328775E+03 -0.11006666034E+03 -0.24586355750E+03  0.29953667225E+03  0.79832036319E+02 0.  0.
         25    2    1    2    0    0 -0.76954928306E+02 -0.75958116774E+01  0.14531643588E+03  0.20674764367E+03  0.12509182340E+03 0.  0.
         24    2    1    2    0    0 -0.26898359440E+02  0.11766247202E+03  0.12050745462E+04  0.12138155339E+04  0.81089515239E+02 0.  0.
        -11    1    5    5    0    0 -0.61286891398E+01  0.10552478197E+03  0.67781092360E+03  0.68600341733E+03  0.00000000000E+00 0.  1.
         12    1    5    5    0    0 -0.20769670301E+02  0.12137690047E+02  0.52726362259E+03  0.52781211660E+03  0.00000000000E+00 0. -1.
         11    1    3    3    0    0  0.10338355804E+03 -0.11717552172E+03 -0.20348105735E+03  0.25655955189E+03  0.00000000000E+00 0. -1.
        -12    1    3    3    0    0  0.46972970801E+00  0.71088613792E+01 -0.42382500149E+02  0.42977120367E+02  0.00000000000E+00 0.  1.
          5    1    4    4  501    0  0.18799449002E+02  0.31828582643E+02  0.14676228274E+02  0.39991774557E+02  0.41800000000E+01 0.  1.
         -5    1    4    4    0  501 -0.95754377308E+02 -0.39424394321E+02  0.13064020761E+03  0.16675586912E+03  0.41800000000E+01 0.  1.
</event>
<event>
11    1  0.1078607E-008  0.1775510E+03  0.7561462E-02  0.1071641E+00
         22   -1    0    0    0    0  0.00000000000E+00  0.00000000000E+00  0.44883211220E+03  0.44883211220E+03  0.00000000000E+00 0. -1.
         22   -1    0    0    0    0 -0.00000000000E+00 -0.00000000000E+00 -0.16635841645E+04  0.16635841645E+04  0.00000000000E+00 0.  1.
         24    2    1    2    0    0 -0.10135251204E+03 -0.72303313999E+02 -0.15660521131E+04  0.15728680913E+04  0.76777021568E+02 0.  0.
         25    2    1    2    0    0  0.17651412569E+03  0.13042488394E+03  0.13585696572E+03  0.28683063325E+03  0.12508721005E+03 0.  0.
        -24    2    1    2    0    0 -0.75161613651E+02 -0.58121569942E+02  0.21544309504E+03  0.25271755211E+03  0.91777169722E+02 0.  0.
        -11    1    3    3    0    0 -0.22020385924E+02 -0.22387221298E+02 -0.86600314958E+03  0.86657229367E+03  0.00000000000E+00 0.  1.
         12    1    3    3    0    0 -0.79332126119E+02 -0.49916092701E+02 -0.70004896348E+03  0.70629579768E+03  0.00000000000E+00 0. -1.
         13    1    5    5    0    0 -0.94851793077E+02 -0.60069413065E+02  0.18087088933E+03  0.21288371390E+03  0.00000000000E+00 0. -1.
        -14    1    5    5    0    0  0.19690179426E+02  0.19478431227E+01  0.34572205711E+02  0.39833838208E+02  0.00000000000E+00 0.  1.
          5    1    4    4  501    0  0.17210237753E+02  0.11776428269E+02 -0.23824594484E+02  0.31936816507E+02  0.41800000000E+01 0.  1.
         -5    1    4    4    0  501  0.15930388794E+03  0.11864845567E+03  0.15968156020E+03  0.25489381674E+03  0.41800000000E+01 0.  1.
</event>
<event>
11    1  0.1078607E-008  0.1419129E+03  0.7561462E-02  0.1105441E+00
         22   -1    0    0    0    0  0.00000000000E+00  0.00000000000E+00  0.16839636866E+04  0.16839636866E+04  0.00000000000E+00 0. -1.
         22   -1    0    0    0    0 -0.00000000000E+00 -0.00000000000E+00 -0.79638849693E+03  0.79638849693E+03  0.00000000000E+00 0.  1.
        -24    2    1    2    0    0  0.61615941982E+02 -0.26716384065E+02 -0.77245276864E+03  0.77947185340E+03  0.79892433861E+02 0.  0.
         25    2    1    2    0    0 -0.48234296738E+02  0.32014326663E+02  0.22746794477E+03  0.26597223304E+03  0.12509235930E+03 0.  0.
         24    2    1    2    0    0 -0.13381645245E+02 -0.52979425983E+01  0.14325600135E+04  0.14349080971E+04  0.80783154794E+02 0.  0.
        -11    1    5    5    0    0 -0.36262038936E+02 -0.15958683307E+01  0.31136208272E+03  0.31347061875E+03  0.00000000000E+00 0.  1.
         12    1    5    5    0    0  0.22880393691E+02 -0.37020742676E+01  0.11211979308E+04  0.11214374783E+04  0.00000000000E+00 0. -1.
         13    1    3    3    0    0  0.25348707374E+02  0.40860242124E+01 -0.57913484972E+02  0.63350014215E+02  0.00000000000E+00 0. -1.
        -14    1    3    3    0    0  0.36267234609E+02 -0.30802408278E+02 -0.71453928367E+03  0.71612183919E+03  0.00000000000E+00 0.  1.
          5    1    4    4  501    0 -0.43826158926E+02  0.63676911350E+02  0.21951527582E+03  0.23276578349E+03  0.41800000000E+01 0.  1.
         -5    1    4    4    0  501 -0.44081378117E+01 -0.31662584686E+02  0.79526689492E+01  0.33206449545E+02  0.41800000000E+01 0.  1.
</event>
<event>
11    1  0.1078607E-008  0.1302900E+03  0.7561462E-02  0.1118913E+00
         22   -1    0    0    0    0  0.00000000000E+00  0.00000000000E+00  0.10274356947E+04  0.10274356947E+04  0.00000000000E+00 0.  1.
         22   -1    0    0    0    0 -0.00000000000E+00 -0.00000000000E+00 -0.25822573057E+03  0.25822573057E+03  0.00000000000E+00 0. -1.
         24    2    1    2    0    0 -0.23027287991E-01 -0.31172515945E+02 -0.15758507936E+03  0.18032009908E+03  0.81917974914E+02 0.  0.
         25    2    1    2    0    0 -0.48278600934E+01  0.62356597237E+02 -0.31313464384E+02  0.14331636066E+03  0.12508953884E+03 0.  0.
        -24    2    1    2    0    0  0.48508873814E+01 -0.31184081292E+02  0.95810850789E+03  0.96202496554E+03  0.80772169693E+02 0.  0.
        -11    1    3    3    0    0 -0.31268845622E+02  0.11913000396E+01 -0.24212723202E+02  0.39565336687E+02  0.00000000000E+00 0.  1.
         12    1    3    3    0    0  0.31245818334E+02 -0.32363815985E+02 -0.13337235616E+03  0.14075476239E+03  0.00000000000E+00 0. -1.
         13    1    5    5    0    0  0.39013044717E+02 -0.68024638350E+01  0.30356398097E+03  0.30613621431E+03  0.00000000000E+00 0. -1.
        -14    1    5    5    0    0 -0.34162157336E+02 -0.24381617457E+02  0.65454452692E+03  0.65588875122E+03  0.00000000000E+00 0.  1.
          5    1    4    4  501    0 -0.25226421700E+02  0.90952787221E+02 -0.45917876480E+02  0.10504620714E+03  0.41800000000E+01 0. -1.
         -5    1    4    4    0  501  0.20398561607E+02 -0.28596189984E+02  0.14604412096E+02  0.38270153513E+02  0.41800000000E+01 0. -1.
</event>
<event>
11    1  0.1078607E-008  0.1887897E+03  0.7561462E-02  0.1062747E+00
         22   -1    0    0    0    0  0.00000000000E+00  0.00000000000E+00  0.48531900344E+03  0.48531900344E+03  0.00000000000E+00 0.  1.
         22   -1    0    0    0    0 -0.00000000000E+00 -0.00000000000E+00 -0.46487989537E+03  0.46487989537E+03  0.00000000000E+00 0. -1.
        -24    2    1    2    0    0  0.33068583668E+02 -0.61662573965E+02 -0.38618962024E+03  0.40090165732E+03  0.81755194336E+02 0.  0.
         25    2    1    2    0    0 -0.16274007796E+03  0.37789630224E+02  0.19032436452E+03  0.28245996012E+03  0.12509147139E+03 0.  0.
         24    2    1    2    0    0  0.12967149429E+03  0.23872943741E+02  0.21630436379E+03  0.26683728137E+03  0.83844755706E+02 0.  0.
        -11    1    5    5    0    0  0.12713281675E+03  0.38721061604E+02  0.15722784339E+03  0.20587051377E+03  0.00000000000E+00 0.  1.
         12    1    5    5    0    0  0.25386775417E+01 -0.14848117863E+02  0.59076520407E+02  0.60966767597E+02  0.00000000000E+00 0. -1.
         11    1    3    3    0    0  0.57117440895E+02 -0.22933758243E+02 -0.20307615355E+03  0.21219868865E+03  0.00000000000E+00 0. -1.
        -12    1    3    3    0    0 -0.24048857227E+02 -0.38728815722E+02 -0.18311346669E+03  0.18870296867E+03  0.00000000000E+00 0.  1.
          5    1    4    4  501    0 -0.13551831225E+03  0.27271008030E+02  0.20672801922E+03  0.24872247017E+03  0.41800000000E+01 0. -1.
         -5    1    4    4    0  501 -0.27221765707E+02  0.10518622194E+02 -0.16403654697E+02  0.33737489955E+02  0.41800000000E+01 0. -1.
</event>
<event>
11    1  0.1078607E-008  0.1482363E+03  0.7561462E-02  0.1098695E+00
         22   -1    0    0    0    0  0.00000000000E+00  0.00000000000E+00  0.42540098522E+03  0.42540098522E+03  0.00000000000E+00 0. -1.
         22   -1    0    0    0    0 -0.00000000000E+00 -0.00000000000E+00 -0.80989627183E+03  0.80989627183E+03  0.00000000000E+00 0. -1.
         24    2    1    2    0    0  0.63804520396E+02 -0.50042659240E+01 -0.63667214161E+03  0.64377926269E+03  0.70740820361E+02 0.  0.
         25    2    1    2    0    0 -0.55383927646E+02 -0.74616611081E+02 -0.12371213867E+03  0.19896073417E+03  0.12508262228E+03 0.  0.
        -24    2    1    2    0    0 -0.84205927503E+01  0.79620877005E+02  0.37588899367E+03  0.39255726020E+03  0.79989227617E+02 0.  0.
        -13    1    3    3    0    0  0.45406747542E+02  0.28051772274E+02 -0.27481303853E+03  0.27994799660E+03  0.00000000000E+00 0.  1.
         14    1    3    3    0    0  0.18397772854E+02 -0.33056038198E+02 -0.36185910307E+03  0.36383126609E+03  0.00000000000E+00 0. -1.
         13    1    5    5    0    0 -0.19792166235E+02  0.55633978145E+02  0.35176667566E+03  0.35668846838E+03  0.00000000000E+00 0. -1.
        -14    1    5    5    0    0  0.11371573484E+02  0.23986898860E+02  0.24122318006E+02  0.35868791817E+02  0.00000000000E+00 0.  1.
          5    1    4    4  501    0  0.11744891368E+02  0.13289923743E+02 -0.76476560130E+02  0.78617435698E+02  0.41800000000E+01 0.  1.
         -5    1    4    4    0  501 -0.67128819013E+02 -0.87906534824E+02 -0.47235578535E+02  0.12034329847E+03  0.41800000000E+01 0.  1.
</event>
<event>
11    1  0.1078607E-008  0.1385117E+03  0.7561462E-02  0.1109232E+00
         22   -1    0    0    0    0  0.00000000000E+00  0.00000000000E+00  0.19679721410E+03  0.19679721410E+03  0.00000000000E+00 0. -1.
         22   -1    0    0    0    0 -0.00000000000E+00 -0.00000000000E+00 -0.29747238158E+03  0.29747238158E+03  0.00000000000E+00 0. -1.
        -24    2    1    2    0    0 -0.32858108661E+02 -0.40486677514E+02 -0.15207460245E+03  0.17958925006E+03  0.80042411667E+02 0.  0.
         25    2    1    2    0    0  0.41599424715E+02  0.76535309412E+02 -0.67671894537E+02  0.16676370513E+03  0.12506990971E+03 0.  0.
         24    2    1    2    0    0 -0.87413160543E+01 -0.36048631898E+02  0.11907132951E+03  0.14791664048E+03  0.79532613136E+02 0.  0.
        -11    1    5    5    0    0  0.17104779438E+02 -0.46799780301E+02  0.39562021711E+02  0.63623474266E+02  0.00000000000E+00 0.  1.
         12    1    5    5    0    0 -0.25846095492E+02  0.10751148403E+02  0.79509307800E+02  0.84293166218E+02  0.00000000000E+00 0. -1.
         13    1    3    3    0    0 -0.39858846479E+02 -0.37014968454E+01 -0.13021750777E+03  0.13623152370E+03  0.00000000000E+00 0. -1.
        -14    1    3    3    0    0  0.70007378173E+01 -0.36785180668E+02 -0.21857094685E+02  0.43357726357E+02  0.00000000000E+00 0.  1.
          5    1    4    4  501    0  0.74178770935E+02  0.62599296933E+01 -0.28084326070E+02  0.79673574967E+02  0.41800000000E+01 0. -1.
         -5    1    4    4    0  501 -0.32579346219E+02  0.70275379719E+02 -0.39587568467E+02  0.87090130163E+02  0.41800000000E+01 0. -1.
</event>
<event>
11    1  0.1078607E-008  0.2358716E+03  0.7561462E-02  0.1031707E+00
         22   -1    0    0    0    0  0.00000000000E+00  0.00000000000E+00  0.15566096051E+04  0.15566096051E+04  0.00000000000E+00 0. -1.
         22   -1    0    0    0    0 -0.00000000000E+00 -0.00000000000E+00 -0.32518815973E+03  0.32518815973E+03  0.00000000000E+00 0.  1.
        -24    2    1    2    0    0 -0.77906062048E+01 -0.19610422248E+03 -0.23173340106E+03  0.31392813595E+03  0.79579807446E+02 0.  0.
         25    2    1    2    0    0 -0.61937880302E+02  0.23553564641E+03  0.32882031556E+03  0.42788261657E+03  0.12508953549E+03 0.  0.
         24    2    1    2    0    0  0.69728486507E+02 -0.39431423938E+02  0.11343345308E+04  0.11399870123E+04  0.80241269187E+02 0.  0.
        -11    1    5    5    0    0  0.22483772011E+02  0.24638021580E+02  0.29179409073E+03  0.29369430279E+03  0.00000000000E+00 0.  1.
         12    1    5    5    0    0  0.47244714496E+02 -0.64069445517E+02  0.84254044011E+03  0.84629270948E+03  0.00000000000E+00 0. -1.
         11    1    3    3    0    0  0.25615077003E+02 -0.27902119478E+02 -0.61940562033E+02  0.72603675294E+02  0.00000000000E+00 0. -1.
        -12    1    3    3    0    0 -0.33405683208E+02 -0.16820210300E+03 -0.16979283903E+03  0.24132446065E+03  0.00000000000E+00 0.  1.
          5    1    4    4  501    0 -0.52965975952E+02  0.70298303147E+02  0.19858863477E+03  0.21726059075E+03  0.41800000000E+01 0.  1.
         -5    1    4    4    0  501 -0.89719043505E+01  0.16523734327E+03  0.13023168079E+03  0.21062202582E+03  0.41800000000E+01 0.  1.
</event>
<event>
11    1  0.1078607E-008  0.1475901E+03  0.7561462E-02  0.1099367E+00
         22   -1    0    0    0    0  0.00000000000E+00  0.00000000000E+00  0.13407792145E+04  0.13407792145E+04  0.00000000000E+00 0. -1.
         22   -1    0    0    0    0 -0.00000000000E+00 -0.00000000000E+00 -0.34279486974E+03  0.34279486974E+03  0.00000000000E+00 0. -1.
        -24    2    1    2    0    0  0.10018916810E+02 -0.78724856148E+02 -0.30659191311E+03  0.32765758233E+03  0.84041111397E+02 0.  0.
         25    2    1    2    0    0  0.85872891110E+01  0.60145576316E+02  0.17655425827E+03  0.22474492881E+03  0.12509054731E+03 0.  0.
         24    2    1    2    0    0 -0.18606205921E+02  0.18579279832E+02  0.11280219996E+04  0.11311715731E+04  0.80150581158E+02 0.  0.
        -11    1    5    5    0    0  0.46180674635E+01 -0.26977079138E+02  0.21756856457E+03  0.21928330906E+03  0.00000000000E+00 0.  1.
         12    1    5    5    0    0 -0.23224273384E+02  0.45556358969E+02  0.91045343502E+03  0.91188826401E+03  0.00000000000E+00 0. -1.
         11    1    3    3    0    0  0.41213036218E+02 -0.13634621397E+02 -0.11556764023E+03  0.12345159668E+03  0.00000000000E+00 0. -1.
        -12    1    3    3    0    0 -0.31194119408E+02 -0.65090234751E+02 -0.19102427288E+03  0.20420598565E+03  0.00000000000E+00 0.  1.
          5    1    4    4  501    0  0.36720021906E+02  0.87082022046E+02  0.15028323786E+03  0.17757860950E+03  0.41800000000E+01 0.  1.
         -5    1    4    4    0  501 -0.28132732795E+02 -0.26936445729E+02  0.26271020415E+02  0.47166319304E+02  0.41800000000E+01 0.  1.
</event>
<event>
11    1  0.1078607E-008  0.1679658E+03  0.7561462E-02  0.1079816E+00
         22   -1    0    0    0    0  0.00000000000E+00  0.00000000000E+00  0.50016836676E+03  0.50016836676E+03  0.00000000000E+00 0.  1.
         22   -1    0    0    0    0 -0.00000000000E+00 -0.00000000000E+00 -0.59820119559E+03  0.59820119559E+03  0.00000000000E+00 0.  1.
         24    2    1    2    0    0 -0.88437495517E+02  0.63402088763E+02 -0.51913077675E+03  0.53953155871E+03  0.98775118327E+02 0.  0.
         25    2    1    2    0    0  0.14391576397E+03 -0.10068783650E+03  0.13783151341E+03  0.25591343353E+03  0.12507746334E+03 0.  0.
        -24    2    1    2    0    0 -0.55478268449E+02  0.37285747739E+02  0.28326643451E+03  0.30292457011E+03  0.83996172536E+02 0.  0.
        -13    1    3    3    0    0 -0.75162410565E+02  0.32968143245E+02 -0.48507092832E+03  0.49196553937E+03  0.00000000000E+00 0.  1.
         14    1    3    3    0    0 -0.13275084953E+02  0.30433945518E+02 -0.34059848434E+02  0.47566019338E+02  0.00000000000E+00 0. -1.
         11    1    5    5    0    0  0.18308796107E+02  0.63637455709E+00  0.20253244446E+02  0.27309538591E+02  0.00000000000E+00 0. -1.
        -12    1    5    5    0    0 -0.73787064556E+02  0.36649373182E+02  0.26301319006E+03  0.27561503152E+03  0.00000000000E+00 0.  1.
          5    1    4    4  501    0  0.70366097890E+02 -0.62489163038E+02  0.14468444082E+03  0.17264803226E+03  0.41800000000E+01 0. -1.
         -5    1    4    4    0  501  0.73549666076E+02 -0.38198673465E+02 -0.68529274054E+01  0.83265401269E+02  0.41800000000E+01 0. -1.
</event>
<event>
11    1  0.1078607E-008  0.5512026E+03  0.7561462E-02  0.9285865E-01
         22   -1    0    0    0    0  0.00000000000E+00  0.00000000000E+00  0.75000978771E+03  0.75000978771E+03  0.00000000000E+00 0. -1.
         22   -1    0    0    0    0 -0.00000000000E+00 -0.00000000000E+00 -0.53843373678E+03  0.53843373678E+03  0.00000000000E+00 0. -1.
         24    2    1    2    0    0  0.42761165910E+02 -0.65097961880E+02  0.32646247505E+01  0.11186756984E+03  0.80233617991E+02 0.  0.
         25    2    1    2    0    0  0.49932472817E+03  0.14151824046E+03 -0.10055195036E+03  0.54324090307E+03  0.12508951795E+03 0.  0.
        -24    2    1    2    0    0 -0.54208589408E+03 -0.76420278585E+02  0.30886337654E+03  0.63333505158E+03  0.77585608489E+02 0.  0.
        -11    1    3    3    0    0 -0.53225249659E+01  0.14386776748E+02 -0.95818292871E+01  0.18086460950E+02  0.00000000000E+00 0.  1.
         12    1    3    3    0    0  0.48083690876E+02 -0.79484738628E+02  0.12846454038E+02  0.93781108888E+02  0.00000000000E+00 0. -1.
         11    1    5    5    0    0 -0.18282404928E+03 -0.52930733613E+02  0.78310659909E+02  0.20581266970E+03  0.00000000000E+00 0. -1.
        -12    1    5    5    0    0 -0.35926184481E+03 -0.23489544971E+02  0.23055271663E+03  0.42752238188E+03  0.00000000000E+00 0.  1.
          5    1    4    4  501    0  0.32041834172E+03  0.12216221770E+03 -0.13274567999E+02  0.34319849607E+03  0.41800000000E+01 0.  1.
         -5    1    4    4    0  501  0.17890638645E+03  0.19356022767E+02 -0.87277382358E+02  0.20004240701E+03  0.41800000000E+01 0.  1.
</event>
<event>
11    1  0.1078607E-008  0.3471562E+03  0.7561462E-02  0.9819988E-01
         22   -1    0    0    0    0  0.00000000000E+00  0.00000000000E+00  0.15654924516E+04  0.15654924516E+04  0.00000000000E+00 0.  1.
         22   -1    0    0    0    0 -0.00000000000E+00 -0.00000000000E+00 -0.48153484967E+03  0.48153484967E+03  0.00000000000E+00 0. -1.
        -24    2    1    2    0    0  0.13138516213E+03 -0.27348262115E+03 -0.24686542597E+03  0.39909653612E+03  0.79250878242E+02 0.  0.
         25    2    1    2    0    0 -0.17618946818E+03  0.35861602299E+03  0.12667507864E+03  0.43742619743E+03  0.12508765732E+03 0.  0.
         24    2    1    2    0    0  0.44804306048E+02 -0.85133401838E+02  0.12041479492E+04  0.12105045677E+04  0.78063453811E+02 0.  0.
        -11    1    5    5    0    0  0.51404309180E+02 -0.80995749638E+02  0.11932983862E+04  0.11971481750E+04  0.00000000000E+00 0.  1.
         12    1    5    5    0    0 -0.66000031324E+01 -0.41376521999E+01  0.10849563023E+02  0.13356392659E+02  0.00000000000E+00 0. -1.
         11    1    3    3    0    0  0.67747165828E+01 -0.84292947375E+02 -0.90322658872E+02  0.12373108125E+03  0.00000000000E+00 0. -1.
        -12    1    3    3    0    0  0.12461044555E+03 -0.18918967377E+03 -0.15654276710E+03  0.27536545486E+03  0.00000000000E+00 0.  1.
          5    1    4    4  501    0  0.11503202218E+02  0.75754520946E+02  0.42218834650E+02  0.87584093899E+02  0.41800000000E+01 0.  1.
         -5    1    4    4    0  501 -0.18769267039E+03  0.28286150204E+03  0.84456243986E+02  0.34984210353E+03  0.41800000000E+01 0.  1.
</event>
<event>
11    1  0.1078607E-008  0.1767986E+03  0.7561462E-02  0.1072262E+00
         22   -1    0    0    0    0  0.00000000000E+00  0.00000000000E+00  0.19540764109E+04  0.19540764109E+04  0.00000000000E+00 0. -1.
         22   -1    0    0    0    0 -0.00000000000E+00 -0.00000000000E+00 -0.84056895063E+03  0.84056895063E+03  0.00000000000E+00 0. -1.
         24    2    1    2    0    0  0.41132111184E+02  0.11827941987E+03 -0.81746166893E+03  0.83088047981E+03  0.80230417084E+02 0.  0.
         25    2    1    2    0    0 -0.13891803099E+02 -0.10731849876E+03  0.43327800391E+03  0.46377471817E+03  0.12508764197E+03 0.  0.
        -24    2    1    2    0    0 -0.27240308085E+02 -0.10960921110E+02  0.14976911253E+04  0.14999901636E+04  0.77650549312E+02 0.  0.
        -13    1    3    3    0    0  0.37126515942E+01 -0.76048558686E+01 -0.11439647872E+02  0.14229657693E+02  0.00000000000E+00 0.  1.
         14    1    3    3    0    0  0.37419459590E+02  0.12588427573E+03 -0.80602202105E+03  0.81665082211E+03  0.00000000000E+00 0. -1.
         11    1    5    5    0    0 -0.23803242404E+01  0.22692067340E+01  0.13260567320E+04  0.13260608100E+04  0.00000000000E+00 0. -1.
        -12    1    5    5    0    0 -0.24859983845E+02 -0.13230127844E+02  0.17163439327E+03  0.17392935356E+03  0.00000000000E+00 0.  1.
          5    1    4    4  501    0 -0.25353377132E+02 -0.36903025550E+02  0.35478074711E+03  0.35761918006E+03  0.41800000000E+01 0. -1.
         -5    1    4    4    0  501  0.11461574034E+02 -0.70415473207E+02  0.78497256798E+02  0.10615553811E+03  0.41800000000E+01 0. -1.
</event>
<event>
11    1  0.1078607E-008  0.1550528E+03  0.7561462E-02  0.1091825E+00
         22   -1    0    0    0    0  0.00000000000E+00  0.00000000000E+00  0.27291375515E+04  0.27291375515E+04  0.00000000000E+00 0. -1.
         22   -1    0    0    0    0 -0.00000000000E+00 -0.00000000000E+00 -0.25376954986E+02  0.25376954986E+02  0.00000000000E+00 0.  1.
        -24    2    1    2    0    0 -0.24905607048E+02  0.94633124073E+02  0.23622451066E+03  0.26838047447E+03  0.81549630316E+02 0.  0.
         25    2    1    2    0    0 -0.63984194774E+02 -0.79376266598E+02  0.93607892659E+03  0.94988719634E+03  0.12508940835E+03 0.  0.
         24    2    1    2    0    0  0.88889801823E+02 -0.15256857475E+02  0.15314571592E+04  0.15362468356E+04  0.80988523304E+02 0.  0.
        -13    1    5    5    0    0  0.12364121002E+01 -0.31227370972E+02  0.48355911854E+03  0.48456795038E+03  0.00000000000E+00 0.  1.
         14    1    5    5    0    0  0.87653389722E+02  0.15970513497E+02  0.10478980407E+04  0.10516788853E+04  0.00000000000E+00 0. -1.
         11    1    3    3    0    0 -0.13571132198E+02  0.10783445218E+02 -0.13320586974E+00  0.17334245404E+02  0.00000000000E+00 0. -1.
        -12    1    3    3    0    0 -0.11334474850E+02  0.83849678855E+02  0.23635771653E+03  0.25104622907E+03  0.00000000000E+00 0.  1.
          5    1    4    4  501    0 -0.44826775754E+02  0.11184476857E+02  0.12149404766E+03  0.13004925360E+03  0.41800000000E+01 0.  1.
         -5    1    4    4    0  501 -0.19157419020E+02 -0.90560743455E+02  0.81458487893E+03  0.81983794273E+03  0.41800000000E+01 0.  1.
</event>
<event>
11    1  0.1078607E-008  0.1975978E+03  0.7561462E-02  0.1056235E+00
         22   -1    0    0    0    0  0.00000000000E+00  0.00000000000E+00  0.34094347947E+03  0.34094347947E+03  0.00000000000E+00 0. -1.
         22   -1    0    0    0    0 -0.00000000000E+00 -0.00000000000E+00 -0.53969600394E+03  0.53969600394E+03  0.00000000000E+00 0. -1.
        -24    2    1    2    0    0 -0.24352852153E+02  0.16001207296E+03 -0.37845095037E+03  0.41927905059E+03  0.79830292039E+02 0.  0.
         25    2    1    2    0    0  0.78186809063E+02 -0.11035542435E+03 -0.58982469941E+02  0.19343773268E+03  0.12509087844E+03 0.  0.
         24    2    1    2    0    0 -0.53833956909E+02 -0.49656648610E+02  0.23868089583E+03  0.26792270014E+03  0.97211756212E+02 0.  0.
        -13    1    5    5    0    0 -0.18739062232E+02 -0.58732782047E+02  0.61530828444E+02  0.87101865590E+02  0.00000000000E+00 0.  1.
         14    1    5    5    0    0 -0.35094894678E+02  0.90761334364E+01  0.17715006739E+03  0.18082083455E+03  0.00000000000E+00 0. -1.
         13    1    3    3    0    0 -0.40783638720E+02  0.15605881849E+03 -0.31883665140E+03  0.35731564519E+03  0.00000000000E+00 0. -1.
        -14    1    3    3    0    0  0.16430786566E+02  0.39532544683E+01 -0.59614298965E+02  0.61963405403E+02  0.00000000000E+00 0.  1.
          5    1    4    4  501    0  0.35914316918E+02 -0.96733992637E+02  0.17649107997E+02  0.10476768063E+03  0.41800000000E+01 0.  1.
         -5    1    4    4    0  501  0.42272492144E+02 -0.13621431716E+02 -0.76631577939E+02  0.88670052055E+02  0.41800000000E+01 0.  1.
</event>
<event>
11    1  0.1078607E-008  0.1366461E+03  0.7561462E-02  0.1111362E+00
         22   -1    0    0    0    0  0.00000000000E+00  0.00000000000E+00  0.18229627309E+04  0.18229627309E+04  0.00000000000E+00 0. -1.
         22   -1    0    0    0    0 -0.00000000000E+00 -0.00000000000E+00 -0.53908413859E+03  0.53908413859E+03  0.00000000000E+00 0.  1.
        -24    2    1    2    0    0 -0.25272915292E+02 -0.48605975500E+02 -0.52601423179E+03  0.53633281102E+03  0.89222480467E+02 0.  0.
         25    2    1    2    0    0  0.49889688348E+02  0.84503382846E+02  0.10375881929E+04  0.10496983520E+04  0.12509024509E+03 0.  0.
         24    2    1    2    0    0 -0.24616773056E+02 -0.35897407346E+02  0.77230463121E+03  0.77601570649E+03  0.62059036083E+02 0.  0.
        -11    1    5    5    0    0  0.16672905196E+01  0.11327259337E+02  0.36022984168E+03  0.36041174439E+03  0.00000000000E+00 0.  1.
         12    1    5    5    0    0 -0.26284063576E+02 -0.47224666683E+02  0.41207478953E+03  0.41560396209E+03  0.00000000000E+00 0. -1.
         11    1    3    3    0    0  0.20308936618E+02  0.15123074256E+02 -0.16338103371E+03  0.16533155312E+03  0.00000000000E+00 0. -1.
        -12    1    3    3    0    0 -0.45581851910E+02 -0.63729049756E+02 -0.36263319809E+03  0.37100125790E+03  0.00000000000E+00 0.  1.
          5    1    4    4  501    0  0.82088302375E+02  0.36343694074E+02  0.80356820680E+03  0.80857818970E+03  0.41800000000E+01 0. -1.
         -5    1    4    4    0  501 -0.32198614027E+02  0.48159688773E+02  0.23401998609E+03  0.24112016228E+03  0.41800000000E+01 0. -1.
</event>
<event>
11    1  0.1078607E-008  0.1480962E+03  0.7561462E-02  0.1098840E+00
         22   -1    0    0    0    0  0.00000000000E+00  0.00000000000E+00  0.10046616253E+03  0.10046616253E+03  0.00000000000E+00 0.  1.
         22   -1    0    0    0    0 -0.00000000000E+00 -0.00000000000E+00 -0.67117918245E+03  0.67117918245E+03  0.00000000000E+00 0.  1.
         24    2    1    2    0    0  0.44513928188E+02  0.70373520189E+02 -0.43605029286E+03  0.45101480974E+03  0.79627749909E+02 0.  0.
         25    2    1    2    0    0  0.32281224990E+02 -0.85372410305E+02 -0.14003385696E+03  0.20877681814E+03  0.12509097798E+03 0.  0.
        -24    2    1    2    0    0 -0.76795153178E+02  0.14998890117E+02  0.53711299031E+01  0.11185371710E+03  0.79749249128E+02 0.  0.
        -11    1    3    3    0    0  0.21481462264E+01  0.24047410989E+02 -0.30232281489E+03  0.30328530612E+03  0.00000000000E+00 0.  1.
         12    1    3    3    0    0  0.42365781962E+02  0.46326109200E+02 -0.13372747797E+03  0.14772950362E+03  0.00000000000E+00 0. -1.
         13    1    5    5    0    0 -0.52578458753E+02 -0.28277171419E+02  0.14485164181E+02  0.61432179920E+02  0.00000000000E+00 0. -1.
        -14    1    5    5    0    0 -0.24216694424E+02  0.43276061536E+02 -0.91140342775E+01  0.50421537181E+02  0.00000000000E+00 0.  1.
          5    1    4    4  501    0  0.36992181160E+02 -0.47326851485E+02  0.33407477323E+01  0.60306594447E+02  0.41800000000E+01 0. -1.
         -5    1    4    4    0  501 -0.47109561700E+01 -0.38045558821E+02 -0.14337460469E+03  0.14847022369E+03  0.41800000000E+01 0. -1.
</event>
<event>
11    1  0.1078607E-008  0.1550740E+03  0.7561462E-02  0.1091804E+00
         22   -1    0    0    0    0  0.00000000000E+00  0.00000000000E+00  0.73126090857E+03  0.73126090857E+03  0.00000000000E+00 0. -1.
         22   -1    0    0    0    0 -0.00000000000E+00 -0.00000000000E+00 -0.11158895645E+03  0.11158895645E+03  0.00000000000E+00 0. -1.
         24    2    1    2    0    0 -0.36364603473E+02 -0.29699812430E+02 -0.54231796771E+02  0.10831799446E+03  0.81161794577E+02 0.  0.
         25    2    1    2    0    0  0.11636521479E+03  0.98437655779E+01  0.32512911440E+03  0.36741701585E+03  0.12509420279E+03 0.  0.
        -24    2    1    2    0    0 -0.80000611314E+02  0.19856046852E+02  0.34877463449E+03  0.36711485472E+03  0.79594035482E+02 0.  0.
        -11    1    3    3    0    0 -0.61683664358E+02 -0.16728943196E+02 -0.45861788979E+02  0.78664068528E+02  0.00000000000E+00 0.  1.
         12    1    3    3    0    0  0.25319060885E+02 -0.12970869235E+02 -0.83700077918E+01  0.29653925933E+02  0.00000000000E+00 0. -1.
         13    1    5    5    0    0 -0.82139762040E+02  0.27888099579E+02  0.34813370271E+03  0.35877815091E+03  0.00000000000E+00 0. -1.
        -14    1    5    5    0    0  0.21391507255E+01 -0.80320527267E+01  0.64093177609E+00  0.83367038074E+01  0.00000000000E+00 0.  1.
          5    1    4    4  501    0  0.29894262110E+02 -0.46225327486E+02  0.53555376802E+02  0.76916179005E+02  0.41800000000E+01 0. -1.
         -5    1    4    4    0  501  0.86470952676E+02  0.56069093064E+02  0.27157373760E+03  0.29050083684E+03  0.41800000000E+01 0. -1.
</event>
<event>
11    1  0.1078607E-008  0.1411418E+03  0.7561462E-02  0.1106290E+00
         22   -1    0    0    0    0  0.00000000000E+00  0.00000000000E+00  0.10136990962E+04  0.10136990962E+04  0.00000000000E+00 0.  1.
         22   -1    0    0    0    0 -0.00000000000E+00 -0.00000000000E+00 -0.17424585644E+04  0.17424585644E+04  0.00000000000E+00 0. -1.
         24    2    1    2    0    0  0.44797554496E+02  0.46932800441E+02 -0.16653434222E+04  0.16686364334E+04  0.82275904061E+02 0.  0.
         25    2    1    2    0    0 -0.70565593534E+02 -0.56572526344E+02  0.74026481777E+01  0.15453770215E+03  0.12508856245E+03 0.  0.
        -24    2    1    2    0    0  0.25768039037E+02  0.96397259026E+01  0.92918130580E+03  0.93298352505E+03  0.79520078088E+02 0.  0.
        -11    1    3    3    0    0  0.17497260280E+02 -0.23463401950E+02 -0.45710558522E+03  0.45804170268E+03  0.00000000000E+00 0.  1.
         12    1    3    3    0    0  0.27300294216E+02  0.70396202391E+02 -0.12082378370E+04  0.12105947308E+04  0.00000000000E+00 0. -1.
         13    1    5    5    0    0 -0.76228422452E+01 -0.10180707573E+02  0.25764733354E+02  0.28732838624E+02  0.00000000000E+00 0. -1.
        -14    1    5    5    0    0  0.33390881283E+02  0.19820433475E+02  0.90341657245E+03  0.90425068643E+03  0.00000000000E+00 0.  1.
          5    1    4    4  501    0 -0.66755891974E+01 -0.62001267949E+02  0.47760068797E+02  0.78658866569E+02  0.41800000000E+01 0. -1.
         -5    1    4    4    0  501 -0.63890004336E+02  0.54287416053E+01 -0.40357420619E+02  0.75878835577E+02  0.41800000000E+01 0. -1.
</event>
<event>
11    1  0.1078607E-008  0.1420164E+03  0.7561462E-02  0.1105327E+00
         22   -1    0    0    0    0  0.00000000000E+00  0.00000000000E+00  0.39670591206E+03  0.39670591206E+03  0.00000000000E+00 0. -1.
         22   -1    0    0    0    0 -0.00000000000E+00 -0.00000000000E+00 -0.12881937413E+04  0.12881937413E+04  0.00000000000E+00 0. -1.
         24    2    1    2    0    0 -0.44457591037E+02  0.57865595360E+02 -0.96665584416E+03  0.97283788158E+03  0.81640175524E+02 0.  0.
         25    2    1    2    0    0  0.24810441468E+02 -0.33261133220E+02 -0.29976062679E+03  0.32745599822E+03  0.12509650838E+03 0.  0.
        -24    2    1    2    0    0  0.19647149570E+02 -0.24604462140E+02  0.37492864172E+03  0.38460577356E+03  0.79741611687E+02 0.  0.
        -13    1    3    3    0    0  0.13641620968E+02  0.80323027862E+01 -0.39889860873E+02  0.42916345501E+02  0.00000000000E+00 0.  1.
         14    1    3    3    0    0 -0.58099212005E+02  0.49833292574E+02 -0.92676598329E+03  0.92992153608E+03  0.00000000000E+00 0. -1.
         13    1    5    5    0    0  0.12978905626E+02  0.16331629179E+02  0.28283726118E+03  0.28360551901E+03  0.00000000000E+00 0. -1.
        -14    1    5    5    0    0  0.66682439431E+01 -0.40936091319E+02  0.92091380534E+02  0.10100025455E+03  0.00000000000E+00 0.  1.
          5    1    4    4  501    0  0.43157475646E+02 -0.13318584794E+02 -0.25912609989E+02  0.52238761102E+02  0.41800000000E+01 0.  1.
         -5    1    4    4    0  501 -0.18347034178E+02 -0.19942548426E+02 -0.27384801680E+03  0.27521723712E+03  0.41800000000E+01 0.  1.
</event>
<event>
11    1  0.1078607E-008  0.2999460E+03  0.7561462E-02  0.1000214E+00
         22   -1    0    0    0    0  0.00000000000E+00  0.00000000000E+00  0.16603822022E+04  0.16603822022E+04  0.00000000000E+00 0. -1.
         22   -1    0    0    0    0 -0.00000000000E+00 -0.00000000000E+00 -0.25604064779E+03  0.25604064779E+03  0.00000000000E+00 0.  1.
         24    2    1    2    0    0 -0.20116651797E+03 -0.18597062825E+03 -0.13535009605E+03  0.31581497298E+03  0.79789762109E+02 0.  0.
         25    2    1    2    0    0  0.19183922897E+03  0.17792239719E+03  0.70925909116E+03  0.76626043314E+03  0.12509166165E+03 0.  0.
        -24    2    1    2    0    0  0.93272889957E+01  0.80482310605E+01  0.83043255927E+03  0.83434744384E+03  0.79785018701E+02 0.  0.
        -13    1    3    3    0    0 -0.97645236068E+02 -0.10316447439E+03 -0.11270808025E+03  0.18133011955E+03  0.00000000000E+00 0.  1.
         14    1    3    3    0    0 -0.10352128190E+03 -0.82806153863E+02 -0.22642015798E+02  0.13448485343E+03  0.00000000000E+00 0. -1.
         13    1    5    5    0    0 -0.19164273278E+02 -0.17994680531E+02  0.60960708986E+03  0.61017364897E+03  0.00000000000E+00 0. -1.
        -14    1    5    5    0    0  0.28491562274E+02  0.26042911591E+02  0.22082546941E+03  0.22417379487E+03  0.00000000000E+00 0.  1.
          5    1    4    4  501    0  0.18229443396E+03  0.14460371027E+03  0.68577468042E+03  0.72418635612E+03  0.41800000000E+01 0. -1.
         -5    1    4    4    0  501  0.95447950105E+01  0.33318686923E+02  0.23484410738E+02  0.42074077028E+02  0.41800000000E+01 0. -1.
</event>
<event>
11    1  0.1078607E-008  0.1548444E+03  0.7561462E-02  0.1092029E+00
         22   -1    0    0    0    0  0.00000000000E+00  0.00000000000E+00  0.99997255027E+03  0.99997255027E+03  0.00000000000E+00 0.  1.
         22   -1    0    0    0    0 -0.00000000000E+00 -0.00000000000E+00 -0.99181549216E+03  0.99181549216E+03  0.00000000000E+00 0. -1.
        -24    2    1    2    0    0 -0.41431963593E+02  0.40152370635E+01 -0.87923880917E+03  0.88389224973E+03  0.80448094042E+02 0.  0.
         25    2    1    2    0    0  0.97876907423E+02  0.66662468590E+02 -0.36542538725E+02  0.17608408252E+03  0.12508586353E+03 0.  0.
         24    2    1    2    0    0 -0.56444943830E+02 -0.70677705654E+02  0.92393840601E+03  0.93181171019E+03  0.80184258982E+02 0.  0.
        -13    1    5    5    0    0 -0.66569462287E+02 -0.56595760551E+02  0.50418862528E+03  0.51170376516E+03  0.00000000000E+00 0.  1.
         14    1    5    5    0    0  0.10124518457E+02 -0.14081945103E+02  0.41974978073E+03  0.42010794502E+03  0.00000000000E+00 0. -1.
         13    1    3    3    0    0 -0.51862785140E+02 -0.21092071715E+02 -0.40205368280E+03  0.40593323075E+03  0.00000000000E+00 0. -1.
        -14    1    3    3    0    0  0.10430821547E+02  0.25107308779E+02 -0.47718512637E+03  0.47795901898E+03  0.00000000000E+00 0.  1.
          5    1    4    4  501    0 -0.25035675180E+02  0.24190412303E+02 -0.29432781296E+02  0.45779057372E+02  0.41800000000E+01 0. -1.
         -5    1    4    4    0  501  0.12291258260E+03  0.42472056287E+02 -0.71097574295E+01  0.13030502515E+03  0.41800000000E+01 0. -1.
</event>
<event>
11    1  0.1078607E-008  0.1433317E+03  0.7561462E-02  0.1103894E+00
         22   -1    0    0    0    0  0.00000000000E+00  0.00000000000E+00  0.15998194561E+04  0.15998194561E+04  0.00000000000E+00 0. -1.
         22   -1    0    0    0    0 -0.00000000000E+00 -0.00000000000E+00 -0.47000601067E+03  0.47000601067E+03  0.00000000000E+00 0. -1.
         24    2    1    2    0    0  0.64441760277E+02 -0.25636066974E+02 -0.44687550742E+03  0.46007182285E+03  0.84607414867E+02 0.  0.
         25    2    1    2    0    0 -0.10598072036E+03  0.82390886511E+02  0.60583032705E+03  0.63300627768E+03  0.12508553528E+03 0.  0.
        -24    2    1    2    0    0  0.41538960078E+02 -0.56754819537E+02  0.97085862578E+03  0.97674736622E+03  0.80761076190E+02 0.  0.
        -11    1    3    3    0    0  0.14289376309E+01 -0.30931778020E+02 -0.54916674665E+02  0.63044888060E+02  0.00000000000E+00 0.  1.
         12    1    3    3    0    0  0.63012822646E+02  0.52957110462E+01 -0.39195883276E+03  0.39702693479E+03  0.00000000000E+00 0. -1.
         13    1    5    5    0    0  0.40612438896E+02 -0.72496346702E+02  0.62118298674E+03  0.62671635808E+03  0.00000000000E+00 0. -1.
        -14    1    5    5    0    0  0.92652118210E+00  0.15741527165E+02  0.34967563904E+03  0.35003100814E+03  0.00000000000E+00 0.  1.
          5    1    4    4  501    0 -0.42801176089E+02 -0.13302074385E+02  0.58699942829E+02  0.73973248852E+02  0.41800000000E+01 0.  1.
         -5    1    4    4    0  501 -0.63179544266E+02  0.95692960896E+02  0.54713038422E+03  0.55903302883E+03  0.41800000000E+01 0.  1.
</event>
<event>
11    1  0.1078607E-008  0.1736473E+03  0.7561462E-02  0.1074901E+00
         22   -1    0    0    0    0  0.00000000000E+00  0.00000000000E+00  0.14748551883E+04  0.14748551883E+04  0.00000000000E+00 0. -1.
         22   -1    0    0    0    0 -0.00000000000E+00 -0.00000000000E+00 -0.91883307554E+02  0.91883307554E+02  0.00000000000E+00 0.  1.
        -24    2    1    2    0    0  0.35407502047E+02  0.21813236510E+02 -0.43005651610E+02  0.98802567216E+02  0.78631753954E+02 0.  0.
         25    2    1    2    0    0 -0.11323296343E+03  0.66988607806E+02  0.52140749976E+03  0.55210681628E+03  0.12508788188E+03 0.  0.
         24    2    1    2    0    0  0.77825461384E+02 -0.88801844316E+02  0.90457003263E+03  0.91582911239E+03  0.80953376586E+02 0.  0.
        -13    1    5    5    0    0  0.76166591019E+02 -0.52503122480E+02  0.42838863243E+03  0.43826333163E+03  0.00000000000E+00 0.  1.
         14    1    5    5    0    0  0.16588703655E+01 -0.36298721835E+02  0.47618140020E+03  0.47756578076E+03  0.00000000000E+00 0. -1.
         13    1    3    3    0    0  0.21023467357E+02 -0.17584472493E+02  0.11757712173E+02  0.29823541843E+02  0.00000000000E+00 0. -1.
        -14    1    3    3    0    0  0.14384034690E+02  0.39397709002E+02 -0.54763363782E+02  0.68979025373E+02  0.00000000000E+00 0.  1.
          5    1    4    4  501    0 -0.71239843221E+02  0.98939681057E+02  0.42455872955E+03  0.44173721032E+03  0.41800000000E+01 0. -1.
         -5    1    4    4    0  501 -0.41993120210E+02 -0.31951073251E+02  0.96848770213E+02  0.11036960596E+03  0.41800000000E+01 0. -1.
</event>
<event>
11    1  0.1078607E-008  0.1527160E+03  0.7561462E-02  0.1094135E+00
         22   -1    0    0    0    0  0.00000000000E+00  0.00000000000E+00  0.17331839695E+03  0.17331839695E+03  0.00000000000E+00 0.  1.
         22   -1    0    0    0    0 -0.00000000000E+00 -0.00000000000E+00 -0.81012963036E+03  0.81012963036E+03  0.00000000000E+00 0.  1.
         24    2    1    2    0    0 -0.36746747406E+02  0.26432060584E+02 -0.57353226828E+03  0.58089074728E+03  0.80285865788E+02 0.  0.
         25    2    1    2    0    0 -0.18046886858E+02 -0.94930983831E+02 -0.17834035934E+03  0.23830777510E+03  0.12509088730E+03 0.  0.
        -24    2    1    2    0    0  0.54793634264E+02  0.68498923247E+02  0.11506139421E+03  0.16424950494E+03  0.77745293075E+02 0.  0.
        -11    1    3    3    0    0 -0.11872435919E+02  0.20250637053E+02 -0.52891380639E+03  0.52943446962E+03  0.00000000000E+00 0.  1.
         12    1    3    3    0    0 -0.24874311487E+02  0.61814235308E+01 -0.44618461890E+02  0.51456277657E+02  0.00000000000E+00 0. -1.
         11    1    5    5    0    0  0.34955950378E+01 -0.17069472146E+02  0.15993069363E+02  0.23650884374E+02  0.00000000000E+00 0. -1.
        -12    1    5    5    0    0  0.51298039226E+02  0.85568395393E+02  0.99068324844E+02  0.14059862057E+03  0.00000000000E+00 0.  1.
          5    1    4    4  501    0  0.81399964503E+01 -0.98938621646E+02 -0.18560005831E+03  0.21052307342E+03  0.41800000000E+01 0.  1.
         -5    1    4    4    0  501 -0.26186883308E+02  0.40076378149E+01  0.72596989720E+01  0.27784701680E+02  0.41800000000E+01 0.  1.
</event>
<event>
11    1  0.1078607E-008  0.1281772E+03  0.7561462E-02  0.1121529E+00
         22   -1    0    0    0    0  0.00000000000E+00  0.00000000000E+00  0.90295628424E+03  0.90295628424E+03  0.00000000000E+00 0. -1.
         22   -1    0    0    0    0 -0.00000000000E+00 -0.00000000000E+00 -0.56827182650E+02  0.56827182650E+02  0.00000000000E+00 0.  1.
         24    2    1    2    0    0  0.79478077458E+01  0.31425295773E+02  0.13066822479E+02  0.87973800126E+02  0.80733702978E+02 0.  0.
         25    2    1    2    0    0 -0.18884219327E+02 -0.10436843480E+01  0.22515255291E+03  0.25826139003E+03  0.12509024935E+03 0.  0.
        -24    2    1    2    0    0  0.10936411581E+02 -0.30381611425E+02  0.60790972621E+03  0.61354827674E+03  0.76450018029E+02 0.  0.
        -13    1    3    3    0    0  0.37632711822E+02 -0.66586711607E+01  0.10432181235E+02  0.39615518500E+02  0.00000000000E+00 0.  1.
         14    1    3    3    0    0 -0.29684904076E+02  0.38083966933E+02  0.26346412433E+01  0.48358281626E+02  0.00000000000E+00 0. -1.
         11    1    5    5    0    0  0.61205058390E+01 -0.42188613383E+02  0.59013487473E+03  0.59167263758E+03  0.00000000000E+00 0. -1.
        -12    1    5    5    0    0  0.48159057425E+01  0.11807001959E+02  0.17774851484E+02  0.21875639160E+02  0.00000000000E+00 0.  1.
          5    1    4    4  501    0 -0.35244460134E+02  0.15498199816E+02  0.23074355755E+03  0.23397099802E+03  0.41800000000E+01 0.  1.
         -5    1    4    4    0  501  0.16360240807E+02 -0.16541884164E+02 -0.55910046387E+01  0.24290392007E+02  0.41800000000E+01 0.  1.
</event>
<event>
11    1  0.1078607E-008  0.1571404E+03  0.7561462E-02  0.1089798E+00
         22   -1    0    0    0    0  0.00000000000E+00  0.00000000000E+00  0.86200149966E+03  0.86200149966E+03  0.00000000000E+00 0.  1.
         22   -1    0    0    0    0 -0.00000000000E+00 -0.00000000000E+00 -0.19131608925E+03  0.19131608925E+03  0.00000000000E+00 0.  1.
         24    2    1    2    0    0 -0.14154217241E+02  0.39831712329E+02 -0.14016772618E+03  0.16673393649E+03  0.79789140504E+02 0.  0.
         25    2    1    2    0    0  0.58405105616E+02 -0.11632445342E+03  0.22500512832E+03  0.28847422167E+03  0.12509010341E+03 0.  0.
        -24    2    1    2    0    0 -0.44250888374E+02  0.76492741095E+02  0.58584800828E+03  0.59810943075E+03  0.81900682440E+02 0.  0.
        -11    1    3    3    0    0  0.11020331583E+02  0.33735112010E+02 -0.13593095929E+03  0.14048747697E+03  0.00000000000E+00 0.  1.
         12    1    3    3    0    0 -0.25174548825E+02  0.60966003188E+01 -0.42367668917E+01  0.26246459526E+02  0.00000000000E+00 0. -1.
         11    1    5    5    0    0  0.18278074571E+02 -0.19182099162E+01  0.13473825939E+03  0.13598590398E+03  0.00000000000E+00 0. -1.
        -12    1    5    5    0    0 -0.62528962945E+02  0.78410951011E+02  0.45110974889E+03  0.46212352676E+03  0.00000000000E+00 0.  1.
          5    1    4    4  501    0 -0.31147828623E+02 -0.30119223111E+02  0.18264235236E+02  0.47206032639E+02  0.41800000000E+01 0. -1.
         -5    1    4    4    0  501  0.89552934238E+02 -0.86205230313E+02  0.20674089309E+03  0.24126818903E+03  0.41800000000E+01 0. -1.
</event>
<event>
11    1  0.1078607E-008  0.1493245E+03  0.7561462E-02  0.1097571E+00
         22   -1    0    0    0    0  0.00000000000E+00  0.00000000000E+00  0.56928231404E+03  0.56928231404E+03  0.00000000000E+00 0. -1.
         22   -1    0    0    0    0 -0.00000000000E+00 -0.00000000000E+00 -0.28355358449E+03  0.28355358449E+03  0.00000000000E+00 0. -1.
         24    2    1    2    0    0 -0.20917842534E+02 -0.77345117986E+02 -0.20414359631E+03  0.23354472314E+03  0.80303837868E+02 0.  0.
         25    2    1    2    0    0  0.58759628412E+02  0.78558910507E+02  0.50736797377E+02  0.16686914927E+03  0.12508754542E+03 0.  0.
        -24    2    1    2    0    0 -0.37841785878E+02 -0.12137925210E+01  0.43913552848E+03  0.45242202612E+03  0.10204020433E+03 0.  0.
        -13    1    3    3    0    0  0.20139409315E+02 -0.66099346296E+02 -0.14555184744E+03  0.16112125769E+03  0.00000000000E+00 0.  1.
         14    1    3    3    0    0 -0.41057251850E+02 -0.11245771690E+02 -0.58591748877E+02  0.72423465444E+02  0.00000000000E+00 0. -1.
         11    1    5    5    0    0 -0.37838131072E+02 -0.38820933079E+02  0.36786565408E+03  0.37183857850E+03  0.00000000000E+00 0. -1.
        -12    1    5    5    0    0 -0.36548056959E-02  0.37607140558E+02  0.71269874397E+02  0.80583447623E+02  0.00000000000E+00 0.  1.
          5    1    4    4  501    0 -0.28912676245E+02  0.45658819836E+02  0.49073904791E+02  0.73119020835E+02  0.41800000000E+01 0.  1.
         -5    1    4    4    0  501  0.87672304657E+02  0.32900090671E+02  0.16628925866E+01  0.93750128436E+02  0.41800000000E+01 0.  1.
</event>
<event>
11    1  0.1078607E-008  0.3613338E+03  0.7561462E-02  0.9771281E-01
         22   -1    0    0    0    0  0.00000000000E+00  0.00000000000E+00  0.29997819561E+04  0.29997819561E+04  0.00000000000E+00 0. -1.
         22   -1    0    0    0    0 -0.00000000000E+00 -0.00000000000E+00 -0.28037324840E+03  0.28037324840E+03  0.00000000000E+00 0. -1.
         24    2    1    2    0    0  0.14083814975E+03  0.21000181833E+03  0.58554983907E-01  0.26550949753E+03  0.80988528350E+02 0.  0.
         25    2    1    2    0    0 -0.39121546596E+03 -0.40818335486E+03  0.48248454265E+03  0.75372567652E+03  0.12509144479E+03 0.  0.
        -24    2    1    2    0    0  0.25037731621E+03  0.19818153653E+03  0.22368656101E+04  0.22609200305E+04  0.78910739105E+02 0.  0.
        -11    1    3    3    0    0  0.24163428038E+02 -0.50970007793E+00  0.54123472703E+01  0.24767409063E+02  0.00000000000E+00 0.  1.
         12    1    3    3    0    0  0.11667472171E+03  0.21051151840E+03 -0.53537922864E+01  0.24074208847E+03  0.00000000000E+00 0. -1.
         11    1    5    5    0    0  0.96283139981E+02  0.12541531897E+03  0.10208480403E+04  0.10330199256E+04  0.00000000000E+00 0. -1.
        -12    1    5    5    0    0  0.15409417623E+03  0.72766217559E+02  0.12160175698E+04  0.12279001049E+04  0.00000000000E+00 0.  1.
          5    1    4    4  501    0 -0.59197486386E+02 -0.77350915566E+02  0.15058663699E+03  0.17939151087E+03  0.41800000000E+01 0. -1.
         -5    1    4    4    0  501 -0.33201797957E+03 -0.33083243929E+03  0.33189790566E+03  0.57433416565E+03  0.41800000000E+01 0. -1.
</event>
<event>
11    1  0.1078607E-008  0.1363968E+03  0.7561462E-02  0.1111650E+00
         22   -1    0    0    0    0  0.00000000000E+00  0.00000000000E+00  0.10570538393E+04  0.10570538393E+04  0.00000000000E+00 0.  1.
         22   -1    0    0    0    0 -0.00000000000E+00 -0.00000000000E+00 -0.39748457382E+03  0.39748457382E+03  0.00000000000E+00 0.  1.
         24    2    1    2    0    0  0.19850885661E+02 -0.50953907981E+02 -0.37747605265E+03  0.38986654159E+03  0.80730363136E+02 0.  0.
         25    2    1    2    0    0 -0.65050235862E+01  0.32260814238E+02  0.37403763326E+03  0.39577693106E+03  0.12510856325E+03 0.  0.
        -24    2    1    2    0    0 -0.13345862074E+02  0.18693093743E+02  0.66300768486E+03  0.66889494045E+03  0.85520216298E+02 0.  0.
        -13    1    3    3    0    0  0.26766505104E+02 -0.54650057289E+02 -0.37714009299E+03  0.38201796332E+03  0.00000000000E+00 0.  1.
         14    1    3    3    0    0 -0.69156194435E+01  0.36961493077E+01 -0.33595965280E+00  0.78485782713E+01  0.00000000000E+00 0. -1.
         13    1    5    5    0    0 -0.37628439694E+02  0.39063467503E+02  0.33536208515E+03  0.33971985830E+03  0.00000000000E+00 0. -1.
        -14    1    5    5    0    0  0.24282577620E+02 -0.20370373760E+02  0.32764559971E+03  0.32917508215E+03  0.00000000000E+00 0.  1.
          5    1    4    4  501    0  0.18894675882E+02  0.73664314115E+02  0.27555936928E+03  0.28589137508E+03  0.41800000000E+01 0.  1.
         -5    1    4    4    0  501 -0.25399699468E+02 -0.41403499878E+02  0.98478263981E+02  0.10988555598E+03  0.41800000000E+01 0.  1.
</event>
<event>
11    1  0.1078607E-008  0.1545888E+03  0.7561462E-02  0.1092280E+00
         22   -1    0    0    0    0  0.00000000000E+00  0.00000000000E+00  0.18017538317E+04  0.18017538317E+04  0.00000000000E+00 0. -1.
         22   -1    0    0    0    0 -0.00000000000E+00 -0.00000000000E+00 -0.50793194883E+03  0.50793194883E+03  0.00000000000E+00 0. -1.
         24    2    1    2    0    0 -0.50647862453E+01  0.56231272873E+02 -0.34977595258E+03  0.36371444819E+03  0.82203252446E+02 0.  0.
         25    2    1    2    0    0 -0.56264954302E+02  0.11589756477E+02 -0.11737324129E+03  0.18089918124E+03  0.12509184012E+03 0.  0.
        -24    2    1    2    0    0  0.61329740547E+02 -0.67821029350E+02  0.17609710768E+04  0.17650721511E+04  0.78099528599E+02 0.  0.
        -13    1    3    3    0    0  0.16095536638E+02  0.46623573314E+02 -0.87768379030E+02  0.10067826104E+03  0.00000000000E+00 0.  1.
         14    1    3    3    0    0 -0.21160322883E+02  0.96076995592E+01 -0.26200757355E+03  0.26303618715E+03  0.00000000000E+00 0. -1.
         11    1    5    5    0    0  0.14706286646E+02 -0.56882624394E+02  0.13571860606E+04  0.13584571804E+04  0.00000000000E+00 0. -1.
        -12    1    5    5    0    0  0.46623453901E+02 -0.10938404956E+02  0.40378501616E+03  0.40661497074E+03  0.00000000000E+00 0.  1.
          5    1    4    4  501    0 -0.39957973063E+02 -0.43110111098E+02 -0.10770467868E+02  0.59904896864E+02  0.41800000000E+01 0. -1.
         -5    1    4    4    0  501 -0.16306981239E+02  0.54699867575E+02 -0.10660277342E+03  0.12099428437E+03  0.41800000000E+01 0. -1.
</event>
<event>
11    1  0.1078607E-008  0.1621285E+03  0.7561462E-02  0.1085092E+00
         22   -1    0    0    0    0  0.00000000000E+00  0.00000000000E+00  0.45025019024E+04  0.45025019024E+04  0.00000000000E+00 0. -1.
         22   -1    0    0    0    0 -0.00000000000E+00 -0.00000000000E+00 -0.38185113979E+03  0.38185113979E+03  0.00000000000E+00 0.  1.
        -24    2    1    2    0    0 -0.16279410143E+02 -0.31952850141E+02 -0.26799093871E+03  0.28312286145E+03  0.83984567744E+02 0.  0.
         25    2    1    2    0    0 -0.71858048292E+02  0.85465803272E+02 -0.38501139213E+02  0.17204272517E+03  0.12509348077E+03 0.  0.
         24    2    1    2    0    0  0.88137458436E+02 -0.53512953132E+02  0.44271428405E+04  0.44291874555E+04  0.86463508417E+02 0.  0.
        -13    1    5    5    0    0 -0.68753643768E+01  0.13026436630E+02  0.24937634336E+03  0.24981096716E+03  0.00000000000E+00 0.  1.
         14    1    5    5    0    0  0.95012822812E+02 -0.66539389761E+02  0.41777664971E+04  0.41793764884E+04  0.00000000000E+00 0. -1.
         11    1    3    3    0    0 -0.43735240327E+02 -0.33162345985E+01 -0.19675930583E+03  0.20158867302E+03  0.00000000000E+00 0. -1.
        -12    1    3    3    0    0  0.27455830184E+02 -0.28636615542E+02 -0.71231632879E+02  0.81534188433E+02  0.00000000000E+00 0.  1.
          5    1    4    4  501    0 -0.10393812302E+03  0.63833521634E+02 -0.74815037790E+01  0.12227549714E+03  0.41800000000E+01 0. -1.
         -5    1    4    4    0  501  0.32080074731E+02  0.21632281638E+02 -0.31019635434E+02  0.49767228033E+02  0.41800000000E+01 0. -1.
</event>
<event>
11    1  0.1078607E-008  0.1582112E+03  0.7561462E-02  0.1088772E+00
         22   -1    0    0    0    0  0.00000000000E+00  0.00000000000E+00  0.99595292307E+03  0.99595292307E+03  0.00000000000E+00 0. -1.
         22   -1    0    0    0    0 -0.00000000000E+00 -0.00000000000E+00 -0.54756217815E+03  0.54756217815E+03  0.00000000000E+00 0. -1.
         24    2    1    2    0    0 -0.15944548587E+02  0.66362771197E+01 -0.32260825121E+03  0.33418245833E+03  0.85460885208E+02 0.  0.
         25    2    1    2    0    0  0.98014370899E+02  0.44496642713E+02 -0.18385619539E+03  0.24705812795E+03  0.12509136616E+03 0.  0.
        -24    2    1    2    0    0 -0.82069822312E+02 -0.51132919833E+02  0.95485519153E+03  0.96227451494E+03  0.69812420737E+02 0.  0.
        -11    1    3    3    0    0 -0.12997159639E+01  0.43129350532E+02 -0.11383533899E+03  0.12173871423E+03  0.00000000000E+00 0.  1.
         12    1    3    3    0    0 -0.14644832623E+02 -0.36493073412E+02 -0.20877291223E+03  0.21244374410E+03  0.00000000000E+00 0. -1.
         11    1    5    5    0    0 -0.21518691301E+02 -0.49058159654E+02  0.31149801870E+03  0.31607083503E+03  0.00000000000E+00 0. -1.
        -12    1    5    5    0    0 -0.60551131011E+02 -0.20747601790E+01  0.64335717283E+03  0.64620367991E+03  0.00000000000E+00 0.  1.
          5    1    4    4  501    0  0.10089651065E+02  0.19656187528E+02 -0.14657512238E+03  0.14828993785E+03  0.41800000000E+01 0. -1.
         -5    1    4    4    0  501  0.87924719835E+02  0.24840455185E+02 -0.37281073015E+02  0.98768190106E+02  0.41800000000E+01 0. -1.
</event>
<event>
11    1  0.1078607E-008  0.1593135E+03  0.7561462E-02  0.1087725E+00
         22   -1    0    0    0    0  0.00000000000E+00  0.00000000000E+00  0.90471385337E+02  0.90471385337E+02  0.00000000000E+00 0.  1.
         22   -1    0    0    0    0 -0.00000000000E+00 -0.00000000000E+00 -0.32018489230E+04  0.32018489230E+04  0.00000000000E+00 0.  1.
        -24    2    1    2    0    0  0.79149468662E+02  0.55589344539E+02 -0.27433117618E+04  0.27462945467E+04  0.83782464267E+02 0.  0.
         25    2    1    2    0    0 -0.96966507836E+02 -0.73409044601E+02 -0.41338318580E+03  0.44869271683E+03  0.12509238329E+03 0.  0.
         24    2    1    2    0    0  0.17817039174E+02  0.17819700062E+02  0.45317409930E+02  0.97333044797E+02  0.82371508251E+02 0.  0.
        -11    1    5    5    0    0  0.29919775612E+02  0.91018460400E+01  0.65297049211E+02  0.72399870233E+02  0.00000000000E+00 0.  1.
         12    1    5    5    0    0 -0.12102736439E+02  0.87178540220E+01 -0.19979639281E+02  0.24933174564E+02  0.00000000000E+00 0. -1.
         13    1    3    3    0    0  0.30731928464E+02 -0.20688250536E+02 -0.68528808414E+03  0.68628872452E+03  0.00000000000E+00 0. -1.
        -14    1    3    3    0    0  0.48417540198E+02  0.76277595075E+02 -0.20580236776E+04  0.20600058222E+04  0.00000000000E+00 0.  1.
          5    1    4    4  501    0 -0.75284884600E+02  0.10714864000E+01 -0.31191578002E+03  0.32090167989E+03  0.41800000000E+01 0. -1.
         -5    1    4    4    0  501 -0.21681623236E+02 -0.74480531001E+02 -0.10146740579E+03  0.12779103694E+03  0.41800000000E+01 0. -1.
</event>
<event>
11    1  0.1078607E-008  0.9215250E+03  0.7561462E-02  0.8757460E-01
         22   -1    0    0    0    0  0.00000000000E+00  0.00000000000E+00  0.11809063634E+04  0.11809063634E+04  0.00000000000E+00 0. -1.
         22   -1    0    0    0    0 -0.00000000000E+00 -0.00000000000E+00 -0.14595771394E+04  0.14595771394E+04  0.00000000000E+00 0. -1.
         24    2    1    2    0    0  0.22220730276E+03  0.22750257938E+03 -0.59486359704E+03  0.67939771661E+03  0.81148316241E+02 0.  0.
         25    2    1    2    0    0 -0.93215891315E+03  0.31158585056E+03 -0.54427928630E+02  0.99227811405E+03  0.12508986603E+03 0.  0.
        -24    2    1    2    0    0  0.70995161038E+03 -0.53908842995E+03  0.37062074965E+03  0.96880767219E+03  0.81123000671E+02 0.  0.
        -13    1    3    3    0    0  0.10332199360E+03  0.14258714445E+03 -0.25961093352E+03  0.31369470019E+03  0.00000000000E+00 0.  1.
         14    1    3    3    0    0  0.11888530916E+03  0.84915434934E+02 -0.33525266351E+03  0.36570301642E+03  0.00000000000E+00 0. -1.
         11    1    5    5    0    0  0.30312817845E+03 -0.18802528878E+03  0.12497113119E+03  0.37796558761E+03  0.00000000000E+00 0. -1.
        -12    1    5    5    0    0  0.40682343193E+03 -0.35106314117E+03  0.24564961846E+03  0.59084208458E+03  0.00000000000E+00 0.  1.
          5    1    4    4  501    0 -0.34337402637E+03  0.17411275571E+03  0.19252966598E+01  0.38502227579E+03  0.41800000000E+01 0.  1.
         -5    1    4    4    0  501 -0.58878488678E+03  0.13747309485E+03 -0.56353225290E+02  0.60725583827E+03  0.41800000000E+01 0.  1.
</event>
<event>
11    1  0.1078607E-008  0.1283549E+03  0.7561462E-02  0.1121307E+00
         22   -1    0    0    0    0  0.00000000000E+00  0.00000000000E+00  0.19261714988E+04  0.19261714988E+04  0.00000000000E+00 0.  1.
         22   -1    0    0    0    0 -0.00000000000E+00 -0.00000000000E+00 -0.63460247444E+03  0.63460247444E+03  0.00000000000E+00 0.  1.
        -24    2    1    2    0    0 -0.10553379556E+02  0.68589264722E+01 -0.60704165817E+03  0.61243957643E+03  0.80151365126E+02 0.  0.
         25    2    1    2    0    0 -0.11469403476E+02  0.12400893056E+02  0.14324799903E+03  0.19092940253E+03  0.12509483667E+03 0.  0.
         24    2    1    2    0    0  0.22022783032E+02 -0.19259819528E+02  0.17553626835E+04  0.17574049943E+04  0.79487229571E+02 0.  0.
        -13    1    5    5    0    0  0.19654626714E+02 -0.47384212904E+02  0.13932403848E+04  0.13941844705E+04  0.00000000000E+00 0.  1.
         14    1    5    5    0    0  0.23681563180E+01  0.28124393376E+02  0.36212229867E+03  0.36322052373E+03  0.00000000000E+00 0. -1.
         11    1    3    3    0    0  0.18030906873E+02  0.10949198867E+02 -0.45459115971E+02  0.50115165204E+02  0.00000000000E+00 0. -1.
        -12    1    3    3    0    0 -0.28584286429E+02 -0.40902723950E+01 -0.56158254220E+03  0.56232441123E+03  0.00000000000E+00 0.  1.
          5    1    4    4  501    0 -0.59494556269E+01  0.52569155321E+02  0.14037023959E+03  0.15006728050E+03  0.41800000000E+01 0.  1.
         -5    1    4    4    0  501 -0.55199478491E+01 -0.40168262265E+02  0.28777594361E+01  0.40862122033E+02  0.41800000000E+01 0.  1.
</event>
<event>
11    1  0.1078607E-008  0.1875780E+03  0.7561462E-02  0.1063673E+00
         22   -1    0    0    0    0  0.00000000000E+00  0.00000000000E+00  0.57791149608E+03  0.57791149608E+03  0.00000000000E+00 0.  1.
         22   -1    0    0    0    0 -0.00000000000E+00 -0.00000000000E+00 -0.68432006698E+03  0.68432006698E+03  0.00000000000E+00 0.  1.
         24    2    1    2    0    0  0.63930261576E+01 -0.35752858064E+02 -0.37719727833E+03  0.38716817448E+03  0.79386843416E+02 0.  0.
         25    2    1    2    0    0  0.12261960953E+03 -0.20066855294E+02 -0.26332632297E+03  0.31690187217E+03  0.12509115433E+03 0.  0.
        -24    2    1    2    0    0 -0.12901263569E+03  0.55819713358E+02  0.53411503039E+03  0.55816151641E+03  0.80655515277E+02 0.  0.
        -11    1    3    3    0    0 -0.78203690591E+01 -0.37867486009E+02 -0.36817690897E+03  0.37020175711E+03  0.00000000000E+00 0.  1.
         12    1    3    3    0    0  0.14213395217E+02  0.21146279453E+01 -0.90203693574E+01  0.16966417367E+02  0.00000000000E+00 0. -1.
         11    1    5    5    0    0 -0.69395542985E+02  0.47685967447E+02  0.17692544741E+03  0.19593954889E+03  0.00000000000E+00 0. -1.
        -12    1    5    5    0    0 -0.59617092707E+02  0.81337459112E+01  0.35718958298E+03  0.36222196752E+03  0.00000000000E+00 0.  1.
          5    1    4    4  501    0  0.13272628370E+03  0.53288608005E+01 -0.25577087015E+03  0.28823752975E+03  0.41800000000E+01 0. -1.
         -5    1    4    4    0  501 -0.10106674164E+02 -0.25395716095E+02 -0.75554528168E+01  0.28664342412E+02  0.41800000000E+01 0. -1.
</event>
<event>
11    1  0.1078607E-008  0.2303796E+03  0.7561462E-02  0.1034903E+00
         22   -1    0    0    0    0  0.00000000000E+00  0.00000000000E+00  0.69784376395E+03  0.69784376395E+03  0.00000000000E+00 0. -1.
         22   -1    0    0    0    0 -0.00000000000E+00 -0.00000000000E+00 -0.39535750927E+03  0.39535750927E+03  0.00000000000E+00 0.  1.
         24    2    1    2    0    0  0.13509474020E+03  0.11296021902E+03 -0.19189329819E+03  0.27236963042E+03  0.79696786481E+02 0.  0.
         25    2    1    2    0    0 -0.19902234684E+03 -0.14438397207E+03 -0.37304355728E+02  0.27837901875E+03  0.12508651882E+03 0.  0.
        -24    2    1    2    0    0  0.63927606640E+02  0.31423753052E+02  0.53168390859E+03  0.54245262404E+03  0.80578406079E+02 0.  0.
        -13    1    3    3    0    0  0.11521259109E+03  0.80087874404E+02 -0.18678158958E+03  0.23361372173E+03  0.00000000000E+00 0.  1.
         14    1    3    3    0    0  0.19882149103E+02  0.32872344618E+02 -0.51117086063E+01  0.38755908691E+02  0.00000000000E+00 0. -1.
         13    1    5    5    0    0  0.44102671621E+02 -0.20938418686E+02  0.30927134976E+03  0.31310099138E+03  0.00000000000E+00 0. -1.
        -14    1    5    5    0    0  0.19824935019E+02  0.52362171738E+02  0.22241255884E+03  0.22935163267E+03  0.00000000000E+00 0.  1.
          5    1    4    4  501    0 -0.94838662831E+02 -0.14107838697E+03 -0.89736413842E+01  0.17028059748E+03  0.41800000000E+01 0.  1.
         -5    1    4    4    0  501 -0.10418368401E+03 -0.33055851028E+01 -0.28330714344E+02  0.10809842127E+03  0.41800000000E+01 0.  1.
</event>
<event>
11    1  0.1078607E-008  0.1987771E+03  0.7561462E-02  0.1055392E+00
         22   -1    0    0    0    0  0.00000000000E+00  0.00000000000E+00  0.51915016427E+03  0.51915016427E+03  0.00000000000E+00 0.  1.
         22   -1    0    0    0    0 -0.00000000000E+00 -0.00000000000E+00 -0.33759392449E+03  0.33759392449E+03  0.00000000000E+00 0. -1.
        -24    2    1    2    0    0  0.66516607645E+01 -0.14875749438E+03 -0.16087008904E+03  0.23437576804E+03  0.82944429422E+02 0.  0.
         25    2    1    2    0    0 -0.59754290350E+02  0.16218558240E+03 -0.48879022935E+02  0.21888499373E+03  0.12508694274E+03 0.  0.
         24    2    1    2    0    0  0.53102629586E+02 -0.13428088014E+02  0.39130535175E+03  0.40348332700E+03  0.81723399559E+02 0.  0.
        -11    1    5    5    0    0  0.36869712760E+02 -0.34452305150E+02  0.35461645269E+03  0.35818872898E+03  0.00000000000E+00 0.  1.
         12    1    5    5    0    0  0.16232916826E+02  0.21024217136E+02  0.36688899059E+02  0.45294598011E+02  0.00000000000E+00 0. -1.
         13    1    3    3    0    0  0.33947547133E+02 -0.13609415345E+03 -0.12942290574E+03  0.19085162585E+03  0.00000000000E+00 0. -1.
        -14    1    3    3    0    0 -0.27295886369E+02 -0.12663340937E+02 -0.31447183299E+02  0.43524142195E+02  0.00000000000E+00 0.  1.
          5    1    4    4  501    0  0.21816366280E+02  0.45356227662E+02  0.27138272666E+02  0.57333231801E+02  0.41800000000E+01 0.  1.
         -5    1    4    4    0  501 -0.81570656631E+02  0.11682935473E+03 -0.76017295602E+02  0.16155176193E+03  0.41800000000E+01 0.  1.
</event>
<event>
11    1  0.1078607E-008  0.2060931E+03  0.7561462E-02  0.1050297E+00
         22   -1    0    0    0    0  0.00000000000E+00  0.00000000000E+00  0.13006683854E+03  0.13006683854E+03  0.00000000000E+00 0.  1.
         22   -1    0    0    0    0 -0.00000000000E+00 -0.00000000000E+00 -0.68175233864E+03  0.68175233864E+03  0.00000000000E+00 0. -1.
         24    2    1    2    0    0  0.15236958518E+03 -0.29265060885E+02 -0.18161554488E+03  0.25196985109E+03  0.80197664784E+02 0.  0.
         25    2    1    2    0    0 -0.33860680022E+02 -0.13811345314E+03 -0.23239422030E+03  0.29979336346E+03  0.12508843094E+03 0.  0.
        -24    2    1    2    0    0 -0.11850890516E+03  0.16737851402E+03 -0.13767573490E+03  0.26005596263E+03  0.81329995454E+02 0.  0.
        -11    1    3    3    0    0  0.26456688213E+02  0.57562954944E+00  0.28794804622E+01  0.26619149278E+02  0.00000000000E+00 0.  1.
         12    1    3    3    0    0  0.12591289697E+03 -0.29840690435E+02 -0.18449502535E+03  0.22535070181E+03  0.00000000000E+00 0. -1.
         11    1    5    5    0    0 -0.12142299035E+03  0.15111430197E+03 -0.14489957831E+03  0.24202264902E+03  0.00000000000E+00 0. -1.
        -12    1    5    5    0    0  0.29140851877E+01  0.16264212052E+02  0.72238434081E+01  0.18033313609E+02  0.00000000000E+00 0.  1.
          5    1    4    4  501    0 -0.78122179156E+02 -0.11502699240E+03 -0.17660734832E+03  0.22481528360E+03  0.41800000000E+01 0. -1.
         -5    1    4    4    0  501  0.44261499134E+02 -0.23086460739E+02 -0.55786871980E+02  0.74978079866E+02  0.41800000000E+01 0. -1.
</event>
<event>
11    1  0.1078607E-008  0.1297985E+03  0.7561462E-02  0.1119517E+00
         22   -1    0    0    0    0  0.00000000000E+00  0.00000000000E+00  0.53964762918E+03  0.53964762918E+03  0.00000000000E+00 0. -1.
         22   -1    0    0    0    0 -0.00000000000E+00 -0.00000000000E+00 -0.96336127401E+03  0.96336127401E+03  0.00000000000E+00 0. -1.
         24    2    1    2    0    0 -0.24342425347E+02  0.20597322118E+02 -0.92692362845E+03  0.93115176437E+03  0.82700616398E+02 0.  0.
         25    2    1    2    0    0 -0.13846355473E+02 -0.19760983774E+02  0.10978730346E+03  0.16817917376E+03  0.12509502166E+03 0.  0.
        -24    2    1    2    0    0  0.38188780820E+02 -0.83633834383E+00  0.39342268015E+03  0.40367796507E+03  0.81947616072E+02 0.  0.
        -11    1    3    3    0    0  0.30048843000E+02  0.96031371627E+01 -0.25578031365E+03  0.25771829982E+03  0.00000000000E+00 0.  1.
         12    1    3    3    0    0 -0.54391268347E+02  0.10994184956E+02 -0.67114331480E+03  0.67343346455E+03  0.00000000000E+00 0. -1.
         13    1    5    5    0    0 -0.10547510476E+02 -0.25019247703E+02  0.22628452288E+03  0.22790765241E+03  0.00000000000E+00 0. -1.
        -14    1    5    5    0    0  0.48736291296E+02  0.24182909359E+02  0.16713815727E+03  0.17577031265E+03  0.00000000000E+00 0.  1.
          5    1    4    4  501    0  0.45874647098E+01  0.89562347717E+01  0.12855131142E+03  0.12901229027E+03  0.41800000000E+01 0. -1.
         -5    1    4    4    0  501 -0.18433820182E+02 -0.28717218546E+02 -0.18764007953E+02  0.39166883486E+02  0.41800000000E+01 0. -1.
</event>
<event>
11    1  0.1078607E-008  0.1297453E+03  0.7561462E-02  0.1119582E+00
         22   -1    0    0    0    0  0.00000000000E+00  0.00000000000E+00  0.10559262232E+04  0.10559262232E+04  0.00000000000E+00 0. -1.
         22   -1    0    0    0    0 -0.00000000000E+00 -0.00000000000E+00 -0.11442815468E+04  0.11442815468E+04  0.00000000000E+00 0. -1.
         24    2    1    2    0    0  0.29825734281E+02  0.29352528735E+02 -0.10745520972E+04  0.10783262030E+04  0.79837616900E+02 0.  0.
         25    2    1    2    0    0 -0.15442282584E+01 -0.75132157000E+01 -0.59986941853E+01  0.12546894244E+03  0.12509051976E+03 0.  0.
        -24    2    1    2    0    0 -0.28281506023E+02 -0.21839313035E+02  0.99219546783E+03  0.99641262459E+03  0.84317690152E+02 0.  0.
        -13    1    3    3    0    0  0.74295728250E+01  0.19702279612E+02 -0.61954575135E+02  0.65435065175E+02  0.00000000000E+00 0.  1.
         14    1    3    3    0    0  0.22396161456E+02  0.96502491223E+01 -0.10125975221E+04  0.10128911378E+04  0.00000000000E+00 0. -1.
         11    1    5    5    0    0 -0.48270052630E+02  0.13515422636E+02  0.48035459196E+03  0.48296293713E+03  0.00000000000E+00 0. -1.
        -12    1    5    5    0    0  0.19988546607E+02 -0.35354735671E+02  0.51184087588E+03  0.51344968746E+03  0.00000000000E+00 0.  1.
          5    1    4    4  501    0 -0.19399209530E+02 -0.39678753674E+02  0.44509386331E+02  0.62843382270E+02  0.41800000000E+01 0. -1.
         -5    1    4    4    0  501  0.17854981272E+02  0.32165537974E+02 -0.50508080517E+02  0.62625560172E+02  0.41800000000E+01 0. -1.
</event>
<event>
11    1  0.1078607E-008  0.1896147E+03  0.7561462E-02  0.1062121E+00
         22   -1    0    0    0    0  0.00000000000E+00  0.00000000000E+00  0.63459646486E+03  0.63459646486E+03  0.00000000000E+00 0. -1.
         22   -1    0    0    0    0 -0.00000000000E+00 -0.00000000000E+00 -0.27890919030E+04  0.27890919030E+04  0.00000000000E+00 0.  1.
        -24    2    1    2    0    0  0.73893839451E+02  0.12393321243E+03 -0.25070687532E+04  0.25125041969E+04  0.80398169247E+02 0.  0.
         25    2    1    2    0    0  0.63048145351E+01 -0.14257214984E+03 -0.24097781120E+03  0.30673045848E+03  0.12508677019E+03 0.  0.
         24    2    1    2    0    0 -0.80198653987E+02  0.18638937416E+02  0.59355112618E+03  0.60445371253E+03  0.79259807663E+02 0.  0.
        -13    1    5    5    0    0 -0.32571618637E+02  0.17948286005E+02  0.74945661388E+02  0.83665425787E+02  0.00000000000E+00 0.  1.
         14    1    5    5    0    0 -0.47627035350E+02  0.69065141031E+00  0.51860546480E+03  0.52078828675E+03  0.00000000000E+00 0. -1.
         11    1    3    3    0    0  0.87424148642E+02  0.78421628973E+02 -0.18467464780E+04  0.18504770973E+04  0.00000000000E+00 0. -1.
        -12    1    3    3    0    0 -0.13530309191E+02  0.45511583455E+02 -0.66032227514E+03  0.66202709955E+03  0.00000000000E+00 0.  1.
          5    1    4    4  501    0 -0.11454239807E+02 -0.19211865749E+02  0.11232134104E+02  0.25375748889E+02  0.41800000000E+01 0.  1.
         -5    1    4    4    0  501  0.17759054342E+02 -0.12336028409E+03 -0.25220994530E+03  0.28135470960E+03  0.41800000000E+01 0.  1.
</event>
<event>
11    1  0.1078607E-008  0.1337234E+03  0.7561462E-02  0.1114777E+00
         22   -1    0    0    0    0  0.00000000000E+00  0.00000000000E+00  0.47370755092E+03  0.47370755092E+03  0.00000000000E+00 0.  1.
         22   -1    0    0    0    0 -0.00000000000E+00 -0.00000000000E+00 -0.30600611813E+03  0.30600611813E+03  0.00000000000E+00 0.  1.
        -24    2    1    2    0    0  0.28167315497E+02 -0.25905684740E+02 -0.20751012806E+03  0.22602182028E+03  0.80999431057E+02 0.  0.
         25    2    1    2    0    0  0.13747568856E+02 -0.39593286496E+00 -0.36858312568E+02  0.13112917234E+03  0.12508865744E+03 0.  0.
         24    2    1    2    0    0 -0.41914884354E+02  0.26301617605E+02  0.41206987341E+03  0.42256267643E+03  0.79429228365E+02 0.  0.
        -11    1    5    5    0    0 -0.30311167713E+02 -0.10796586579E+02  0.33200900003E+03  0.33356455038E+03  0.00000000000E+00 0.  1.
         12    1    5    5    0    0 -0.11603716640E+02  0.37098204184E+02  0.80060873385E+02  0.88998126052E+02  0.00000000000E+00 0. -1.
         13    1    3    3    0    0  0.44690541600E+01 -0.35536417470E+02 -0.30122638454E+02  0.46799388448E+02  0.00000000000E+00 0. -1.
        -14    1    3    3    0    0  0.23698261337E+02  0.96307327303E+01 -0.17738748961E+03  0.17922243183E+03  0.00000000000E+00 0.  1.
          5    1    4    4  501    0 -0.41882796596E+02  0.39070071992E+02 -0.19125172142E+02  0.60530023836E+02  0.41800000000E+01 0.  1.
         -5    1    4    4    0  501  0.55630365452E+02 -0.39466004857E+02 -0.17733140425E+02  0.70599148501E+02  0.41800000000E+01 0.  1.
</event>
<event>
11    1  0.1078607E-008  0.1272423E+03  0.7561462E-02  0.1122704E+00
         22   -1    0    0    0    0  0.00000000000E+00  0.00000000000E+00  0.17338520792E+04  0.17338520792E+04  0.00000000000E+00 0.  1.
         22   -1    0    0    0    0 -0.00000000000E+00 -0.00000000000E+00 -0.12186936517E+03  0.12186936517E+03  0.00000000000E+00 0.  1.
        -24    2    1    2    0    0 -0.68427310262E+01  0.22362554608E+02 -0.94711782919E+02  0.12574319797E+03  0.79335510309E+02 0.  0.
         25    2    1    2    0    0  0.29548594191E+02 -0.12772630833E+02  0.38076065024E+03  0.40207245232E+03  0.12508926664E+03 0.  0.
         24    2    1    2    0    0 -0.22705863164E+02 -0.95899237749E+01  0.13259338467E+04  0.13279057941E+04  0.68012566751E+02 0.  0.
        -11    1    5    5    0    0  0.68892746543E+01 -0.33420924610E+02  0.67927305480E+03  0.68012962241E+03  0.00000000000E+00 0.  1.
         12    1    5    5    0    0 -0.29595137819E+02  0.23831000835E+02  0.64666079194E+03  0.64777617170E+03  0.00000000000E+00 0. -1.
         13    1    3    3    0    0 -0.44396107955E+01 -0.11888734252E+01  0.13869466291E+02  0.14611148457E+02  0.00000000000E+00 0. -1.
        -14    1    3    3    0    0 -0.24031202306E+01  0.23551428033E+02 -0.10858124921E+03  0.11113204951E+03  0.00000000000E+00 0.  1.
          5    1    4    4  501    0  0.25816477752E+02  0.43090897895E+02  0.29692901128E+03  0.30117706776E+03  0.41800000000E+01 0.  1.
         -5    1    4    4    0  501  0.37321164391E+01 -0.55863528728E+02  0.83831638961E+02  0.10089538456E+03  0.41800000000E+01 0.  1.
</event>
<event>
11    1  0.1078607E-008  0.1628763E+03  0.7561462E-02  0.1084403E+00
         22   -1    0    0    0    0  0.00000000000E+00  0.00000000000E+00  0.30469472174E+03  0.30469472174E+03  0.00000000000E+00 0.  1.
         22   -1    0    0    0    0 -0.00000000000E+00 -0.00000000000E+00 -0.68625699327E+03  0.68625699327E+03  0.00000000000E+00 0.  1.
         24    2    1    2    0    0 -0.13512111930E+02  0.41289601992E+02 -0.52730762724E+03  0.53531827316E+03  0.81393558944E+02 0.  0.
         25    2    1    2    0    0  0.11487650847E+03 -0.19412158224E+02 -0.84668489550E+02  0.19076286699E+03  0.12509306222E+03 0.  0.
        -24    2    1    2    0    0 -0.10136439654E+03 -0.21877443768E+02  0.23041384526E+03  0.26487057486E+03  0.79451355620E+02 0.  0.
        -13    1    3    3    0    0 -0.86043320257E+01  0.22201560049E+02 -0.50496118830E+03  0.50552225024E+03  0.00000000000E+00 0.  1.
         14    1    3    3    0    0 -0.49077799042E+01  0.19088041943E+02 -0.22346438936E+02  0.29796022921E+02  0.00000000000E+00 0. -1.
         13    1    5    5    0    0 -0.65520698639E+02  0.14465604985E+02  0.71921856729E+02  0.98361421061E+02  0.00000000000E+00 0. -1.
        -14    1    5    5    0    0 -0.35843697901E+02 -0.36343048753E+02  0.15849198853E+03  0.16650915380E+03  0.00000000000E+00 0.  1.
          5    1    4    4  501    0  0.55627123737E+02 -0.58931083665E+02 -0.87537466612E+02  0.11936301763E+03  0.41800000000E+01 0.  1.
         -5    1    4    4    0  501  0.59249384733E+02  0.39518925441E+02  0.28689770614E+01  0.71399849360E+02  0.41800000000E+01 0.  1.
</event>
<event>
11    1  0.1078607E-008  0.1710830E+03  0.7561462E-02  0.1077093E+00
         22   -1    0    0    0    0  0.00000000000E+00  0.00000000000E+00  0.41907025315E+03  0.41907025315E+03  0.00000000000E+00 0. -1.
         22   -1    0    0    0    0 -0.00000000000E+00 -0.00000000000E+00 -0.57013927230E+03  0.57013927230E+03  0.00000000000E+00 0. -1.
         24    2    1    2    0    0 -0.89513409784E+02 -0.92570714276E+02 -0.48142322276E+03  0.50455510892E+03  0.78902159975E+02 0.  0.
         25    2    1    2    0    0  0.44984349592E+00  0.56423934969E+02  0.63771847537E+01  0.13737597753E+03  0.12509047893E+03 0.  0.
        -24    2    1    2    0    0  0.89063566288E+02  0.36146779306E+02  0.32397701885E+03  0.34727843901E+03  0.80014354714E+02 0.  0.
        -11    1    3    3    0    0 -0.92784540914E+01  0.12932802959E+02 -0.28592101759E+02  0.32723926807E+02  0.00000000000E+00 0.  1.
         12    1    3    3    0    0 -0.80234955693E+02 -0.10550351723E+03 -0.45283112100E+03  0.47183118211E+03  0.00000000000E+00 0. -1.
         11    1    5    5    0    0  0.92778450701E+02  0.69901424585E+01  0.27319271660E+03  0.28860173840E+03  0.00000000000E+00 0. -1.
        -12    1    5    5    0    0 -0.37148844129E+01  0.29156636848E+02  0.50784302255E+02  0.58676700606E+02  0.00000000000E+00 0.  1.
          5    1    4    4  501    0  0.57382260206E+02  0.53826843152E+02  0.12984252418E+02  0.79850585727E+02  0.41800000000E+01 0. -1.
         -5    1    4    4    0  501 -0.56932416710E+02  0.25970918176E+01 -0.66070676648E+01  0.57525391798E+02  0.41800000000E+01 0. -1.
</event>
<event>
11    1  0.1078607E-008  0.2307943E+03  0.7561462E-02  0.1034659E+00
         22   -1    0    0    0    0  0.00000000000E+00  0.00000000000E+00  0.13358237713E+04  0.13358237713E+04  0.00000000000E+00 0. -1.
         22   -1    0    0    0    0 -0.00000000000E+00 -0.00000000000E+00 -0.15890739678E+04  0.15890739678E+04  0.00000000000E+00 0.  1.
        -24    2    1    2    0    0  0.11447919502E+03  0.16115395307E+03 -0.14936863504E+04  0.15090175434E+04  0.83420322452E+02 0.  0.
         25    2    1    2    0    0 -0.75530092275E+02 -0.12154530026E+03  0.19499645849E+02  0.19106452483E+03  0.12508941444E+03 0.  0.
         24    2    1    2    0    0 -0.38949102749E+02 -0.39608652809E+02  0.12209365081E+04  0.12248156709E+04  0.80009954735E+02 0.  0.
        -13    1    5    5    0    0  0.60634971393E+01 -0.50656934736E+02  0.62299252117E+03  0.62507805310E+03  0.00000000000E+00 0.  1.
         14    1    5    5    0    0 -0.45012599888E+02  0.11048281927E+02  0.59794398691E+03  0.59973761777E+03  0.00000000000E+00 0. -1.
         11    1    3    3    0    0  0.17015825076E+02  0.68784237015E+02 -0.74699555126E+03  0.75034869439E+03  0.00000000000E+00 0. -1.
        -12    1    3    3    0    0  0.97463369948E+02  0.92369716054E+02 -0.74669079917E+03  0.75866884903E+03  0.00000000000E+00 0.  1.
          5    1    4    4  501    0  0.21818139202E+02 -0.60768238851E+02  0.37561043446E+02  0.74813865266E+02  0.41800000000E+01 0.  1.
         -5    1    4    4    0  501 -0.97348231477E+02 -0.60777061409E+02 -0.18061397598E+02  0.11625065956E+03  0.41800000000E+01 0.  1.
</event>
<event>
11    1  0.1078607E-008  0.1327083E+03  0.7561462E-02  0.1115985E+00
         22   -1    0    0    0    0  0.00000000000E+00  0.00000000000E+00  0.14288214909E+04  0.14288214909E+04  0.00000000000E+00 0.  1.
         22   -1    0    0    0    0 -0.00000000000E+00 -0.00000000000E+00 -0.47756831200E+03  0.47756831200E+03  0.00000000000E+00 0.  1.
        -24    2    1    2    0    0  0.38017255131E+02  0.24735488465E+02 -0.42899414282E+03  0.43874883088E+03  0.80046273769E+02 0.  0.
         25    2    1    2    0    0  0.63090940269E+00 -0.40988295110E+02  0.60704639467E+02  0.14495819091E+03  0.12508950986E+03 0.  0.
         24    2    1    2    0    0 -0.38648164534E+02  0.16252806645E+02  0.13195426823E+04  0.13226827811E+04  0.80864175045E+02 0.  0.
        -11    1    5    5    0    0 -0.57648298136E+02  0.25352915798E+02  0.11662667640E+04  0.11679658649E+04  0.00000000000E+00 0.  1.
         12    1    5    5    0    0  0.19000133602E+02 -0.91001091526E+01  0.15327591826E+03  0.15471691627E+03  0.00000000000E+00 0. -1.
         11    1    3    3    0    0 -0.19139327818E+02  0.17216170030E+02 -0.60158950285E+02  0.65435538350E+02  0.00000000000E+00 0. -1.
        -12    1    3    3    0    0  0.57156582950E+02  0.75193184345E+01 -0.36883519254E+03  0.37331329253E+03  0.00000000000E+00 0.  1.
          5    1    4    4  501    0  0.37870114227E+02 -0.57798268736E+02  0.74437487346E+02  0.10165233565E+03  0.41800000000E+01 0.  1.
         -5    1    4    4    0  501 -0.37239204824E+02  0.16809973626E+02 -0.13732847879E+02  0.43305855264E+02  0.41800000000E+01 0.  1.
</event>
<event>
11    1  0.1078607E-008  0.1412203E+03  0.7561462E-02  0.1106203E+00
         22   -1    0    0    0    0  0.00000000000E+00  0.00000000000E+00  0.41923004496E+03  0.41923004496E+03  0.00000000000E+00 0.  1.
         22   -1    0    0    0    0 -0.00000000000E+00 -0.00000000000E+00 -0.16914256908E+03  0.16914256908E+03  0.00000000000E+00 0.  1.
        -24    2    1    2    0    0  0.57186397955E+02  0.28493191485E+02 -0.89341317937E+02  0.13543138317E+03  0.79231574421E+02 0.  0.
         25    2    1    2    0    0 -0.58860677326E+02 -0.44891647163E+02  0.53440247255E+02  0.15486705917E+03  0.12509239253E+03 0.  0.
         24    2    1    2    0    0  0.16742793707E+01  0.16398455677E+02  0.28598854656E+03  0.29807417169E+03  0.82383557266E+02 0.  0.
        -13    1    5    5    0    0 -0.17470066984E+02  0.28417330323E+02  0.26543368239E+03  0.26752156483E+03  0.00000000000E+00 0.  1.
         14    1    5    5    0    0  0.19144346355E+02 -0.12018874646E+02  0.20554864173E+02  0.30552606866E+02  0.00000000000E+00 0. -1.
         13    1    3    3    0    0 -0.74058256916E+01  0.19885991675E+02  0.40005201208E+01  0.21594051966E+02  0.00000000000E+00 0. -1.
        -14    1    3    3    0    0  0.64592223646E+02  0.86071998101E+01 -0.93341838058E+02  0.11383733121E+03  0.00000000000E+00 0.  1.
          5    1    4    4  501    0 -0.21257464890E+02  0.43811921818E+02  0.16192640208E+02  0.51488234616E+02  0.41800000000E+01 0.  1.
         -5    1    4    4    0  501 -0.37603212436E+02 -0.88703568980E+02  0.37247607047E+02  0.10337882455E+03  0.41800000000E+01 0.  1.
</event>
<event>
11    1  0.1078607E-008  0.1450629E+03  0.7561462E-02  0.1102033E+00
         22   -1    0    0    0    0  0.00000000000E+00  0.00000000000E+00  0.22523611665E+03  0.22523611665E+03  0.00000000000E+00 0.  1.
         22   -1    0    0    0    0 -0.00000000000E+00 -0.00000000000E+00 -0.48484075872E+03  0.48484075872E+03  0.00000000000E+00 0.  1.
        -24    2    1    2    0    0 -0.56925336699E+02  0.59506973286E+02 -0.33472442177E+03  0.35395936762E+03  0.80406601505E+02 0.  0.
         25    2    1    2    0    0  0.34429171752E+02 -0.25352477571E+02 -0.95540700808E+02  0.16310731176E+03  0.12509138120E+03 0.  0.
         24    2    1    2    0    0  0.22496164946E+02 -0.34154495715E+02  0.17066048051E+03  0.19301019600E+03  0.80345062938E+02 0.  0.
        -11    1    5    5    0    0  0.38283742387E+02 -0.40577171588E+01  0.14607693101E+03  0.15106481978E+03  0.00000000000E+00 0.  1.
         12    1    5    5    0    0 -0.15787577441E+02 -0.30096778556E+02  0.24583549494E+02  0.41945376225E+02  0.00000000000E+00 0. -1.
         13    1    3    3    0    0 -0.68052865127E+02  0.16104545135E+02 -0.19021048860E+03  0.20265877430E+03  0.00000000000E+00 0. -1.
        -14    1    3    3    0    0  0.11127528429E+02  0.43402428151E+02 -0.14451393317E+03  0.15130059331E+03  0.00000000000E+00 0.  1.
          5    1    4    4  501    0  0.68112372432E+02  0.17430000262E+02 -0.79452709483E+02  0.10617582414E+03  0.41800000000E+01 0. -1.
         -5    1    4    4    0  501 -0.33683200679E+02 -0.42782477833E+02 -0.16087991325E+02  0.56931487618E+02  0.41800000000E+01 0. -1.
</event>
<event>
11    1  0.1078607E-008  0.1480689E+03  0.7561462E-02  0.1098868E+00
         22   -1    0    0    0    0  0.00000000000E+00  0.00000000000E+00  0.19258448255E+03  0.19258448255E+03  0.00000000000E+00 0.  1.
         22   -1    0    0    0    0 -0.00000000000E+00 -0.00000000000E+00 -0.29636346883E+04  0.29636346883E+04  0.00000000000E+00 0.  1.
        -24    2    1    2    0    0 -0.19859583359E+02 -0.38767849903E+02 -0.28022550678E+04  0.28035810684E+04  0.74404251765E+02 0.  0.
         25    2    1    2    0    0 -0.13952965521E+02 -0.39437910498E+02 -0.10724471228E+03  0.16999670465E+03  0.12508963686E+03 0.  0.
         24    2    1    2    0    0  0.33812548880E+02  0.78205760402E+02  0.13844957437E+03  0.18264139778E+03  0.83247619306E+02 0.  0.
        -13    1    5    5    0    0  0.86457530928E+00  0.57549922824E+02  0.13094545403E+03  0.14303654441E+03  0.00000000000E+00 0.  1.
         14    1    5    5    0    0  0.32947973570E+02  0.20655837577E+02  0.75041203407E+01  0.39604853370E+02  0.00000000000E+00 0. -1.
         11    1    3    3    0    0 -0.38366499265E+02  0.50057803627E+01 -0.12563191442E+04  0.12569148094E+04  0.00000000000E+00 0. -1.
        -12    1    3    3    0    0  0.18506915906E+02 -0.43773630266E+02 -0.15459359236E+04  0.15466662590E+04  0.00000000000E+00 0.  1.
          5    1    4    4  501    0 -0.34997999551E+02 -0.77190751829E+02 -0.51233327991E+02  0.99124156680E+02  0.41800000000E+01 0.  1.
         -5    1    4    4    0  501  0.21045034030E+02  0.37752841331E+02 -0.56011384287E+02  0.70872547969E+02  0.41800000000E+01 0.  1.
</event>
<event>
11    1  0.1078607E-008  0.2394279E+03  0.7561462E-02  0.1029687E+00
         22   -1    0    0    0    0  0.00000000000E+00  0.00000000000E+00  0.83502157974E+03  0.83502157974E+03  0.00000000000E+00 0. -1.
         22   -1    0    0    0    0 -0.00000000000E+00 -0.00000000000E+00 -0.11139908840E+04  0.11139908840E+04  0.00000000000E+00 0. -1.
         24    2    1    2    0    0 -0.68707736124E+01  0.39402030917E+01 -0.90804210962E+03  0.91166421044E+03  0.80798682127E+02 0.  0.
         25    2    1    2    0    0  0.19054323686E+03  0.84373882018E+02 -0.10974549794E+03  0.26667869124E+03  0.12509105868E+03 0.  0.
        -24    2    1    2    0    0 -0.18367246325E+03 -0.88314085109E+02  0.73881830327E+03  0.77066956209E+03  0.80895842294E+02 0.  0.
        -13    1    3    3    0    0  0.36942246885E+02  0.42699087615E+01 -0.44757791200E+03  0.44912019442E+03  0.00000000000E+00 0.  1.
         14    1    3    3    0    0 -0.43813020497E+02 -0.32970566990E+00 -0.46046419762E+03  0.46254401603E+03  0.00000000000E+00 0. -1.
         13    1    5    5    0    0 -0.16787789398E+03 -0.67441102012E+02  0.52592147776E+03  0.55616965963E+03  0.00000000000E+00 0. -1.
        -14    1    5    5    0    0 -0.15794569272E+02 -0.20872983098E+02  0.21289682551E+03  0.21449990245E+03  0.00000000000E+00 0.  1.
          5    1    4    4  501    0  0.44111776853E+02  0.56498612501E+02  0.13695560843E+02  0.73095710260E+02  0.41800000000E+01 0. -1.
         -5    1    4    4    0  501  0.14643146001E+03  0.27875269517E+02 -0.12344105879E+03  0.19358298098E+03  0.41800000000E+01 0. -1.
</event>
<event>
11    1  0.1078607E-008  0.1260630E+03  0.7561462E-02  0.1124203E+00
         22   -1    0    0    0    0  0.00000000000E+00  0.00000000000E+00  0.52021530553E+03  0.52021530553E+03  0.00000000000E+00 0. -1.
         22   -1    0    0    0    0 -0.00000000000E+00 -0.00000000000E+00 -0.23921226451E+03  0.23921226451E+03  0.00000000000E+00 0. -1.
         24    2    1    2    0    0 -0.35733480109E+01 -0.12132222298E+02 -0.20319171549E+03  0.21521418308E+03  0.69787618686E+02 0.  0.
         25    2    1    2    0    0  0.62156443273E+01 -0.47257690743E+01  0.12960263964E+03  0.18031958363E+03  0.12512929677E+03 0.  0.
        -24    2    1    2    0    0 -0.26422963164E+01  0.16857991373E+02  0.35459211687E+03  0.36389380333E+03  0.79949716417E+02 0.  0.
        -11    1    3    3    0    0  0.32166080861E+02  0.25801321582E+01 -0.91085189383E+02  0.96632425018E+02  0.00000000000E+00 0.  1.
         12    1    3    3    0    0 -0.35739428872E+02 -0.14712354456E+02 -0.11210652611E+03  0.11858175806E+03  0.00000000000E+00 0. -1.
         11    1    5    5    0    0 -0.40704782715E+02  0.94696224221E+01  0.21460312750E+03  0.21863452476E+03  0.00000000000E+00 0. -1.
        -12    1    5    5    0    0  0.38062486398E+02  0.73883689505E+01  0.13998898937E+03  0.14525927857E+03  0.00000000000E+00 0.  1.
          5    1    4    4  501    0  0.54655086318E+02 -0.36773298177E+02  0.80860995167E+02  0.10438116142E+03  0.41800000000E+01 0. -1.
         -5    1    4    4    0  501 -0.48439441991E+02  0.32047529103E+02  0.48741644477E+02  0.75938422214E+02  0.41800000000E+01 0. -1.
</event>
<event>
11    1  0.1078607E-008  0.1295924E+03  0.7561462E-02  0.1119771E+00
         22   -1    0    0    0    0  0.00000000000E+00  0.00000000000E+00  0.55762656035E+02  0.55762656035E+02  0.00000000000E+00 0. -1.
         22   -1    0    0    0    0 -0.00000000000E+00 -0.00000000000E+00 -0.38668100604E+04  0.38668100604E+04  0.00000000000E+00 0. -1.
         24    2    1    2    0    0  0.15730360306E+02 -0.23067881750E+01 -0.30721311366E+04  0.30733114507E+04  0.83670707383E+02 0.  0.
         25    2    1    2    0    0 -0.46272066145E+02  0.14548484135E+02 -0.74860935505E+03  0.76054520658E+03  0.12514104961E+03 0.  0.
        -24    2    1    2    0    0  0.30541705839E+02 -0.12241695960E+02  0.96930872771E+01  0.88716059117E+02  0.81816430433E+02 0.  0.
        -11    1    3    3    0    0 -0.28028107864E+02 -0.20482668824E+02 -0.17201174350E+04  0.17204676994E+04  0.00000000000E+00 0.  1.
         12    1    3    3    0    0  0.43758468170E+02  0.18175880649E+02 -0.13520137016E+04  0.13528437513E+04  0.00000000000E+00 0. -1.
         11    1    5    5    0    0  0.55000311377E+02 -0.24241760546E+02  0.98292313954E+00  0.60113753367E+02  0.00000000000E+00 0. -1.
        -12    1    5    5    0    0 -0.24458605538E+02  0.12000064586E+02  0.87101641376E+01  0.28602305750E+02  0.00000000000E+00 0.  1.
          5    1    4    4  501    0 -0.33755533300E+02 -0.29054304087E+02 -0.65411453503E+03  0.65564234606E+03  0.41800000000E+01 0. -1.
         -5    1    4    4    0  501 -0.12516532845E+02  0.43602788222E+02 -0.94494820018E+02  0.10490286052E+03  0.41800000000E+01 0. -1.
</event>
<event>
11    1  0.1078607E-008  0.1528702E+03  0.7561462E-02  0.1093982E+00
         22   -1    0    0    0    0  0.00000000000E+00  0.00000000000E+00  0.15489673417E+04  0.15489673417E+04  0.00000000000E+00 0. -1.
         22   -1    0    0    0    0 -0.00000000000E+00 -0.00000000000E+00 -0.38659124107E+03  0.38659124107E+03  0.00000000000E+00 0. -1.
         24    2    1    2    0    0  0.63411341860E+01  0.28928408095E+02 -0.28614457664E+03  0.29857003508E+03  0.79926743519E+02 0.  0.
         25    2    1    2    0    0 -0.63588160816E+02 -0.94719628333E+02 -0.13800172495E+02  0.16986221167E+03  0.12508982375E+03 0.  0.
        -24    2    1    2    0    0  0.57247026630E+02  0.65791220238E+02  0.14623208498E+04  0.14671263360E+04  0.80446948110E+02 0.  0.
        -11    1    3    3    0    0  0.31564717861E+02 -0.13616199064E+02 -0.14469903288E+03  0.14872640118E+03  0.00000000000E+00 0.  1.
         12    1    3    3    0    0 -0.25223583675E+02  0.42544607159E+02 -0.14144554376E+03  0.14984363390E+03  0.00000000000E+00 0. -1.
         13    1    5    5    0    0  0.40056359523E+02  0.27371431006E+02  0.12343129165E+04  0.12352659968E+04  0.00000000000E+00 0. -1.
        -14    1    5    5    0    0  0.17190667106E+02  0.38419789232E+02  0.22800793331E+03  0.23186033920E+03  0.00000000000E+00 0.  1.
          5    1    4    4  501    0 -0.58324905549E+00  0.11821971880E+02 -0.41157457994E+02  0.43029152294E+02  0.41800000000E+01 0. -1.
         -5    1    4    4    0  501 -0.63004911760E+02 -0.10654160021E+03  0.27357285499E+02  0.12683305938E+03  0.41800000000E+01 0. -1.
</event>
<event>
11    1  0.1078607E-008  0.1365345E+03  0.7561462E-02  0.1111491E+00
         22   -1    0    0    0    0  0.00000000000E+00  0.00000000000E+00  0.21534421947E+03  0.21534421947E+03  0.00000000000E+00 0. -1.
         22   -1    0    0    0    0 -0.00000000000E+00 -0.00000000000E+00 -0.92055473087E+03  0.92055473087E+03  0.00000000000E+00 0.  1.
        -24    2    1    2    0    0 -0.62292770776E+01 -0.54300813236E+02 -0.85031251440E+03  0.85553625071E+03  0.76964419860E+02 0.  0.
         25    2    1    2    0    0  0.46208791103E+02  0.52051863794E+02  0.58194801885E+02  0.15452688213E+03  0.12508906201E+03 0.  0.
         24    2    1    2    0    0 -0.39979514025E+02  0.22489494423E+01  0.86907201112E+02  0.12583581749E+03  0.81721307161E+02 0.  0.
        -13    1    5    5    0    0 -0.29459582331E+02  0.29678648516E+02  0.92787135756E+01  0.42834375150E+02  0.00000000000E+00 0.  1.
         14    1    5    5    0    0 -0.10519931694E+02 -0.27429699074E+02  0.77628487536E+02  0.83001442345E+02  0.00000000000E+00 0. -1.
         11    1    3    3    0    0  0.11259649466E+02  0.17324165089E+02 -0.19035793450E+03  0.19147597664E+03  0.00000000000E+00 0. -1.
        -12    1    3    3    0    0 -0.17488926544E+02 -0.71624978325E+02 -0.65995457990E+03  0.66406027407E+03  0.00000000000E+00 0.  1.
          5    1    4    4  501    0  0.73464951140E+02  0.42687793731E+02  0.81056992987E+02  0.11750342672E+03  0.41800000000E+01 0. -1.
         -5    1    4    4    0  501 -0.27256160037E+02  0.93640700625E+01 -0.22862191102E+02  0.37023455404E+02  0.41800000000E+01 0. -1.
</event>
<event>
11    1  0.1078607E-008  0.1416897E+03  0.7561462E-02  0.1105686E+00
         22   -1    0    0    0    0  0.00000000000E+00  0.00000000000E+00  0.75487124939E+03  0.75487124939E+03  0.00000000000E+00 0. -1.
         22   -1    0    0    0    0 -0.00000000000E+00 -0.00000000000E+00 -0.38029175833E+03  0.38029175833E+03  0.00000000000E+00 0. -1.
        -24    2    1    2    0    0  0.22074477500E+02  0.24712310123E+02 -0.33715932895E+03  0.34849737929E+03  0.81706973037E+02 0.  0.
         25    2    1    2    0    0 -0.85740769565E+02 -0.17572715464E+02  0.14492164780E+03  0.21050036270E+03  0.12509132185E+03 0.  0.
         24    2    1    2    0    0  0.63666292065E+02 -0.71395946586E+01  0.56681717221E+03  0.57616526573E+03  0.81119271208E+02 0.  0.
        -13    1    5    5    0    0  0.19081866698E+01 -0.34671816784E+02  0.23249043233E+03  0.23506930293E+03  0.00000000000E+00 0.  1.
         14    1    5    5    0    0  0.61758105395E+02  0.27532222126E+02  0.33432673988E+03  0.34109596280E+03  0.00000000000E+00 0. -1.
         13    1    3    3    0    0  0.11307631504E+02  0.29868179722E+02 -0.33481121234E+03  0.33633096586E+03  0.00000000000E+00 0. -1.
        -14    1    3    3    0    0  0.10766845996E+02 -0.51558696000E+01 -0.23481166145E+01  0.12166413427E+02  0.00000000000E+00 0.  1.
          5    1    4    4  501    0  0.23195654878E+02  0.67683697609E+01 -0.34700247017E+01  0.24766160499E+02  0.41800000000E+01 0. -1.
         -5    1    4    4    0  501 -0.10893642444E+03 -0.24341085225E+02  0.14839167250E+03  0.18573420220E+03  0.41800000000E+01 0. -1.
</event>
<event>
11    1  0.1078607E-008  0.1384579E+03  0.7561462E-02  0.1109293E+00
         22   -1    0    0    0    0  0.00000000000E+00  0.00000000000E+00  0.29471853077E+03  0.29471853077E+03  0.00000000000E+00 0. -1.
         22   -1    0    0    0    0 -0.00000000000E+00 -0.00000000000E+00 -0.33625495955E+03  0.33625495955E+03  0.00000000000E+00 0.  1.
        -24    2    1    2    0    0  0.47759806408E+02 -0.47093209397E+02 -0.26619151388E+03  0.28605099169E+03  0.80426850637E+02 0.  0.
         25    2    1    2    0    0 -0.49381981406E+02 -0.22845252133E+02  0.60174085885E+02  0.14909369839E+03  0.12509006617E+03 0.  0.
         24    2    1    2    0    0  0.16221749977E+01  0.69938461529E+02  0.16448099922E+03  0.19582880024E+03  0.80005625107E+02 0.  0.
        -11    1    5    5    0    0  0.38514732842E+02  0.37896874613E+02  0.61643549662E+02  0.81972464683E+02  0.00000000000E+00 0.  1.
         12    1    5    5    0    0 -0.36892557844E+02  0.32041586916E+02  0.10283744955E+03  0.11385633556E+03  0.00000000000E+00 0. -1.
         11    1    3    3    0    0 -0.21282341377E+02 -0.70318375220E+01 -0.35949781249E+02  0.42364744367E+02  0.00000000000E+00 0. -1.
        -12    1    3    3    0    0  0.69042147786E+02 -0.40061371875E+02 -0.23024173263E+03  0.24368624732E+03  0.00000000000E+00 0.  1.
          5    1    4    4  501    0 -0.10429633363E+02  0.51313442432E+02  0.24113161178E+02  0.57799338822E+02  0.41800000000E+01 0. -1.
         -5    1    4    4    0  501 -0.38952348043E+02 -0.74158694564E+02  0.36060924707E+02  0.91294359565E+02  0.41800000000E+01 0. -1.
</event>
<event>
11    1  0.1078607E-008  0.1790808E+03  0.7561462E-02  0.1070389E+00
         22   -1    0    0    0    0  0.00000000000E+00  0.00000000000E+00  0.15743386352E+03  0.15743386352E+03  0.00000000000E+00 0. -1.
         22   -1    0    0    0    0 -0.00000000000E+00 -0.00000000000E+00 -0.25424712135E+04  0.25424712135E+04  0.00000000000E+00 0.  1.
        -24    2    1    2    0    0 -0.61007855968E+02  0.12026777306E+02 -0.13866205424E+04  0.13904301255E+04  0.81931700700E+02 0.  0.
         25    2    1    2    0    0 -0.56771078783E+02 -0.66734836100E+02 -0.11090666714E+04  0.11195331343E+04  0.12509621683E+03 0.  0.
         24    2    1    2    0    0  0.11777893475E+03  0.54708058794E+02  0.11064986385E+03  0.18994181713E+03  0.83484443787E+02 0.  0.
        -11    1    5    5    0    0  0.93431181633E+02 -0.10683991199E+01  0.70125250950E+02  0.11682498876E+03  0.00000000000E+00 0.  1.
         12    1    5    5    0    0  0.24347753118E+02  0.55776457914E+02  0.40524612903E+02  0.73116828366E+02  0.00000000000E+00 0. -1.
         11    1    3    3    0    0  0.75170878197E+01  0.13438323690E+02 -0.56968468479E+02  0.59012723660E+02  0.00000000000E+00 0. -1.
        -12    1    3    3    0    0 -0.68524943787E+02 -0.14115463841E+01 -0.13296520739E+04  0.13314174019E+04  0.00000000000E+00 0.  1.
          5    1    4    4  501    0 -0.91003602444E+00  0.77681860767E+01 -0.69695220227E+03  0.69700862084E+03  0.41800000000E+01 0.  1.
         -5    1    4    4    0  501 -0.55861042759E+02 -0.74503022176E+02 -0.41211446915E+03  0.42252451349E+03  0.41800000000E+01 0.  1.
</event>
<event>
11    1  0.1078607E-008  0.2039438E+03  0.7561462E-02  0.1051769E+00
         22   -1    0    0    0    0  0.00000000000E+00  0.00000000000E+00  0.14165197473E+04  0.14165197473E+04  0.00000000000E+00 0. -1.
         22   -1    0    0    0    0 -0.00000000000E+00 -0.00000000000E+00 -0.19495138291E+03  0.19495138291E+03  0.00000000000E+00 0. -1.
        -24    2    1    2    0    0  0.62312350540E+02  0.14970191004E+03 -0.10852203823E+03  0.21074789649E+03  0.79650186402E+02 0.  0.
         25    2    1    2    0    0 -0.50015876760E+02 -0.14684699094E+03  0.26051694915E+03  0.32800011233E+03  0.12509742691E+03 0.  0.
         24    2    1    2    0    0 -0.12296473779E+02 -0.28549191039E+01  0.10695734534E+04  0.10727231214E+04  0.81167536488E+02 0.  0.
        -13    1    5    5    0    0 -0.46163775824E+02  0.21113042469E+01  0.50373142087E+03  0.50584671213E+03  0.00000000000E+00 0.  1.
         14    1    5    5    0    0  0.33867302045E+02 -0.49662233508E+01  0.56584203257E+03  0.56687640924E+03  0.00000000000E+00 0. -1.
         13    1    3    3    0    0  0.21689139733E+02  0.94343664840E+02 -0.10377934329E+03  0.14192004077E+03  0.00000000000E+00 0. -1.
        -14    1    3    3    0    0  0.40623210806E+02  0.55358245202E+02 -0.47426949379E+01  0.68827855722E+02  0.00000000000E+00 0.  1.
          5    1    4    4  501    0  0.25323751653E+02 -0.17102641395E+02  0.11457275817E+03  0.11865151519E+03  0.41800000000E+01 0. -1.
         -5    1    4    4    0  501 -0.75339628413E+02 -0.12974434954E+03  0.14594419098E+03  0.20934859715E+03  0.41800000000E+01 0. -1.
</event>
<event>
11    1  0.1078607E-008  0.1700671E+03  0.7561462E-02  0.1077973E+00
         22   -1    0    0    0    0  0.00000000000E+00  0.00000000000E+00  0.54128294375E+03  0.54128294375E+03  0.00000000000E+00 0. -1.
         22   -1    0    0    0    0 -0.00000000000E+00 -0.00000000000E+00 -0.14908284177E+03  0.14908284177E+03  0.00000000000E+00 0.  1.
        -24    2    1    2    0    0 -0.96707187305E+02 -0.48055851467E+02 -0.31292661908E+02  0.13760814308E+03  0.79341826394E+02 0.  0.
         25    2    1    2    0    0  0.12688748206E+03  0.46951223150E+02  0.84470101943E+02  0.20269719260E+03  0.12508438474E+03 0.  0.
         24    2    1    2    0    0 -0.30180294759E+02  0.11046283174E+01  0.33902266195E+03  0.35006044983E+03  0.81816152625E+02 0.  0.
        -13    1    5    5    0    0 -0.35628646651E+02  0.33158220805E+02  0.26158009439E+03  0.26606956581E+03  0.00000000000E+00 0.  1.
         14    1    5    5    0    0  0.54483518916E+01 -0.32053592488E+02  0.77442567558E+02  0.83990884027E+02  0.00000000000E+00 0. -1.
         11    1    3    3    0    0 -0.16027666499E+02 -0.29592781195E+02  0.21036040724E+02  0.39687955372E+02  0.00000000000E+00 0. -1.
        -12    1    3    3    0    0 -0.80679520806E+02 -0.18463070272E+02 -0.52328702632E+02  0.97920187706E+02  0.00000000000E+00 0.  1.
          5    1    4    4  501    0  0.90519521499E+02 -0.64009003322E+00  0.10550335648E+03  0.13907776284E+03  0.41800000000E+01 0. -1.
         -5    1    4    4    0  501  0.36367960565E+02  0.47591313183E+02 -0.21033254542E+02  0.63619429758E+02  0.41800000000E+01 0. -1.
</event>
<event>
11    1  0.1078607E-008  0.1676070E+03  0.7561462E-02  0.1080133E+00
         22   -1    0    0    0    0  0.00000000000E+00  0.00000000000E+00  0.27385657178E+03  0.27385657178E+03  0.00000000000E+00 0.  1.
         22   -1    0    0    0    0 -0.00000000000E+00 -0.00000000000E+00 -0.25051974658E+04  0.25051974658E+04  0.00000000000E+00 0. -1.
        -24    2    1    2    0    0  0.35683356919E+02  0.13320462612E+02 -0.24074272452E+04  0.24090504505E+04  0.79795962243E+02 0.  0.
         25    2    1    2    0    0 -0.13100414493E+03 -0.45214270973E+02  0.57731911763E+02  0.19541519261E+03  0.12509079734E+03 0.  0.
         24    2    1    2    0    0  0.95320788009E+02  0.31893808361E+02  0.11835443942E+03  0.17458839444E+03  0.79812696390E+02 0.  0.
        -13    1    5    5    0    0  0.69764103095E+02  0.13690909946E+00  0.11392018603E+03  0.13358464586E+03  0.00000000000E+00 0.  1.
         14    1    5    5    0    0  0.25556684914E+02  0.31756899262E+02  0.44342533884E+01  0.41003748581E+02  0.00000000000E+00 0. -1.
         13    1    3    3    0    0  0.16356286078E+02  0.37029217791E+02 -0.20240889060E+04  0.20244936627E+04  0.00000000000E+00 0. -1.
        -14    1    3    3    0    0  0.19327070841E+02 -0.23708755179E+02 -0.38333833922E+03  0.38455678782E+03  0.00000000000E+00 0.  1.
          5    1    4    4  501    0 -0.67820175171E+02 -0.86071578278E+02  0.21292168552E+02  0.11170819840E+03  0.41800000000E+01 0.  1.
         -5    1    4    4    0  501 -0.63183969757E+02  0.40857307305E+02  0.36439743211E+02  0.83706994211E+02  0.41800000000E+01 0.  1.
</event>
<event>
11    1  0.1078607E-008  0.1322790E+03  0.7561462E-02  0.1116500E+00
         22   -1    0    0    0    0  0.00000000000E+00  0.00000000000E+00  0.32058006715E+03  0.32058006715E+03  0.00000000000E+00 0. -1.
         22   -1    0    0    0    0 -0.00000000000E+00 -0.00000000000E+00 -0.46508041369E+03  0.46508041369E+03  0.00000000000E+00 0.  1.
         24    2    1    2    0    0  0.30469010562E+02  0.22363450341E+00 -0.38463311673E+03  0.39384860246E+03  0.79029592950E+02 0.  0.
         25    2    1    2    0    0 -0.33744137355E+02 -0.42567510988E+02  0.57004126152E+01  0.13648977070E+03  0.12508518300E+03 0.  0.
        -24    2    1    2    0    0  0.32751267926E+01  0.42343876484E+02  0.23443235757E+03  0.25532210768E+03  0.91799335848E+02 0.  0.
        -11    1    3    3    0    0  0.52450060165E+02 -0.16101151854E+02 -0.29743014789E+03  0.30244825802E+03  0.00000000000E+00 0.  1.
         12    1    3    3    0    0 -0.21981049602E+02  0.16324786358E+02 -0.87202968833E+02  0.91400344445E+02  0.00000000000E+00 0. -1.
         13    1    5    5    0    0  0.30395429561E+02  0.30559803492E+01  0.18145432848E+03  0.18400786527E+03  0.00000000000E+00 0. -1.
        -14    1    5    5    0    0 -0.27120302769E+02  0.39287896135E+02  0.52978029085E+02  0.71314242411E+02  0.00000000000E+00 0.  1.
          5    1    4    4  501    0 -0.10787295769E+02 -0.61807724369E+02 -0.45090140786E+02  0.77376700226E+02  0.41800000000E+01 0.  1.
         -5    1    4    4    0  501 -0.22956841586E+02  0.19240213382E+02  0.50790553401E+02  0.59113070478E+02  0.41800000000E+01 0.  1.
</event>
<event>
11    1  0.1078607E-008  0.1355597E+03  0.7561462E-02  0.1112620E+00
         22   -1    0    0    0    0  0.00000000000E+00  0.00000000000E+00  0.71957415004E+03  0.71957415004E+03  0.00000000000E+00 0. -1.
         22   -1    0    0    0    0 -0.00000000000E+00 -0.00000000000E+00 -0.13957455160E+03  0.13957455160E+03  0.00000000000E+00 0.  1.
         24    2    1    2    0    0  0.28109759064E+02  0.35973763744E+02 -0.98667839991E+02  0.13684966754E+03  0.83115694223E+02 0.  0.
         25    2    1    2    0    0  0.28576070241E+02 -0.82218740796E+01  0.24418475153E+03  0.27596637481E+03  0.12508819345E+03 0.  0.
        -24    2    1    2    0    0 -0.56685829304E+02 -0.27751889665E+02  0.43448268690E+03  0.44633265929E+03  0.80337954312E+02 0.  0.
        -11    1    3    3    0    0  0.10360670225E+02  0.24984770926E+02 -0.10987557769E+03  0.11315575478E+03  0.00000000000E+00 0.  1.
         12    1    3    3    0    0  0.17749088838E+02  0.10988992819E+02  0.11207737704E+02  0.23693912767E+02  0.00000000000E+00 0. -1.
         13    1    5    5    0    0 -0.39888368179E+02 -0.21257235562E+01  0.39157791342E+03  0.39361003912E+03  0.00000000000E+00 0. -1.
        -14    1    5    5    0    0 -0.16797461125E+02 -0.25626166109E+02  0.42904773483E+02  0.52722620167E+02  0.00000000000E+00 0.  1.
          5    1    4    4  501    0  0.42727410259E+02 -0.57104187182E+02  0.99163640562E+02  0.12221873748E+03  0.41800000000E+01 0. -1.
         -5    1    4    4    0  501 -0.14151340018E+02  0.48882313102E+02  0.14502111097E+03  0.15374763733E+03  0.41800000000E+01 0. -1.
</event>
<event>
11    1  0.1078607E-008  0.3000108E+03  0.7561462E-02  0.1000187E+00
         22   -1    0    0    0    0  0.00000000000E+00  0.00000000000E+00  0.15266874665E+04  0.15266874665E+04  0.00000000000E+00 0. -1.
         22   -1    0    0    0    0 -0.00000000000E+00 -0.00000000000E+00 -0.11894777565E+03  0.11894777565E+03  0.00000000000E+00 0. -1.
         24    2    1    2    0    0  0.59591036061E+02  0.10674429640E+03  0.15026937205E+03  0.21459342317E+03  0.92325601528E+02 0.  0.
         25    2    1    2    0    0  0.22239937232E+03 -0.13448983752E+03  0.25300914644E+03  0.38368006984E+03  0.12509104926E+03 0.  0.
        -24    2    1    2    0    0 -0.28199040839E+03  0.27745541120E+02  0.10044611724E+04  0.10473617492E+04  0.87954427483E+02 0.  0.
        -11    1    3    3    0    0  0.57209180275E+02  0.12977138655E+02  0.68221021298E+02  0.89974464056E+02  0.00000000000E+00 0.  1.
         12    1    3    3    0    0  0.23818557858E+01  0.93767157745E+02  0.82048350755E+02  0.12461895911E+03  0.00000000000E+00 0. -1.
         13    1    5    5    0    0 -0.20924805961E+03  0.56005015947E+02  0.78936461183E+03  0.81854615182E+03  0.00000000000E+00 0. -1.
        -14    1    5    5    0    0 -0.72742348778E+02 -0.28259474827E+02  0.21509656056E+03  0.22881559734E+03  0.00000000000E+00 0.  1.
          5    1    4    4  501    0  0.11417077663E+03 -0.95574074629E+02  0.63416707367E+02  0.16189046035E+03  0.41800000000E+01 0.  1.
         -5    1    4    4    0  501  0.10822859569E+03 -0.38915762891E+02  0.18959243907E+03  0.22178960950E+03  0.41800000000E+01 0.  1.
</event>
<event>
11    1  0.1078607E-008  0.1330421E+03  0.7561462E-02  0.1115587E+00
         22   -1    0    0    0    0  0.00000000000E+00  0.00000000000E+00  0.78728889603E+03  0.78728889603E+03  0.00000000000E+00 0.  1.
         22   -1    0    0    0    0 -0.00000000000E+00 -0.00000000000E+00 -0.25908674165E+03  0.25908674165E+03  0.00000000000E+00 0.  1.
         24    2    1    2    0    0 -0.15277903868E+02  0.42220926333E+02 -0.23171515885E+03  0.24983762027E+03  0.81920087237E+02 0.  0.
         25    2    1    2    0    0 -0.43787237488E+01 -0.70790879158E+02  0.37528226904E+03  0.40188252891E+03  0.12506903612E+03 0.  0.
        -24    2    1    2    0    0  0.19656627616E+02  0.28569952824E+02  0.38463504419E+03  0.39465548849E+03  0.81278608268E+02 0.  0.
        -13    1    3    3    0    0  0.29214363972E+02  0.12633649501E+02 -0.14107177215E+03  0.14461788638E+03  0.00000000000E+00 0.  1.
         14    1    3    3    0    0 -0.44492267840E+02  0.29587276833E+02 -0.90643386702E+02  0.10521973389E+03  0.00000000000E+00 0. -1.
         11    1    5    5    0    0  0.11681706004E+02 -0.28387700602E+02  0.12285469867E+03  0.12663175268E+03  0.00000000000E+00 0. -1.
        -12    1    5    5    0    0  0.79749216128E+01  0.56957653426E+02  0.26178034552E+03  0.26802373581E+03  0.00000000000E+00 0.  1.
          5    1    4    4  501    0 -0.48331028614E+02 -0.39636783276E+01  0.63680664193E+02  0.80151721534E+02  0.41800000000E+01 0. -1.
         -5    1    4    4    0  501  0.43952304866E+02 -0.66827200830E+02  0.31160160485E+03  0.32173080738E+03  0.41800000000E+01 0. -1.
</event>
<event>
11    1  0.1078607E-008  0.2048836E+03  0.7561462E-02  0.1051123E+00
         22   -1    0    0    0    0  0.00000000000E+00  0.00000000000E+00  0.20843244366E+04  0.20843244366E+04  0.00000000000E+00 0. -1.
         22   -1    0    0    0    0 -0.00000000000E+00 -0.00000000000E+00 -0.21155869633E+03  0.21155869633E+03  0.00000000000E+00 0. -1.
         24    2    1    2    0    0 -0.13487382534E+03  0.93452783233E+02 -0.15297927907E+03  0.23836628420E+03  0.80569561019E+02 0.  0.
         25    2    1    2    0    0  0.15330481566E+03 -0.64879653854E+01  0.73347876188E+03  0.75972075550E+03  0.12506027351E+03 0.  0.
        -24    2    1    2    0    0 -0.18430990318E+02 -0.86964817847E+02  0.12922662574E+04  0.12977960932E+04  0.80125142847E+02 0.  0.
        -11    1    3    3    0    0 -0.45788023641E+02  0.13241553519E+02 -0.50015948830E+01  0.47925961648E+02  0.00000000000E+00 0.  1.
         12    1    3    3    0    0 -0.89085801701E+02  0.80211229713E+02 -0.14797768418E+03  0.19044032255E+03  0.00000000000E+00 0. -1.
         11    1    5    5    0    0 -0.20333815034E+01 -0.93503839614E+02  0.12124042473E+04  0.12160062342E+04  0.00000000000E+00 0. -1.
        -12    1    5    5    0    0 -0.16397608814E+02  0.65390217665E+01  0.79862010132E+02  0.81789859046E+02  0.00000000000E+00 0.  1.
          5    1    4    4  501    0  0.12684056429E+03  0.45249014146E+01  0.71306112320E+03  0.72428077518E+03  0.41800000000E+01 0. -1.
         -5    1    4    4    0  501  0.26464251369E+02 -0.11012866800E+02  0.20417638684E+02  0.35439980320E+02  0.41800000000E+01 0. -1.
</event>
<event>
11    1  0.1078607E-008  0.1266664E+03  0.7561462E-02  0.1123434E+00
         22   -1    0    0    0    0  0.00000000000E+00  0.00000000000E+00  0.16851611813E+04  0.16851611813E+04  0.00000000000E+00 0.  1.
         22   -1    0    0    0    0 -0.00000000000E+00 -0.00000000000E+00 -0.25209981995E+02  0.25209981995E+02  0.00000000000E+00 0.  1.
        -24    2    1    2    0    0 -0.11717501523E+02  0.11667936081E+02  0.86374973237E+02  0.11899303493E+03  0.80157755614E+02 0.  0.
         25    2    1    2    0    0 -0.69969303817E+01 -0.20610775920E+02  0.54979048329E+03  0.56426142750E+03  0.12509045496E+03 0.  0.
         24    2    1    2    0    0  0.18714431904E+02  0.89428398386E+01  0.10237857427E+04  0.10271167008E+04  0.80007910590E+02 0.  0.
        -13    1    5    5    0    0 -0.52514921769E+00  0.73984901843E+01  0.96903456386E+03  0.96906294914E+03  0.00000000000E+00 0.  1.
         14    1    5    5    0    0  0.19239581122E+02  0.15443496543E+01  0.54751178882E+02  0.58053751701E+02  0.00000000000E+00 0. -1.
         13    1    3    3    0    0 -0.33663451204E+02 -0.20922631097E+02  0.27614947809E+02  0.48307036563E+02  0.00000000000E+00 0. -1.
        -14    1    3    3    0    0  0.21945949682E+02  0.32590567178E+02  0.58760025429E+02  0.70685998364E+02  0.00000000000E+00 0.  1.
          5    1    4    4  501    0 -0.33005937299E+02  0.24779085267E+02  0.44631141403E+03  0.44823514549E+03  0.41800000000E+01 0. -1.
         -5    1    4    4    0  501  0.26009006917E+02 -0.45389861187E+02  0.10347906927E+03  0.11602628200E+03  0.41800000000E+01 0. -1.
</event>
<event>
11    1  0.1078607E-008  0.1504622E+03  0.7561462E-02  0.1096407E+00
         22   -1    0    0    0    0  0.00000000000E+00  0.00000000000E+00  0.13024079561E+04  0.13024079561E+04  0.00000000000E+00 0.  1.
         22   -1    0    0    0    0 -0.00000000000E+00 -0.00000000000E+00 -0.61679834615E+02  0.61679834615E+02  0.00000000000E+00 0. -1.
         24    2    1    2    0    0 -0.26016657899E+02 -0.78469423698E+02  0.22202352708E+02  0.11672503313E+03  0.79356612512E+02 0.  0.
         25    2    1    2    0    0  0.20517827544E+02  0.88306638901E+02  0.48097509904E+03  0.50517659836E+03  0.12508919185E+03 0.  0.
        -24    2    1    2    0    0  0.54988303547E+01 -0.98372152026E+01  0.73755066977E+03  0.74218615925E+03  0.82050573260E+02 0.  0.
        -13    1    3    3    0    0  0.23223490138E+02 -0.82697543009E+01  0.18636507661E+02  0.30903701206E+02  0.00000000000E+00 0.  1.
         14    1    3    3    0    0 -0.49240148037E+02 -0.70199669397E+02  0.35658450473E+01  0.85821331923E+02  0.00000000000E+00 0. -1.
         11    1    5    5    0    0  0.42601296934E+02  0.14978923449E+01  0.31772935468E+03  0.32057613293E+03  0.00000000000E+00 0. -1.
        -12    1    5    5    0    0 -0.37102466579E+02 -0.11335107547E+02  0.41982131509E+03  0.42161002632E+03  0.00000000000E+00 0.  1.
          5    1    4    4  501    0  0.38502388026E+02 -0.13383524094E+00  0.42537765246E+02  0.57527260214E+02  0.41800000000E+01 0.  1.
         -5    1    4    4    0  501 -0.17984560482E+02  0.88440474142E+02  0.43843733379E+03  0.44764933815E+03  0.41800000000E+01 0.  1.
</event>
<event>
11    1  0.1078607E-008  0.1298650E+03  0.7561462E-02  0.1119435E+00
         22   -1    0    0    0    0  0.00000000000E+00  0.00000000000E+00  0.20811908793E+03  0.20811908793E+03  0.00000000000E+00 0. -1.
         22   -1    0    0    0    0 -0.00000000000E+00 -0.00000000000E+00 -0.39046407774E+03  0.39046407774E+03  0.00000000000E+00 0.  1.
        -24    2    1    2    0    0  0.42716712989E+02  0.20251364528E+01 -0.30587833055E+03  0.31868394135E+03  0.78543507903E+02 0.  0.
         25    2    1    2    0    0 -0.22936217346E+02 -0.35738581384E+02  0.29363364244E+02  0.13532651184E+03  0.12509093245E+03 0.  0.
         24    2    1    2    0    0 -0.19780495642E+02  0.33713444931E+02  0.94169976495E+02  0.14457271248E+03  0.10249595282E+03 0.  0.
        -13    1    5    5    0    0  0.18086351734E+02  0.35551051675E+02 -0.32663262600E+01  0.40020773124E+02  0.00000000000E+00 0.  1.
         14    1    5    5    0    0 -0.37866847376E+02 -0.18376067439E+01  0.97436302755E+02  0.10455193936E+03  0.00000000000E+00 0. -1.
         11    1    3    3    0    0  0.44882813033E+02 -0.31802451639E+02 -0.17205611033E+03  0.18063545593E+03  0.00000000000E+00 0. -1.
        -12    1    3    3    0    0 -0.21661000444E+01  0.33827588092E+02 -0.13382222021E+03  0.13804848542E+03  0.00000000000E+00 0.  1.
          5    1    4    4  501    0 -0.68837806083E+02 -0.29796476906E+02 -0.81978658955E+01  0.75572157489E+02  0.41800000000E+01 0. -1.
         -5    1    4    4    0  501  0.45901588737E+02 -0.59421044779E+01  0.37561230140E+02  0.59754354350E+02  0.41800000000E+01 0. -1.
</event>
<event>
11    1  0.1078607E-008  0.2890182E+03  0.7561462E-02  0.1004949E+00
         22   -1    0    0    0    0  0.00000000000E+00  0.00000000000E+00  0.18208202183E+04  0.18208202183E+04  0.00000000000E+00 0. -1.
         22   -1    0    0    0    0 -0.00000000000E+00 -0.00000000000E+00 -0.31244276184E+03  0.31244276184E+03  0.00000000000E+00 0. -1.
        -24    2    1    2    0    0 -0.23652679815E+03  0.93531826969E+02 -0.15395604938E+03  0.30805815040E+03  0.80648806488E+02 0.  0.
         25    2    1    2    0    0  0.28677996165E+03 -0.48514888992E+02  0.23574874109E+03  0.39474236508E+03  0.12509046730E+03 0.  0.
         24    2    1    2    0    0 -0.50253163504E+02 -0.45016937976E+02  0.14265847647E+04  0.14304624646E+04  0.80789025496E+02 0.  0.
        -11    1    5    5    0    0  0.69926848575E+01  0.16770348176E+02  0.14894009696E+03  0.15004430913E+03  0.00000000000E+00 0.  1.
         12    1    5    5    0    0 -0.57245848361E+02 -0.61787286153E+02  0.12776446677E+04  0.12804181555E+04  0.00000000000E+00 0. -1.
         13    1    3    3    0    0 -0.16653559918E+03  0.91566923073E+02 -0.79958302200E+02  0.20618423142E+03  0.00000000000E+00 0. -1.
        -14    1    3    3    0    0 -0.69991198964E+02  0.19649038959E+01 -0.73997747182E+02  0.10187391898E+03  0.00000000000E+00 0.  1.
          5    1    4    4  501    0  0.26086578902E+03 -0.81913121850E+02  0.21251516836E+03  0.34632483104E+03  0.41800000000E+01 0. -1.
         -5    1    4    4    0  501  0.25914172633E+02  0.33398232858E+02  0.23233572725E+02  0.48417534044E+02  0.41800000000E+01 0. -1.
</event>
<event>
11    1  0.1078607E-008  0.1708717E+03  0.7561462E-02  0.1077276E+00
         22   -1    0    0    0    0  0.00000000000E+00  0.00000000000E+00  0.44604623183E+03  0.44604623183E+03  0.00000000000E+00 0. -1.
         22   -1    0    0    0    0 -0.00000000000E+00 -0.00000000000E+00 -0.24993978372E+04  0.24993978372E+04  0.00000000000E+00 0. -1.
         24    2    1    2    0    0  0.71982633038E+02  0.21378622039E+02 -0.22623180594E+04  0.22649851183E+04  0.80224929611E+02 0.  0.
         25    2    1    2    0    0  0.27300077656E+02  0.46385393429E+02 -0.20242193113E+03  0.24396518977E+03  0.12508987431E+03 0.  0.
        -24    2    1    2    0    0 -0.99282710694E+02 -0.67764015468E+02  0.41138838518E+03  0.43649376092E+03  0.82688460056E+02 0.  0.
        -11    1    3    3    0    0  0.81558635701E+02  0.25523413850E+02 -0.14010940380E+04  0.14036978874E+04  0.00000000000E+00 0.  1.
         12    1    3    3    0    0 -0.95760026630E+01 -0.41447918114E+01 -0.86122402137E+03  0.86128723090E+03  0.00000000000E+00 0. -1.
         11    1    5    5    0    0 -0.97123002370E+02 -0.24728870443E+02  0.32246669753E+03  0.33768204814E+03  0.00000000000E+00 0. -1.
        -12    1    5    5    0    0 -0.21597083247E+01 -0.43035145025E+02  0.88921687653E+02  0.98811712780E+02  0.00000000000E+00 0.  1.
          5    1    4    4  501    0 -0.68247379107E+01 -0.40435318640E+02 -0.79997906817E+02  0.89992941591E+02  0.41800000000E+01 0.  1.
         -5    1    4    4    0  501  0.34124815567E+02  0.86820712068E+02 -0.12242402431E+03  0.15397224818E+03  0.41800000000E+01 0.  1.
</event>
<event>
11    1  0.1078607E-008  0.2403800E+03  0.7561462E-02  0.1029152E+00
         22   -1    0    0    0    0  0.00000000000E+00  0.00000000000E+00  0.35853573610E+04  0.35853573610E+04  0.00000000000E+00 0. -1.
         22   -1    0    0    0    0 -0.00000000000E+00 -0.00000000000E+00 -0.12026386969E+03  0.12026386969E+03  0.00000000000E+00 0.  1.
        -24    2    1    2    0    0 -0.19342900955E+03 -0.21197927576E+02  0.24546842529E+02  0.21233058874E+03  0.81348617505E+02 0.  0.
         25    2    1    2    0    0  0.31342015797E+03  0.31310564344E+01  0.11596796918E+04  0.12077843983E+04  0.12507664085E+03 0.  0.
         24    2    1    2    0    0 -0.11999114842E+03  0.18066871141E+02  0.22808669570E+04  0.22855062437E+04  0.80376782240E+02 0.  0.
        -11    1    5    5    0    0 -0.34577322949E+02  0.29068783530E+02  0.37768939597E+03  0.38038121046E+03  0.00000000000E+00 0.  1.
         12    1    5    5    0    0 -0.85413825474E+02 -0.11001912389E+02  0.19031775610E+04  0.19051250333E+04  0.00000000000E+00 0. -1.
         13    1    3    3    0    0 -0.44178646055E+02  0.46430208015E+01  0.40383004229E+02  0.60034135623E+02  0.00000000000E+00 0. -1.
        -14    1    3    3    0    0 -0.14925036349E+03 -0.25840948377E+02 -0.15836161700E+02  0.15229645312E+03  0.00000000000E+00 0.  1.
          5    1    4    4  501    0  0.24977974215E+03  0.44375149805E+02  0.76855950482E+03  0.80935792969E+03  0.41800000000E+01 0. -1.
         -5    1    4    4    0  501  0.63640415827E+02 -0.41244093370E+02  0.39112018702E+03  0.39842646857E+03  0.41800000000E+01 0. -1.
</event>
<event>
11    1  0.1078607E-008  0.1591431E+03  0.7561462E-02  0.1087886E+00
         22   -1    0    0    0    0  0.00000000000E+00  0.00000000000E+00  0.55672918791E+03  0.55672918791E+03  0.00000000000E+00 0.  1.
         22   -1    0    0    0    0 -0.00000000000E+00 -0.00000000000E+00 -0.53662779987E+03  0.53662779987E+03  0.00000000000E+00 0. -1.
        -24    2    1    2    0    0 -0.51967281254E+02 -0.81750230909E+02 -0.48368156034E+03  0.49975422138E+03  0.80141945361E+02 0.  0.
         25    2    1    2    0    0  0.69236593491E+02  0.14980752533E+03  0.31592328631E+03  0.37774488731E+03  0.12509067325E+03 0.  0.
         24    2    1    2    0    0 -0.17269312237E+02 -0.68057294425E+02  0.18785966207E+03  0.21585787909E+03  0.79833244092E+02 0.  0.
        -11    1    5    5    0    0 -0.25497020528E+02 -0.67051723585E+02  0.19313875945E+03  0.20603060960E+03  0.00000000000E+00 0.  1.
         12    1    5    5    0    0  0.82277082912E+01 -0.10055708393E+01 -0.52790973787E+01  0.98272694870E+01  0.00000000000E+00 0. -1.
         11    1    3    3    0    0 -0.32920824718E+02 -0.69696691239E+01 -0.27877350599E+03  0.28079712362E+03  0.00000000000E+00 0. -1.
        -12    1    3    3    0    0 -0.19046456536E+02 -0.74780561785E+02 -0.20490805434E+03  0.21895709777E+03  0.00000000000E+00 0.  1.
          5    1    4    4  501    0  0.40801936691E+02  0.80879296243E+00  0.13765404811E+03  0.14363690872E+03  0.41800000000E+01 0.  1.
         -5    1    4    4    0  501  0.28434656799E+02  0.14899873237E+03  0.17826923819E+03  0.23410797859E+03  0.41800000000E+01 0.  1.
</event>
<event>
11    1  0.1078607E-008  0.1371270E+03  0.7561462E-02  0.1110810E+00
         22   -1    0    0    0    0  0.00000000000E+00  0.00000000000E+00  0.36530907817E+03  0.36530907817E+03  0.00000000000E+00 0. -1.
         22   -1    0    0    0    0 -0.00000000000E+00 -0.00000000000E+00 -0.17711937378E+03  0.17711937378E+03  0.00000000000E+00 0. -1.
         24    2    1    2    0    0 -0.36746685963E+02 -0.32696898011E+02 -0.88968947904E+02  0.13267957326E+03  0.85258368505E+02 0.  0.
         25    2    1    2    0    0  0.74559152601E+02  0.50230494893E+02  0.47565911004E+02  0.16123749775E+03  0.12511133018E+03 0.  0.
        -24    2    1    2    0    0 -0.37812466638E+02 -0.17533596882E+02  0.22959274129E+03  0.24851138093E+03  0.85486080428E+02 0.  0.
        -11    1    3    3    0    0 -0.29338389532E+02 -0.72137588570E+01  0.87237335538E+01  0.31446509255E+02  0.00000000000E+00 0.  1.
         12    1    3    3    0    0 -0.74082964305E+01 -0.25483139154E+02 -0.97692681458E+02  0.10123306400E+03  0.00000000000E+00 0. -1.
         13    1    5    5    0    0 -0.62872750703E+02 -0.78838204146E+00  0.17775553564E+03  0.18854875968E+03  0.00000000000E+00 0. -1.
        -14    1    5    5    0    0  0.25060284066E+02 -0.16745214840E+02  0.51837205646E+02  0.59962621246E+02  0.00000000000E+00 0.  1.
          5    1    4    4  501    0  0.99767918642E+02  0.61088531689E+02  0.59148263642E+02  0.13115424425E+03  0.41800000000E+01 0. -1.
         -5    1    4    4    0  501 -0.25208766042E+02 -0.10858036796E+02 -0.11582352638E+02  0.30083253498E+02  0.41800000000E+01 0. -1.
</event>
<event>
11    1  0.1078607E-008  0.1443804E+03  0.7561462E-02  0.1102763E+00
         22   -1    0    0    0    0  0.00000000000E+00  0.00000000000E+00  0.21697944439E+04  0.21697944439E+04  0.00000000000E+00 0.  1.
         22   -1    0    0    0    0 -0.00000000000E+00 -0.00000000000E+00 -0.72905158484E+02  0.72905158484E+02  0.00000000000E+00 0.  1.
        -24    2    1    2    0    0  0.57873245408E+02 -0.46160928163E+02 -0.19102147622E+02  0.11003295521E+03  0.79134160546E+02 0.  0.
         25    2    1    2    0    0 -0.26190623073E+02  0.39560181734E+02  0.62508854232E+03  0.63924518206E+03  0.12509100821E+03 0.  0.
         24    2    1    2    0    0 -0.31682622334E+02  0.66007464287E+01  0.14909028907E+04  0.14934214651E+04  0.80429375859E+02 0.  0.
        -11    1    5    5    0    0 -0.26499367310E+02 -0.82508927774E+01  0.14370564908E+04  0.14373244768E+04  0.00000000000E+00 0.  1.
         12    1    5    5    0    0 -0.51832550246E+01  0.14851639206E+02  0.53846399868E+02  0.56096988320E+02  0.00000000000E+00 0. -1.
         13    1    3    3    0    0  0.34138783851E+02 -0.29298611694E+02  0.29201191271E+02  0.53633709378E+02  0.00000000000E+00 0. -1.
        -14    1    3    3    0    0  0.23734461557E+02 -0.16862316469E+02 -0.48303338892E+02  0.56399245830E+02  0.00000000000E+00 0.  1.
          5    1    4    4  501    0  0.27097306354E+02  0.71498201463E+01  0.48518506085E+03  0.48601172786E+03  0.41800000000E+01 0. -1.
         -5    1    4    4    0  501 -0.53287929428E+02  0.32410361588E+02  0.13990348147E+03  0.15323345421E+03  0.41800000000E+01 0. -1.
</event>
<event>
11    1  0.1078607E-008  0.1863563E+03  0.7561462E-02  0.1064614E+00
         22   -1    0    0    0    0  0.00000000000E+00  0.00000000000E+00  0.11212385416E+04  0.11212385416E+04  0.00000000000E+00 0.  1.
         22   -1    0    0    0    0 -0.00000000000E+00 -0.00000000000E+00 -0.46494550536E+03  0.46494550536E+03  0.00000000000E+00 0. -1.
         24    2    1    2    0    0 -0.24894844104E+02  0.34277354837E+02 -0.40628440174E+03  0.41626686222E+03  0.80102404246E+02 0.  0.
         25    2    1    2    0    0 -0.58868360304E+01 -0.16520071471E+03  0.18319789099E+03  0.27664875153E+03  0.12508850260E+03 0.  0.
        -24    2    1    2    0    0  0.30781680135E+02  0.13092335987E+03  0.87937954699E+03  0.89326843320E+03  0.80818736093E+02 0.  0.
        -13    1    3    3    0    0 -0.53194318475E+02  0.18602335658E+02 -0.21481431588E+03  0.22208303113E+03  0.00000000000E+00 0.  1.
         14    1    3    3    0    0  0.28299474370E+02  0.15675019179E+02 -0.19147008586E+03  0.19418383109E+03  0.00000000000E+00 0. -1.
         11    1    5    5    0    0 -0.10239618442E+02 -0.60452502338E+01  0.11654862075E+03  0.11715364201E+03  0.00000000000E+00 0. -1.
        -12    1    5    5    0    0  0.41021298577E+02  0.13696861011E+03  0.76283092623E+03  0.77611479119E+03  0.00000000000E+00 0.  1.
          5    1    4    4  501    0 -0.25381869959E+02 -0.16956598124E+03  0.18920951278E+03  0.25537144211E+03  0.41800000000E+01 0.  1.
         -5    1    4    4    0  501  0.19495033928E+02  0.43652665311E+01 -0.60116217932E+01  0.21277309424E+02  0.41800000000E+01 0.  1.
</event>
<event>
11    1  0.1078607E-008  0.1440151E+03  0.7561462E-02  0.1103156E+00
         22   -1    0    0    0    0  0.00000000000E+00  0.00000000000E+00  0.29179786624E+03  0.29179786624E+03  0.00000000000E+00 0. -1.
         22   -1    0    0    0    0 -0.00000000000E+00 -0.00000000000E+00 -0.14678370248E+04  0.14678370248E+04  0.00000000000E+00 0. -1.
         24    2    1    2    0    0  0.12143865927E+02 -0.26487471802E+02 -0.82130827215E+03  0.82580846985E+03  0.81014142784E+02 0.  0.
         25    2    1    2    0    0 -0.88824331255E+01 -0.45240158063E+02 -0.62694331384E+03  0.64096046475E+03  0.12508728584E+03 0.  0.
        -24    2    1    2    0    0 -0.32614328010E+01  0.71727629864E+02  0.27221242740E+03  0.29286595647E+03  0.80717860457E+02 0.  0.
        -13    1    3    3    0    0  0.27209934114E+02 -0.21877456048E+02 -0.13898426729E+03  0.14330258250E+03  0.00000000000E+00 0.  1.
         14    1    3    3    0    0 -0.15066068187E+02 -0.46100157538E+01 -0.68232400486E+03  0.68250588735E+03  0.00000000000E+00 0. -1.
         11    1    5    5    0    0 -0.14817952490E+02  0.87044852599E+02  0.23404505179E+03  0.25014688554E+03  0.00000000000E+00 0. -1.
        -12    1    5    5    0    0  0.11556519689E+02 -0.15317222735E+02  0.38167375613E+02  0.42719070926E+02  0.00000000000E+00 0.  1.
          5    1    4    4  501    0  0.16208425717E+02 -0.18603232530E+02 -0.58336887091E+03  0.58390539069E+03  0.41800000000E+01 0.  1.
         -5    1    4    4    0  501 -0.25090858842E+02 -0.26636925532E+02 -0.43574442929E+02  0.57055074058E+02  0.41800000000E+01 0.  1.
</event>
<event>
11    1  0.1078607E-008  0.1572808E+03  0.7561462E-02  0.1089663E+00
         22   -1    0    0    0    0  0.00000000000E+00  0.00000000000E+00  0.33455134684E+03  0.33455134684E+03  0.00000000000E+00 0. -1.
         22   -1    0    0    0    0 -0.00000000000E+00 -0.00000000000E+00 -0.21301868005E+04  0.21301868005E+04  0.00000000000E+00 0. -1.
         24    2    1    2    0    0  0.19655280093E+02 -0.20398577849E+01 -0.18636683819E+04  0.18655992533E+04  0.82524208306E+02 0.  0.
         25    2    1    2    0    0 -0.58442432661E+02  0.88609790299E+02 -0.22625497455E+03  0.27947516216E+03  0.12509132617E+03 0.  0.
        -24    2    1    2    0    0  0.38787152568E+02 -0.86569932514E+02  0.29428790284E+03  0.31966373189E+03  0.81121731411E+02 0.  0.
        -13    1    3    3    0    0 -0.28348441415E+02  0.16727100700E+02 -0.64001588338E+03  0.64086173315E+03  0.00000000000E+00 0.  1.
         14    1    3    3    0    0  0.48003721508E+02 -0.18766958485E+02 -0.12236524986E+04  0.12247375201E+04  0.00000000000E+00 0. -1.
         13    1    5    5    0    0  0.14139585564E+02 -0.55968125825E+02  0.26348877172E+03  0.26973819123E+03  0.00000000000E+00 0. -1.
        -14    1    5    5    0    0  0.24647567003E+02 -0.30601806690E+02  0.30799131122E+02  0.49925540655E+02  0.00000000000E+00 0.  1.
          5    1    4    4  501    0 -0.79406935705E+02  0.48702581255E+02 -0.21266133094E+03  0.23220619487E+03  0.41800000000E+01 0. -1.
         -5    1    4    4    0  501  0.20964503045E+02  0.39907209044E+02 -0.13593643604E+02  0.47268967283E+02  0.41800000000E+01 0. -1.
</event>
<event>
11    1  0.1078607E-008  0.1518207E+03  0.7561462E-02  0.1095033E+00
         22   -1    0    0    0    0  0.00000000000E+00  0.00000000000E+00  0.37222099961E+03  0.37222099961E+03  0.00000000000E+00 0.  1.
         22   -1    0    0    0    0 -0.00000000000E+00 -0.00000000000E+00 -0.10346931724E+04  0.10346931724E+04  0.00000000000E+00 0. -1.
         24    2    1    2    0    0 -0.14616680209E+02  0.39204961594E+02 -0.93807203443E+03  0.94236578025E+03  0.79520095839E+02 0.  0.
         25    2    1    2    0    0  0.49434909937E+02  0.43509690098E+02 -0.22397582785E+02  0.14312588134E+03  0.12508582151E+03 0.  0.
        -24    2    1    2    0    0 -0.34818229727E+02 -0.82714651692E+02  0.29799744447E+03  0.32142251039E+03  0.80348805527E+02 0.  0.
        -13    1    3    3    0    0 -0.25331086429E+02 -0.65521846288E+01 -0.11439108880E+03  0.11734528648E+03  0.00000000000E+00 0.  1.
         14    1    3    3    0    0  0.10714406220E+02  0.45757146222E+02 -0.82368094564E+03  0.82502049377E+03  0.00000000000E+00 0. -1.
         13    1    5    5    0    0  0.70381318910E+01 -0.34172845076E+02  0.30464081591E+02  0.46318235160E+02  0.00000000000E+00 0. -1.
        -14    1    5    5    0    0 -0.41856361618E+02 -0.48541806616E+02  0.26753336288E+03  0.27510427523E+03  0.00000000000E+00 0.  1.
          5    1    4    4  501    0  0.90906308980E+02  0.25387589585E+02 -0.24581569638E+02  0.97622808212E+02  0.41800000000E+01 0. -1.
         -5    1    4    4    0  501 -0.41471399043E+02  0.18122100513E+02  0.21839868532E+01  0.45503073129E+02  0.41800000000E+01 0. -1.
</event>
<event>
11    1  0.1078607E-008  0.2328772E+03  0.7561462E-02  0.1033438E+00
         22   -1    0    0    0    0  0.00000000000E+00  0.00000000000E+00  0.59962648379E+03  0.59962648379E+03  0.00000000000E+00 0.  1.
         22   -1    0    0    0    0 -0.00000000000E+00 -0.00000000000E+00 -0.23910387221E+03  0.23910387221E+03  0.00000000000E+00 0.  1.
        -24    2    1    2    0    0 -0.12246455357E+03  0.56509295632E+02 -0.91069438175E+02  0.18157152540E+03  0.80521480936E+02 0.  0.
         25    2    1    2    0    0  0.40724699827E+02  0.15806858981E+03  0.10156029317E+03  0.22936698097E+03  0.12510211250E+03 0.  0.
         24    2    1    2    0    0  0.81739853743E+02 -0.21457788544E+03  0.35003175658E+03  0.42779184963E+03  0.88082707624E+02 0.  0.
        -11    1    5    5    0    0  0.63951465144E+02 -0.13706416067E+03  0.15219543216E+03  0.21456892507E+03  0.00000000000E+00 0.  1.
         12    1    5    5    0    0  0.17788388599E+02 -0.77513724763E+02  0.19783632442E+03  0.21322292456E+03  0.00000000000E+00 0. -1.
         11    1    3    3    0    0 -0.45273837158E+02 -0.97340359842E+01 -0.19731357475E+01  0.46350459030E+02  0.00000000000E+00 0. -1.
        -12    1    3    3    0    0 -0.77190716412E+02  0.66243331616E+02 -0.89096302427E+02  0.13522106637E+03  0.00000000000E+00 0.  1.
          5    1    4    4  501    0 -0.34733688483E+02  0.51980055087E+02  0.72661209258E+02  0.95945187338E+02  0.41800000000E+01 0. -1.
         -5    1    4    4    0  501  0.75458388310E+02  0.10608853472E+03  0.28899083911E+02  0.13342179363E+03  0.41800000000E+01 0. -1.
</event>
<event>
11    1  0.1078607E-008  0.1587357E+03  0.7561462E-02  0.1088272E+00
         22   -1    0    0    0    0  0.00000000000E+00  0.00000000000E+00  0.10547528879E+04  0.10547528879E+04  0.00000000000E+00 0.  1.
         22   -1    0    0    0    0 -0.00000000000E+00 -0.00000000000E+00 -0.13956634772E+04  0.13956634772E+04  0.00000000000E+00 0. -1.
        -24    2    1    2    0    0  0.47307895938E+02  0.83256314621E+02 -0.12441987891E+04  0.12507148090E+04  0.84185840820E+02 0.  0.
         25    2    1    2    0    0  0.22222894077E+01 -0.16209403789E+03 -0.71709007834E+02  0.21695752607E+03  0.12509584575E+03 0.  0.
         24    2    1    2    0    0 -0.49530185346E+02  0.78837723269E+02  0.97499720761E+03  0.98274403009E+03  0.80607989363E+02 0.  0.
        -13    1    5    5    0    0 -0.25302936628E+02 -0.11875667938E+02  0.28954495331E+03  0.29089095909E+03  0.00000000000E+00 0.  1.
         14    1    5    5    0    0 -0.24227248718E+02  0.90713391207E+02  0.68545225430E+03  0.69185307100E+03  0.00000000000E+00 0. -1.
         11    1    3    3    0    0  0.59367718880E+02  0.65425559516E+02 -0.11732698111E+04  0.11765912967E+04  0.00000000000E+00 0. -1.
        -12    1    3    3    0    0 -0.12059822942E+02  0.17830755105E+02 -0.70928977961E+02  0.74123512272E+02  0.00000000000E+00 0.  1.
          5    1    4    4  501    0  0.45263918512E+02 -0.14372577877E+03 -0.77706621635E+02  0.16959278654E+03  0.41800000000E+01 0.  1.
         -5    1    4    4    0  501 -0.43041629104E+02 -0.18368259124E+02  0.59976138013E+01  0.47364739527E+02  0.41800000000E+01 0.  1.
</event>
<event>
11    1  0.1078607E-008  0.1744970E+03  0.7561462E-02  0.1074183E+00
         22   -1    0    0    0    0  0.00000000000E+00  0.00000000000E+00  0.23555145890E+03  0.23555145890E+03  0.00000000000E+00 0.  1.
         22   -1    0    0    0    0 -0.00000000000E+00 -0.00000000000E+00 -0.34254518535E+03  0.34254518535E+03  0.00000000000E+00 0. -1.
        -24    2    1    2    0    0 -0.14129571090E+03 -0.22924477913E+02 -0.13045306997E+03  0.20932937287E+03  0.79440375601E+02 0.  0.
         25    2    1    2    0    0  0.91867443715E+02 -0.75033906255E+02 -0.87564047432E+02  0.19335079908E+03  0.12508938724E+03 0.  0.
         24    2    1    2    0    0  0.49428267187E+02  0.97958384168E+02  0.11102339094E+03  0.17541647230E+03  0.80035909386E+02 0.  0.
        -11    1    5    5    0    0  0.63029730608E+02  0.87242517503E+02  0.11514756773E+03  0.15761651612E+03  0.00000000000E+00 0.  1.
         12    1    5    5    0    0 -0.13601463421E+02  0.10715866665E+02 -0.41241767893E+01  0.17799956173E+02  0.00000000000E+00 0. -1.
         11    1    3    3    0    0 -0.12574206974E+03 -0.47020817225E+02 -0.11490151689E+03  0.17670422728E+03  0.00000000000E+00 0. -1.
        -12    1    3    3    0    0 -0.15553641158E+02  0.24096339312E+02 -0.15551553078E+02  0.32625145588E+02  0.00000000000E+00 0.  1.
          5    1    4    4  501    0  0.65227808057E+02  0.23556825287E+01 -0.90126915724E+02  0.11135775466E+03  0.41800000000E+01 0.  1.
         -5    1    4    4    0  501  0.26639635658E+02 -0.77389588783E+02  0.25628682925E+01  0.81993044424E+02  0.41800000000E+01 0.  1.
</event>
<event>
11    1  0.1078607E-008  0.1353250E+03  0.7561462E-02  0.1112894E+00
         22   -1    0    0    0    0  0.00000000000E+00  0.00000000000E+00  0.59717812275E+03  0.59717812275E+03  0.00000000000E+00 0.  1.
         22   -1    0    0    0    0 -0.00000000000E+00 -0.00000000000E+00 -0.40308288183E+03  0.40308288183E+03  0.00000000000E+00 0. -1.
        -24    2    1    2    0    0 -0.99563285600E+00 -0.11520947157E+02 -0.22389763034E+03  0.23824510498E+03  0.80603087218E+02 0.  0.
         25    2    1    2    0    0  0.17107396329E+02  0.60291403896E+02 -0.13878266252E+03  0.19706727719E+03  0.12508864029E+03 0.  0.
         24    2    1    2    0    0 -0.16111763473E+02 -0.48770456740E+02  0.55677553377E+03  0.56494862241E+03  0.80807206289E+02 0.  0.
        -13    1    5    5    0    0 -0.16551072340E+02  0.60581370724E+01  0.36668508955E+03  0.36710842257E+03  0.00000000000E+00 0.  1.
         14    1    5    5    0    0  0.43930886737E+00 -0.54828593812E+02  0.19009044422E+03  0.19784019985E+03  0.00000000000E+00 0. -1.
         11    1    3    3    0    0  0.19347383295E+01 -0.41130992269E+02 -0.18355353019E+03  0.18811539060E+03  0.00000000000E+00 0. -1.
        -12    1    3    3    0    0 -0.29303711855E+01  0.29610045113E+02 -0.40344100153E+02  0.50129714382E+02  0.00000000000E+00 0.  1.
          5    1    4    4  501    0  0.34066052162E+02  0.74098024124E+02 -0.31543410075E+02  0.87541260033E+02  0.41800000000E+01 0.  1.
         -5    1    4    4    0  501 -0.16958655833E+02 -0.13806620227E+02 -0.10723925244E+03  0.10952601716E+03  0.41800000000E+01 0.  1.
</event>
<event>
11    1  0.1078607E-008  0.1344963E+03  0.7561462E-02  0.1113865E+00
         22   -1    0    0    0    0  0.00000000000E+00  0.00000000000E+00  0.89000068205E+03  0.89000068205E+03  0.00000000000E+00 0. -1.
         22   -1    0    0    0    0 -0.00000000000E+00 -0.00000000000E+00 -0.10581355196E+04  0.10581355196E+04  0.00000000000E+00 0. -1.
         24    2    1    2    0    0 -0.43694835445E+02 -0.15969563016E+02 -0.96619960649E+03  0.97076989717E+03  0.81781709971E+02 0.  0.
         25    2    1    2    0    0  0.91373774547E+02  0.21643516015E+02 -0.16486260498E+02  0.15727966714E+03  0.12508992146E+03 0.  0.
        -24    2    1    2    0    0 -0.47678939103E+02 -0.56739529985E+01  0.81455102946E+03  0.82008663731E+03  0.82117221850E+02 0.  0.
        -11    1    3    3    0    0  0.57927840174E+01 -0.36453528382E+02 -0.26971038905E+03  0.27222437444E+03  0.00000000000E+00 0.  1.
         12    1    3    3    0    0 -0.49487619462E+02  0.20483965366E+02 -0.69648921744E+03  0.69854552273E+03  0.00000000000E+00 0. -1.
         11    1    5    5    0    0 -0.68650150189E+02  0.92694294967E+01  0.57662608443E+03  0.58077225028E+03  0.00000000000E+00 0. -1.
        -12    1    5    5    0    0  0.20971211086E+02 -0.14943382495E+02  0.23792494503E+03  0.23931438704E+03  0.00000000000E+00 0.  1.
          5    1    4    4  501    0 -0.21227430305E+02 -0.25712776661E+02  0.20023744876E+01  0.33663520085E+02  0.41800000000E+01 0. -1.
         -5    1    4    4    0  501  0.11260120485E+03  0.47356292675E+02 -0.18488634985E+02  0.12361614706E+03  0.41800000000E+01 0. -1.
</event>
<event>
11    1  0.1078607E-008  0.1864768E+03  0.7561462E-02  0.1064521E+00
         22   -1    0    0    0    0  0.00000000000E+00  0.00000000000E+00  0.39318804367E+03  0.39318804367E+03  0.00000000000E+00 0. -1.
         22   -1    0    0    0    0 -0.00000000000E+00 -0.00000000000E+00 -0.26432335714E+03  0.26432335714E+03  0.00000000000E+00 0. -1.
        -24    2    1    2    0    0  0.10938157219E+03  0.39679599783E+02 -0.93985443592E+02  0.16967152969E+03  0.80102218483E+02 0.  0.
         25    2    1    2    0    0 -0.14547312011E+03 -0.15825974223E+03  0.36583052441E+02  0.25138243345E+03  0.12508490491E+03 0.  0.
         24    2    1    2    0    0  0.36091547913E+02  0.11858014245E+03  0.18626707768E+03  0.23645743768E+03  0.76503892660E+02 0.  0.
        -11    1    5    5    0    0 -0.19149010974E+02  0.71069912155E+01  0.18226823439E+02  0.27375372839E+02  0.00000000000E+00 0.  1.
         12    1    5    5    0    0  0.55240558887E+02  0.11147315123E+03  0.16804025424E+03  0.20908206484E+03  0.00000000000E+00 0. -1.
         13    1    3    3    0    0  0.11719587956E+03  0.29543312649E+02 -0.98688977495E+02  0.15603587981E+03  0.00000000000E+00 0. -1.
        -14    1    3    3    0    0 -0.78143073691E+01  0.10136287135E+02  0.47035339026E+01  0.13635649882E+02  0.00000000000E+00 0.  1.
          5    1    4    4  501    0 -0.20165513865E+02  0.51266938220E+01  0.40138423657E+02  0.45403704614E+02  0.41800000000E+01 0. -1.
         -5    1    4    4    0  501 -0.12530760624E+03 -0.16338643605E+03 -0.35553712156E+01  0.20597872884E+03  0.41800000000E+01 0. -1.
</event>
<event>
11    1  0.1078607E-008  0.1716458E+03  0.7561462E-02  0.1076608E+00
         22   -1    0    0    0    0  0.00000000000E+00  0.00000000000E+00  0.24253056252E+02  0.24253056252E+02  0.00000000000E+00 0. -1.
         22   -1    0    0    0    0 -0.00000000000E+00 -0.00000000000E+00 -0.19763865683E+04  0.19763865683E+04  0.00000000000E+00 0.  1.
        -24    2    1    2    0    0 -0.41828268944E+02  0.45336469660E+02 -0.48448711597E+03  0.49497398274E+03  0.80414417177E+02 0.  0.
         25    2    1    2    0    0 -0.32554863941E+02 -0.13169352307E+03 -0.10280759764E+04  0.10444993556E+04  0.12504274227E+03 0.  0.
         24    2    1    2    0    0  0.74383132886E+02  0.86357053415E+02 -0.43957041969E+03  0.46116628623E+03  0.80385313054E+02 0.  0.
        -11    1    5    5    0    0  0.61849761516E+02  0.10187491612E+03 -0.36440489322E+03  0.38339903200E+03  0.00000000000E+00 0.  1.
         12    1    5    5    0    0  0.12533371370E+02 -0.15517862708E+02 -0.75165526474E+02  0.77767254234E+02  0.00000000000E+00 0. -1.
         11    1    3    3    0    0 -0.31920354676E+01 -0.39345631756E+01  0.12496086758E+01  0.52183713601E+01  0.00000000000E+00 0. -1.
        -12    1    3    3    0    0 -0.38636233477E+02  0.49271032836E+02 -0.48573672464E+03  0.48975561138E+03  0.00000000000E+00 0.  1.
          5    1    4    4  501    0 -0.76030147968E+02 -0.48390095213E+02 -0.52867535243E+03  0.53631826874E+03  0.41800000000E+01 0.  1.
         -5    1    4    4    0  501  0.43475284027E+02 -0.83303427862E+02 -0.49940062400E+03  0.50818108688E+03  0.41800000000E+01 0.  1.
</event>
<event>
11    1  0.1078607E-008  0.1761877E+03  0.7561462E-02  0.1072769E+00
         22   -1    0    0    0    0  0.00000000000E+00  0.00000000000E+00  0.69537806794E+03  0.69537806794E+03  0.00000000000E+00 0. -1.
         22   -1    0    0    0    0 -0.00000000000E+00 -0.00000000000E+00 -0.29230417118E+03  0.29230417118E+03  0.00000000000E+00 0. -1.
        -24    2    1    2    0    0 -0.22967670757E+02 -0.11619930645E+02 -0.21792033753E+03  0.23404932589E+03  0.81408087743E+02 0.  0.
         25    2    1    2    0    0  0.60832334895E+02  0.12693743432E+03  0.10009465726E+03  0.21325988376E+03  0.12508857824E+03 0.  0.
         24    2    1    2    0    0 -0.37864664138E+02 -0.11531750368E+03  0.52089957703E+03  0.54037302948E+03  0.77037537602E+02 0.  0.
        -11    1    5    5    0    0 -0.28310354618E+02 -0.11801027720E+03  0.37526310984E+03  0.39439866038E+03  0.00000000000E+00 0.  1.
         12    1    5    5    0    0 -0.95543095196E+01  0.26927735222E+01  0.14563646719E+03  0.14597436910E+03  0.00000000000E+00 0. -1.
         13    1    3    3    0    0 -0.12506653897E+02 -0.12271028439E+02 -0.22208198542E+03  0.22277208707E+03  0.00000000000E+00 0. -1.
        -14    1    3    3    0    0 -0.10461016861E+02  0.65109779384E+00  0.41616478894E+01  0.11277238813E+02  0.00000000000E+00 0.  1.
          5    1    4    4  501    0  0.92424097407E+01 -0.24418431716E+02  0.42453189519E+01  0.26780162029E+02  0.41800000000E+01 0.  1.
         -5    1    4    4    0  501  0.51589925154E+02  0.15135586604E+03  0.95849338312E+02  0.18647972173E+03  0.41800000000E+01 0.  1.
</event>
<event>
11    1  0.1078607E-008  0.1405594E+03  0.7561462E-02  0.1106935E+00
         22   -1    0    0    0    0  0.00000000000E+00  0.00000000000E+00  0.17189801855E+03  0.17189801855E+03  0.00000000000E+00 0. -1.
         22   -1    0    0    0    0 -0.00000000000E+00 -0.00000000000E+00 -0.56647061246E+03  0.56647061246E+03  0.00000000000E+00 0. -1.
         24    2    1    2    0    0  0.53423819324E+02 -0.25115962567E+02 -0.30011181621E+03  0.31546481336E+03  0.77240081545E+02 0.  0.
         25    2    1    2    0    0 -0.51341962402E+02  0.70641494378E+02 -0.21935561088E+03  0.26719080210E+03  0.12509125818E+03 0.  0.
        -24    2    1    2    0    0 -0.20818569214E+01 -0.45525531811E+02  0.12489483316E+03  0.15571301555E+03  0.81061184823E+02 0.  0.
        -11    1    3    3    0    0 -0.16714077596E+02  0.76187030559E+01 -0.81832838443E+02  0.83869055520E+02  0.00000000000E+00 0.  1.
         12    1    3    3    0    0  0.70137896920E+02 -0.32734665623E+02 -0.21827897776E+03  0.23159575784E+03  0.00000000000E+00 0. -1.
         13    1    5    5    0    0 -0.11338809005E+02 -0.56373307456E+02  0.12869293191E+03  0.14095527343E+03  0.00000000000E+00 0. -1.
        -14    1    5    5    0    0  0.92569520835E+01  0.10847775645E+02 -0.37980987484E+01  0.14757742118E+02  0.00000000000E+00 0.  1.
          5    1    4    4  501    0  0.14773605160E+02  0.87525678023E+01  0.10183405185E+02  0.20397082971E+02  0.41800000000E+01 0. -1.
         -5    1    4    4    0  501 -0.66115567562E+02  0.61888926575E+02 -0.22953901606E+03  0.24679371913E+03  0.41800000000E+01 0. -1.
</event>
<event>
11    1  0.1078607E-008  0.7088418E+03  0.7561462E-02  0.9019376E-01
         22   -1    0    0    0    0  0.00000000000E+00  0.00000000000E+00  0.74032258972E+03  0.74032258972E+03  0.00000000000E+00 0.  1.
         22   -1    0    0    0    0 -0.00000000000E+00 -0.00000000000E+00 -0.92705166856E+03  0.92705166856E+03  0.00000000000E+00 0.  1.
         24    2    1    2    0    0 -0.23537450677E+03 -0.62123547226E+03 -0.12510272741E+03  0.68069647368E+03  0.79764192717E+02 0.  0.
         25    2    1    2    0    0  0.44586156067E+03  0.59386147153E+03 -0.54623521839E+01  0.75308783415E+03  0.12508984776E+03 0.  0.
        -24    2    1    2    0    0 -0.21048705389E+03  0.27374000729E+02 -0.56163999236E+02  0.23358995045E+03  0.79722859748E+02 0.  0.
        -11    1    3    3    0    0 -0.19709846506E+03 -0.58027593326E+03 -0.11926357737E+03  0.62433305578E+03  0.00000000000E+00 0.  1.
         12    1    3    3    0    0 -0.38276041711E+02 -0.40959538998E+02 -0.58391500425E+01  0.56363417899E+02  0.00000000000E+00 0. -1.
         11    1    5    5    0    0 -0.13164440682E+03  0.68594891514E+01 -0.72582281719E+02  0.15048418541E+03  0.00000000000E+00 0. -1.
        -12    1    5    5    0    0 -0.78842647075E+02  0.20514511578E+02  0.16418282482E+02  0.83105765039E+02  0.00000000000E+00 0.  1.
          5    1    4    4  501    0  0.45179540653E+03  0.59251441641E+03 -0.83234059674E+01  0.74517056739E+03  0.41800000000E+01 0.  1.
         -5    1    4    4    0  501 -0.59338458652E+01  0.13470551176E+01  0.28610537835E+01  0.79172667628E+01  0.41800000000E+01 0.  1.
</event>
<event>
11    1  0.1078607E-008  0.2236975E+03  0.7561462E-02  0.1038926E+00
         22   -1    0    0    0    0  0.00000000000E+00  0.00000000000E+00  0.47845160836E+03  0.47845160836E+03  0.00000000000E+00 0.  1.
         22   -1    0    0    0    0 -0.00000000000E+00 -0.00000000000E+00 -0.39095101762E+03  0.39095101762E+03  0.00000000000E+00 0.  1.
         24    2    1    2    0    0 -0.65461138893E+02 -0.30543376400E+02 -0.27525015227E+03  0.29824214554E+03  0.89261819975E+02 0.  0.
         25    2    1    2    0    0  0.66356769786E+02 -0.16489848119E+03  0.12163230246E+03  0.24907157155E+03  0.12508997065E+03 0.  0.
        -24    2    1    2    0    0 -0.89563089356E+00  0.19544185759E+03  0.24111844054E+03  0.32208890889E+03  0.86051385855E+02 0.  0.
        -13    1    3    3    0    0 -0.48933610176E+02 -0.39963371142E+02 -0.27162559853E+03  0.27887637945E+03  0.00000000000E+00 0.  1.
         14    1    3    3    0    0 -0.16527528717E+02  0.94199947416E+01 -0.36245537371E+01  0.19365766089E+02  0.00000000000E+00 0. -1.
         11    1    5    5    0    0  0.40193379631E+02  0.91260621803E+02  0.13474033218E+03  0.16762746187E+03  0.00000000000E+00 0. -1.
        -12    1    5    5    0    0 -0.41089010525E+02  0.10418123578E+03  0.10637810837E+03  0.15446144702E+03  0.00000000000E+00 0.  1.
          5    1    4    4  501    0  0.23825930207E+02 -0.66783416143E+02 -0.17875347839E+02  0.73244112953E+02  0.41800000000E+01 0.  1.
         -5    1    4    4    0  501  0.42530839579E+02 -0.98115065043E+02  0.13950765030E+03  0.17582745859E+03  0.41800000000E+01 0.  1.
</event>
<event>
11    1  0.1078607E-008  0.1299680E+03  0.7561462E-02  0.1119308E+00
         22   -1    0    0    0    0  0.00000000000E+00  0.00000000000E+00  0.26998747805E+03  0.26998747805E+03  0.00000000000E+00 0. -1.
         22   -1    0    0    0    0 -0.00000000000E+00 -0.00000000000E+00 -0.15094332180E+04  0.15094332180E+04  0.00000000000E+00 0.  1.
        -24    2    1    2    0    0 -0.10766165297E+02  0.15573014668E+02 -0.12172267728E+04  0.12194995111E+04  0.71969521849E+02 0.  0.
         25    2    1    2    0    0  0.45321587008E+02 -0.20494656647E+02 -0.26665260600E+03  0.29870536047E+03  0.12508878001E+03 0.  0.
         24    2    1    2    0    0 -0.34555421712E+02  0.49216419786E+01  0.24443363890E+03  0.26121582442E+03  0.85250239737E+02 0.  0.
        -13    1    5    5    0    0 -0.31580487490E+02  0.39495582037E+01  0.21838137347E+02  0.38598321763E+02  0.00000000000E+00 0.  1.
         14    1    5    5    0    0 -0.29749342216E+01  0.97208377485E+00  0.22259550155E+03  0.22261750266E+03  0.00000000000E+00 0. -1.
         11    1    3    3    0    0 -0.30735150329E+02  0.18011695619E+02 -0.30849086954E+03  0.31054095903E+03  0.00000000000E+00 0. -1.
        -12    1    3    3    0    0  0.19968985032E+02 -0.24386809510E+01 -0.90873590329E+03  0.90895855211E+03  0.00000000000E+00 0.  1.
          5    1    4    4  501    0  0.89027021713E+02 -0.13679801045E+02 -0.18077646193E+03  0.20201621009E+03  0.41800000000E+01 0.  1.
         -5    1    4    4    0  501 -0.43705434705E+02 -0.68148556015E+01 -0.85876144072E+02  0.96689150375E+02  0.41800000000E+01 0.  1.
</event>
<event>
11    1  0.1078607E-008  0.2062069E+03  0.7561462E-02  0.1050219E+00
         22   -1    0    0    0    0  0.00000000000E+00  0.00000000000E+00  0.51094035776E+03  0.51094035776E+03  0.00000000000E+00 0.  1.
         22   -1    0    0    0    0 -0.00000000000E+00 -0.00000000000E+00 -0.35654330193E+03  0.35654330193E+03  0.00000000000E+00 0.  1.
         24    2    1    2    0    0  0.89384206922E+02 -0.12334712704E+03 -0.22226964283E+03  0.28103710047E+03  0.79837381714E+02 0.  0.
         25    2    1    2    0    0 -0.13949201444E+03  0.21657916706E+03  0.15006013535E+03  0.32331716194E+03  0.12510549664E+03 0.  0.
        -24    2    1    2    0    0  0.50107807519E+02 -0.93232040019E+02  0.22660656331E+03  0.26312939729E+03  0.81752917503E+02 0.  0.
        -11    1    3    3    0    0  0.38567930478E+02 -0.10878784836E+03 -0.12368861904E+03  0.16917788181E+03  0.00000000000E+00 0.  1.
         12    1    3    3    0    0  0.50816276444E+02 -0.14559278674E+02 -0.98581023794E+02  0.11185921866E+03  0.00000000000E+00 0. -1.
         11    1    5    5    0    0  0.40998025999E+02 -0.12282344621E+01  0.62094809906E+02  0.74418493084E+02  0.00000000000E+00 0. -1.
        -12    1    5    5    0    0  0.91097815199E+01 -0.92003805557E+02  0.16451175341E+03  0.18871090421E+03  0.00000000000E+00 0.  1.
          5    1    4    4  501    0  0.20764037573E+02  0.47260720565E+02  0.15284483039E+02  0.53998229475E+02  0.41800000000E+01 0. -1.
         -5    1    4    4    0  501 -0.16025605201E+03  0.16931844649E+03  0.13477565231E+03  0.26931893247E+03  0.41800000000E+01 0. -1.
</event>
<event>
11    1  0.1078607E-008  0.5260236E+03  0.7561462E-02  0.9337180E-01
         22   -1    0    0    0    0  0.00000000000E+00  0.00000000000E+00  0.48395853406E+03  0.48395853406E+03  0.00000000000E+00 0.  1.
         22   -1    0    0    0    0 -0.00000000000E+00 -0.00000000000E+00 -0.86796102136E+03  0.86796102136E+03  0.00000000000E+00 0.  1.
         24    2    1    2    0    0  0.33934660195E+03  0.35759158812E+03 -0.37131482576E+03  0.62239125272E+03  0.80425813527E+02 0.  0.
         25    2    1    2    0    0 -0.39736439612E+03 -0.37007101125E+03 -0.13328168851E+03  0.57294470882E+03  0.12510241483E+03 0.  0.
        -24    2    1    2    0    0  0.58017794171E+02  0.12479423133E+02  0.12059402697E+03  0.15658359389E+03  0.80334936936E+02 0.  0.
        -13    1    3    3    0    0  0.27927612214E+03  0.24341036885E+03 -0.27736431935E+03  0.46279015300E+03  0.00000000000E+00 0.  1.
         14    1    3    3    0    0  0.60070479814E+02  0.11418121926E+03 -0.93950506414E+02  0.15960109972E+03  0.00000000000E+00 0. -1.
         13    1    5    5    0    0 -0.63232722873E+01  0.18061326677E+02 -0.72012772523E+00  0.19149774873E+02  0.00000000000E+00 0. -1.
        -14    1    5    5    0    0  0.64341066458E+02 -0.55819035439E+01  0.12131415470E+03  0.13743381902E+03  0.00000000000E+00 0.  1.
          5    1    4    4  501    0 -0.20347442085E+03 -0.21272851014E+03 -0.10328296684E+02  0.29458344332E+03  0.41800000000E+01 0.  1.
         -5    1    4    4    0  501 -0.19388997527E+03 -0.15734250111E+03 -0.12295339183E+03  0.27836126549E+03  0.41800000000E+01 0.  1.
</event>
<event>
11    1  0.1078607E-008  0.1825406E+03  0.7561462E-02  0.1067606E+00
         22   -1    0    0    0    0  0.00000000000E+00  0.00000000000E+00  0.88856588966E+03  0.88856588966E+03  0.00000000000E+00 0. -1.
         22   -1    0    0    0    0 -0.00000000000E+00 -0.00000000000E+00 -0.48585927251E+03  0.48585927251E+03  0.00000000000E+00 0. -1.
         24    2    1    2    0    0 -0.11094618525E+03 -0.77225594066E+02 -0.37434358392E+03  0.40609007954E+03  0.80642330556E+02 0.  0.
         25    2    1    2    0    0  0.11800136433E+03  0.41290913667E+02 -0.91386408741E+01  0.17708914908E+03  0.12509112851E+03 0.  0.
        -24    2    1    2    0    0 -0.70551790713E+01  0.35934680398E+02  0.78618884194E+03  0.79124593356E+03  0.81462601036E+02 0.  0.
        -11    1    3    3    0    0 -0.15028301986E+02  0.13778630843E+02 -0.23240975064E+02  0.30916717976E+02  0.00000000000E+00 0.  1.
         12    1    3    3    0    0 -0.95917883269E+02 -0.91004224908E+02 -0.35110260885E+03  0.37517336156E+03  0.00000000000E+00 0. -1.
         11    1    5    5    0    0 -0.25741099503E+02  0.55450059380E+02  0.48247344518E+03  0.48633109975E+03  0.00000000000E+00 0. -1.
        -12    1    5    5    0    0  0.18685920431E+02 -0.19515378981E+02  0.30371539677E+03  0.30491483380E+03  0.00000000000E+00 0.  1.
          5    1    4    4  501    0  0.50670027301E+02  0.19978694838E+02  0.57915831356E+02  0.79613540530E+02  0.41800000000E+01 0.  1.
         -5    1    4    4    0  501  0.67331337025E+02  0.21312218829E+02 -0.67054472230E+02  0.97475608555E+02  0.41800000000E+01 0.  1.
</event>
<event>
11    1  0.1615979E-008  0.2171371E+03  0.7561462E-02  0.1043026E+00
         22   -1    0    0    0    0  0.00000000000E+00  0.00000000000E+00  0.20009514288E+04  0.20009514288E+04  0.00000000000E+00 0.  1.
         22   -1    0    0    0    0 -0.00000000000E+00 -0.00000000000E+00 -0.39914547848E+03  0.39914547848E+03  0.00000000000E+00 0.  1.
        -24    2    1    2    0    0  0.26415208372E+02 -0.13006786932E+02 -0.28700395951E+03  0.29892224674E+03  0.78206758536E+02 0.  0.
         25    2    1    2    0    0  0.61174481689E+02  0.16747069033E+03  0.16056094171E+02  0.21838239540E+03  0.12507726864E+03 0.  0.
         24    2    1    2    0    0 -0.87589690061E+02 -0.15446390340E+03  0.18727538156E+04  0.18827922651E+04  0.78541761657E+02 0.  0.
        -13    1    5    5    0    0 -0.96684383320E+01 -0.88360417185E+00  0.38208510182E+03  0.38220843069E+03  0.00000000000E+00 0.  1.
         14    1    5    5    0    0 -0.77921251729E+02 -0.15358029923E+03  0.14906687138E+04  0.15005838344E+04  0.00000000000E+00 0. -1.
         13    1    3    3    0    0  0.14655835385E+02 -0.88571335734E+01 -0.67747875416E+01  0.18415756085E+02  0.00000000000E+00 0. -1.
        -14    1    3    3    0    0  0.11759372988E+02 -0.41496533586E+01 -0.28022917197E+03  0.28050649065E+03  0.00000000000E+00 0.  1.
          5    1    4    4  501    0  0.65495887052E+02  0.40788917928E+02 -0.30793416805E+02  0.83181452049E+02  0.41800000000E+01 0.  1.
         -5    1    4    4    0  501 -0.43214053633E+01  0.12668177241E+03  0.46849510976E+02  0.13520094335E+03  0.41800000000E+01 0.  1.
</event>
<event>
11    1  0.1078607E-008  0.1525959E+03  0.7561462E-02  0.1094255E+00
         22   -1    0    0    0    0  0.00000000000E+00  0.00000000000E+00  0.18585611536E+04  0.18585611536E+04  0.00000000000E+00 0.  1.
         22   -1    0    0    0    0 -0.00000000000E+00 -0.00000000000E+00 -0.35830599620E+02  0.35830599620E+02  0.00000000000E+00 0.  1.
         24    2    1    2    0    0 -0.83231950804E+02  0.46040903110E+02  0.16302961553E+03  0.20544789185E+03  0.81134815803E+02 0.  0.
         25    2    1    2    0    0  0.69949101588E+01 -0.98682847807E+02  0.55443959722E+03  0.57692076629E+03  0.12508825040E+03 0.  0.
        -24    2    1    2    0    0  0.76237040646E+02  0.52641944698E+02  0.11052613412E+04  0.11120230951E+04  0.80059170950E+02 0.  0.
        -13    1    3    3    0    0 -0.18114916898E+02  0.27566720954E+02  0.47802630430E+01  0.33330545047E+02  0.00000000000E+00 0.  1.
         14    1    3    3    0    0 -0.65117033906E+02  0.18474182156E+02  0.15824935248E+03  0.17211734681E+03  0.00000000000E+00 0. -1.
         11    1    5    5    0    0  0.14357546889E+00  0.30407988422E+02  0.12845443008E+03  0.13200457182E+03  0.00000000000E+00 0. -1.
        -12    1    5    5    0    0  0.76093465177E+02  0.22233956275E+02  0.97680691115E+03  0.98001852326E+03  0.00000000000E+00 0.  1.
          5    1    4    4  501    0  0.60295686977E+01  0.22823756515E+02  0.29140380905E+02  0.37734781826E+02  0.41800000000E+01 0. -1.
         -5    1    4    4    0  501  0.96534146116E+00 -0.12150660432E+03  0.52529921631E+03  0.53918598446E+03  0.41800000000E+01 0. -1.
</event>
<event>
11    1  0.1078607E-008  0.3533111E+03  0.7561462E-02  0.9798542E-01
         22   -1    0    0    0    0  0.00000000000E+00  0.00000000000E+00  0.10345922165E+04  0.10345922165E+04  0.00000000000E+00 0.  1.
         22   -1    0    0    0    0 -0.00000000000E+00 -0.00000000000E+00 -0.51558531552E+03  0.51558531552E+03  0.00000000000E+00 0. -1.
         24    2    1    2    0    0 -0.31815113196E+03 -0.94773021141E+02 -0.40265293069E+03  0.52841231424E+03  0.82994716379E+02 0.  0.
         25    2    1    2    0    0  0.28593564900E+03  0.13662320475E+03  0.65547583053E+03  0.73872925173E+03  0.12508895837E+03 0.  0.
        -24    2    1    2    0    0  0.32215482957E+02 -0.41850183612E+02  0.26618400112E+03  0.28303596602E+03  0.80412439331E+02 0.  0.
        -13    1    3    3    0    0 -0.19671409942E+03 -0.36241017231E+02 -0.18539550078E+03  0.27272942627E+03  0.00000000000E+00 0.  1.
         14    1    3    3    0    0 -0.12143703253E+03 -0.58532003911E+02 -0.21725742991E+03  0.25568288797E+03  0.00000000000E+00 0. -1.
         13    1    5    5    0    0  0.47179207194E+02  0.41791205484E+01  0.11813491327E+03  0.12727607934E+03  0.00000000000E+00 0. -1.
        -14    1    5    5    0    0 -0.14963724236E+02 -0.46029304160E+02  0.14804908785E+03  0.15575988668E+03  0.00000000000E+00 0.  1.
          5    1    4    4  501    0  0.22110136038E+03  0.42207296569E+02  0.45985897150E+03  0.51201075527E+03  0.41800000000E+01 0. -1.
         -5    1    4    4    0  501  0.64834288620E+02  0.94415908184E+02  0.19561685903E+03  0.22671849646E+03  0.41800000000E+01 0. -1.
</event>
<event>
11    1  0.1078607E-008  0.1314468E+03  0.7561462E-02  0.1117504E+00
         22   -1    0    0    0    0  0.00000000000E+00  0.00000000000E+00  0.89792781812E+03  0.89792781812E+03  0.00000000000E+00 0.  1.
         22   -1    0    0    0    0 -0.00000000000E+00 -0.00000000000E+00 -0.22727760184E+03  0.22727760184E+03  0.00000000000E+00 0. -1.
        -24    2    1    2    0    0  0.39243969542E+02  0.10038856123E+02 -0.18634925266E+03  0.20617142709E+03  0.78356528791E+02 0.  0.
         25    2    1    2    0    0 -0.43260058670E+02  0.16286130895E+02  0.12605773850E+03  0.18350719360E+03  0.12509063087E+03 0.  0.
         24    2    1    2    0    0  0.40160891275E+01 -0.26324987018E+02  0.73094173044E+03  0.73552679927E+03  0.77554659649E+02 0.  0.
        -13    1    5    5    0    0 -0.37503448971E+01 -0.38124161937E+02  0.70456561069E+03  0.70560627589E+03  0.00000000000E+00 0.  1.
         14    1    5    5    0    0  0.77664340245E+01  0.11799174919E+02  0.26376119750E+02  0.29920523379E+02  0.00000000000E+00 0. -1.
         13    1    3    3    0    0  0.55095531686E+02  0.20623417770E+02 -0.17345344489E+03  0.18315823901E+03  0.00000000000E+00 0. -1.
        -14    1    3    3    0    0 -0.15851562144E+02 -0.10584561647E+02 -0.12895807766E+02  0.23013188080E+02  0.00000000000E+00 0.  1.
          5    1    4    4  501    0 -0.16976356432E+02  0.70106862610E+02  0.80265292581E+02  0.10799610389E+03  0.41800000000E+01 0. -1.
         -5    1    4    4    0  501 -0.26283702237E+02 -0.53820731715E+02  0.45792445917E+02  0.75511089707E+02  0.41800000000E+01 0. -1.
</event>
<event>
11    1  0.1078607E-008  0.1683254E+03  0.7561462E-02  0.1079498E+00
         22   -1    0    0    0    0  0.00000000000E+00  0.00000000000E+00  0.22579788368E+04  0.22579788368E+04  0.00000000000E+00 0. -1.
         22   -1    0    0    0    0 -0.00000000000E+00 -0.00000000000E+00 -0.44422733538E+02  0.44422733538E+02  0.00000000000E+00 0.  1.
         24    2    1    2    0    0 -0.33408073418E+02  0.39214187115E+02  0.64842673288E+02  0.11600697459E+03  0.81235423517E+02 0.  0.
         25    2    1    2    0    0  0.14089024336E+03 -0.39633762576E+02  0.56189641934E+03  0.59396649037E+03  0.12509080622E+03 0.  0.
        -24    2    1    2    0    0 -0.10748216994E+03  0.41957546079E+00  0.15868170106E+04  0.15924281054E+04  0.79287153234E+02 0.  0.
        -13    1    3    3    0    0 -0.34327147699E+02  0.61410458499E+02  0.34380390147E+02  0.78304589322E+02  0.00000000000E+00 0.  1.
         14    1    3    3    0    0  0.91907428153E+00 -0.22196271383E+02  0.30462283141E+02  0.37702385269E+02  0.00000000000E+00 0. -1.
         11    1    5    5    0    0 -0.78189279145E+02  0.92900328794E+01  0.14539902310E+04  0.14561206887E+04  0.00000000000E+00 0. -1.
        -12    1    5    5    0    0 -0.29292890800E+02 -0.88704574186E+01  0.13282677959E+03  0.13630741668E+03  0.00000000000E+00 0.  1.
          5    1    4    4  501    0  0.99139132949E+02  0.36157833458E+02  0.29235956998E+03  0.31084971796E+03  0.41800000000E+01 0.  1.
         -5    1    4    4    0  501  0.41751110413E+02 -0.75791596034E+02  0.26953684937E+03  0.28311677240E+03  0.41800000000E+01 0.  1.
</event>
<event>
11    1  0.1078607E-008  0.1618844E+03  0.7561462E-02  0.1085318E+00
         22   -1    0    0    0    0  0.00000000000E+00  0.00000000000E+00  0.89318657341E+03  0.89318657341E+03  0.00000000000E+00 0. -1.
         22   -1    0    0    0    0 -0.00000000000E+00 -0.00000000000E+00 -0.16737076311E+03  0.16737076311E+03  0.00000000000E+00 0.  1.
         24    2    1    2    0    0 -0.85792056163E+02  0.47036318999E+02 -0.94871845907E+02  0.15774941700E+03  0.79445070417E+02 0.  0.
         25    2    1    2    0    0  0.97577067297E+02 -0.12355801534E+03  0.24573425820E+03  0.31752267281E+03  0.12508978727E+03 0.  0.
        -24    2    1    2    0    0 -0.11785011134E+02  0.76521696337E+02  0.57495339801E+03  0.58528524671E+03  0.77414169437E+02 0.  0.
        -13    1    3    3    0    0 -0.10385833079E+02 -0.68343688684E+01 -0.55815254451E+02  0.57183185955E+02  0.00000000000E+00 0.  1.
         14    1    3    3    0    0 -0.75406223084E+02  0.53870687867E+02 -0.39056591456E+02  0.10056623105E+03  0.00000000000E+00 0. -1.
         13    1    5    5    0    0 -0.38609260942E+02  0.71529094312E+02  0.46097088856E+03  0.46808252099E+03  0.00000000000E+00 0. -1.
        -14    1    5    5    0    0  0.26824249808E+02  0.49926020251E+01  0.11398250945E+03  0.11720272571E+03  0.00000000000E+00 0.  1.
          5    1    4    4  501    0  0.12451252091E+03 -0.91002085478E+02  0.21699748379E+03  0.26625200055E+03  0.41800000000E+01 0.  1.
         -5    1    4    4    0  501 -0.26935453618E+02 -0.32555929857E+02  0.28736774414E+02  0.51270672262E+02  0.41800000000E+01 0.  1.
</event>
<event>
11    1  0.1078607E-008  0.1426125E+03  0.7561462E-02  0.1104676E+00
         22   -1    0    0    0    0  0.00000000000E+00  0.00000000000E+00  0.40874849901E+03  0.40874849901E+03  0.00000000000E+00 0. -1.
         22   -1    0    0    0    0 -0.00000000000E+00 -0.00000000000E+00 -0.87727448398E+03  0.87727448398E+03  0.00000000000E+00 0. -1.
        -24    2    1    2    0    0 -0.40787216788E+02 -0.28401215456E+02 -0.76836466175E+03  0.77403114182E+03  0.79181620213E+02 0.  0.
         25    2    1    2    0    0 -0.28625607645E+02  0.43139295782E+02 -0.51543884898E+02  0.14486105175E+03  0.12509007950E+03 0.  0.
         24    2    1    2    0    0  0.69412824433E+02 -0.14738080327E+02  0.35138256169E+03  0.36713078943E+03  0.79246202941E+02 0.  0.
        -11    1    5    5    0    0  0.17230128444E+02  0.24596883139E+02  0.46725328907E+02  0.55544039715E+02  0.00000000000E+00 0.  1.
         12    1    5    5    0    0  0.52182695990E+02 -0.39334963466E+02  0.30465723278E+03  0.31158674971E+03  0.00000000000E+00 0. -1.
         11    1    3    3    0    0 -0.16719251809E+02  0.16592273505E+02 -0.51717701504E+03  0.51771314626E+03  0.00000000000E+00 0. -1.
        -12    1    3    3    0    0 -0.24067964979E+02 -0.44993488960E+02 -0.25118764671E+03  0.25631799556E+03  0.00000000000E+00 0.  1.
          5    1    4    4  501    0 -0.59276582195E+01  0.58990051289E+02  0.24151158459E+02  0.64153831826E+02  0.41800000000E+01 0.  1.
         -5    1    4    4    0  501 -0.22697949426E+02 -0.15850755507E+02 -0.75695043357E+02  0.80707219919E+02  0.41800000000E+01 0.  1.
</event>
<event>
11    1  0.1078607E-008  0.1819507E+03  0.7561462E-02  0.1068076E+00
         22   -1    0    0    0    0  0.00000000000E+00  0.00000000000E+00  0.56819306392E+03  0.56819306392E+03  0.00000000000E+00 0.  1.
         22   -1    0    0    0    0 -0.00000000000E+00 -0.00000000000E+00 -0.23231958422E+03  0.23231958422E+03  0.00000000000E+00 0.  1.
        -24    2    1    2    0    0  0.60695067107E+02 -0.33288289827E+02 -0.10447030813E+03  0.14803714812E+03  0.78796894169E+02 0.  0.
         25    2    1    2    0    0 -0.77524042719E+01 -0.95102554029E+02 -0.25720946394E+02  0.15941501088E+03  0.12508790131E+03 0.  0.
         24    2    1    2    0    0 -0.52942662835E+02  0.12839084386E+03  0.46606473423E+03  0.49306048915E+03  0.81272228600E+02 0.  0.
        -13    1    5    5    0    0  0.12582657553E-01  0.62192164779E+02  0.30256017160E+03  0.30888593842E+03  0.00000000000E+00 0.  1.
         14    1    5    5    0    0 -0.52955245493E+02  0.66198679077E+02  0.16350456263E+03  0.18417455073E+03  0.00000000000E+00 0. -1.
         13    1    3    3    0    0  0.27218519235E+02 -0.51457831533E+02 -0.32656445941E+02  0.66747282168E+02  0.00000000000E+00 0. -1.
        -14    1    3    3    0    0  0.33476547872E+02  0.18169541705E+02 -0.71813862188E+02  0.81289865947E+02  0.00000000000E+00 0.  1.
          5    1    4    4  501    0 -0.10512856250E+02 -0.78809219503E+02  0.41697304883E+02  0.89875196021E+02  0.41800000000E+01 0. -1.
         -5    1    4    4    0  501  0.27604519784E+01 -0.16293334526E+02 -0.67418251277E+02  0.69539814857E+02  0.41800000000E+01 0. -1.
</event>
