<event>
11    1  0.8453735E-009  0.1538356E+03  0.7561462E-02  0.1093023E+00
         22   -1    0    0    0    0  0.00000000000E+00  0.00000000000E+00  0.13231019678E+04  0.13231019678E+04  0.00000000000E+00 0.  1.
         22   -1    0    0    0    0 -0.00000000000E+00 -0.00000000000E+00 -0.62261102312E+03  0.62261102312E+03  0.00000000000E+00 0.  1.
        -24    2    1    2    0    0  0.85593526881E+02  0.25600626563E+02 -0.59600431803E+03  0.60746885510E+03  0.76260205095E+02 0.  0.
         25    2    1    2    0    0 -0.93914894011E+02 -0.41219355135E+02  0.32746795452E+03  0.36524203423E+03  0.12508972692E+03 0.  0.
         24    2    1    2    0    0  0.83213671295E+01  0.15618728572E+02  0.96902730819E+03  0.97300210158E+03  0.86057979494E+02 0.  0.
        -11    1    5    5    0    0  0.16747974200E+01 -0.17500763259E-01  0.93468784242E+03  0.93468934305E+03  0.00000000000E+00 0.  1.
         12    1    5    5    0    0  0.66465697095E+01  0.15636229335E+02  0.34339465775E+02  0.38312758533E+02  0.00000000000E+00 0. -1.
         13    1    3    3    0    0  0.63209447030E+02 -0.12547408329E+02 -0.45900222682E+03  0.46350395454E+03  0.00000000000E+00 0. -1.
        -14    1    3    3    0    0  0.22384079852E+02  0.38148034892E+02 -0.13700209121E+03  0.14396490056E+03  0.00000000000E+00 0.  1.
          5    1    4    4  501    0  0.24742808322E+02  0.40611525786E+01  0.11413046467E+03  0.11692704943E+03  0.41800000000E+01 0.  1.
         -5    1    4    4    0  501 -0.11865770233E+03 -0.45280507714E+02  0.21333748985E+03  0.24831498480E+03  0.41800000000E+01 0.  1.
</event>
<event>
11    1  0.8453735E-009  0.1511534E+03  0.7561462E-02  0.1095706E+00
         22   -1    0    0    0    0  0.00000000000E+00  0.00000000000E+00  0.18695305555E+03  0.18695305555E+03  0.00000000000E+00 0. -1.
         22   -1    0    0    0    0 -0.00000000000E+00 -0.00000000000E+00 -0.52380765399E+03  0.52380765399E+03  0.00000000000E+00 0. -1.
        -24    2    1    2    0    0  0.17313323809E+02 -0.15158017170E+02 -0.26831884571E+03  0.28022788190E+03  0.77479972694E+02 0.  0.
         25    2    1    2    0    0 -0.15965837639E+01  0.97479438186E+02 -0.20019240944E+03  0.25540418820E+03  0.12509799600E+03 0.  0.
         24    2    1    2    0    0 -0.15716740046E+02 -0.82321421015E+02  0.13165665670E+03  0.17512863944E+03  0.79452708084E+02 0.  0.
        -11    1    5    5    0    0 -0.31206017168E+02 -0.53352869689E+01  0.16378822479E+02  0.35644727805E+02  0.00000000000E+00 0.  1.
         12    1    5    5    0    0  0.15489277122E+02 -0.76986134046E+02  0.11527783422E+03  0.13948391163E+03  0.00000000000E+00 0. -1.
         11    1    3    3    0    0  0.45151810086E+02  0.55733603822E+01 -0.16909790147E+03  0.17511096077E+03  0.00000000000E+00 0. -1.
        -12    1    3    3    0    0 -0.27838486277E+02 -0.20731377552E+02 -0.99220944239E+02  0.10511692114E+03  0.00000000000E+00 0.  1.
          5    1    4    4  501    0 -0.16853775398E+02  0.55227377289E+02 -0.20211895482E+03  0.21024665811E+03  0.41800000000E+01 0. -1.
         -5    1    4    4    0  501  0.15257191634E+02  0.42252060897E+02  0.19265453829E+01  0.45157530089E+02  0.41800000000E+01 0. -1.
</event>
<event>
11    1  0.8453735E-009  0.1378701E+03  0.7561462E-02  0.1109960E+00
         22   -1    0    0    0    0  0.00000000000E+00  0.00000000000E+00  0.10218857566E+03  0.10218857566E+03  0.00000000000E+00 0. -1.
         22   -1    0    0    0    0 -0.00000000000E+00 -0.00000000000E+00 -0.68871322902E+03  0.68871322902E+03  0.00000000000E+00 0. -1.
         24    2    1    2    0    0  0.30113591687E+02  0.52957504495E+02 -0.54128849502E+03  0.55052807985E+03  0.79853654791E+02 0.  0.
         25    2    1    2    0    0 -0.10977701453E+02 -0.32833738339E+02 -0.75030342179E+02  0.14992102979E+03  0.12509276008E+03 0.  0.
        -24    2    1    2    0    0 -0.19135890234E+02 -0.20123766156E+02  0.29794183829E+02  0.90452695033E+02  0.80764152874E+02 0.  0.
        -11    1    3    3    0    0  0.21733919621E+02  0.57481793945E+02 -0.20281967414E+03  0.21192531731E+03  0.00000000000E+00 0.  1.
         12    1    3    3    0    0  0.83796720658E+01 -0.45242894504E+01 -0.33846882088E+03  0.33860276255E+03  0.00000000000E+00 0. -1.
         13    1    5    5    0    0 -0.37926124448E+02 -0.31954680852E+02  0.42111551173E+02  0.65060550921E+02  0.00000000000E+00 0. -1.
        -14    1    5    5    0    0  0.18790234214E+02  0.11830914695E+02 -0.12317367344E+02  0.25392144113E+02  0.00000000000E+00 0.  1.
          5    1    4    4  501    0  0.51535160553E+02 -0.95024860064E+01 -0.45357527480E+01  0.52765665602E+02  0.41800000000E+01 0. -1.
         -5    1    4    4    0  501 -0.62512862005E+02 -0.23331252332E+02 -0.70494589432E+02  0.97155364189E+02  0.41800000000E+01 0. -1.
</event>
<event>
11    1  0.8453735E-009  0.1672895E+03  0.7561462E-02  0.1080415E+00
         22   -1    0    0    0    0  0.00000000000E+00  0.00000000000E+00  0.12852700803E+04  0.12852700803E+04  0.00000000000E+00 0. -1.
         22   -1    0    0    0    0 -0.00000000000E+00 -0.00000000000E+00 -0.71200855351E+03  0.71200855351E+03  0.00000000000E+00 0. -1.
         24    2    1    2    0    0 -0.11080934835E+03 -0.77501552498E+01 -0.68951514686E+03  0.70321347159E+03  0.82093070839E+02 0.  0.
         25    2    1    2    0    0  0.10332112514E+03  0.47838886600E+02  0.54222913125E+03  0.56801026205E+03  0.12513757647E+03 0.  0.
        -24    2    1    2    0    0  0.74882232118E+01 -0.40088731350E+02  0.72054754237E+03  0.72605490014E+03  0.79396330697E+02 0.  0.
        -11    1    3    3    0    0 -0.53262656497E+02 -0.45759986744E+01 -0.12753951726E+03  0.13829019778E+03  0.00000000000E+00 0.  1.
         12    1    3    3    0    0 -0.57546691852E+02 -0.31741565754E+01 -0.56197562960E+03  0.56492327380E+03  0.00000000000E+00 0. -1.
         11    1    5    5    0    0  0.38726702247E+02 -0.29747855696E+02  0.56264315679E+03  0.56475836804E+03  0.00000000000E+00 0. -1.
        -12    1    5    5    0    0 -0.31238479035E+02 -0.10340875654E+02  0.15790438558E+03  0.16129653210E+03  0.00000000000E+00 0.  1.
          5    1    4    4  501    0  0.10711971319E+03  0.18634439446E+02  0.23078750218E+03  0.25515136459E+03  0.41800000000E+01 0. -1.
         -5    1    4    4    0  501 -0.37985880506E+01  0.29204447153E+02  0.31144162907E+03  0.31285889746E+03  0.41800000000E+01 0. -1.
</event>
<event>
11    1  0.8453735E-009  0.1848774E+03  0.7561462E-02  0.1065764E+00
         22   -1    0    0    0    0  0.00000000000E+00  0.00000000000E+00  0.15997498697E+04  0.15997498697E+04  0.00000000000E+00 0. -1.
         22   -1    0    0    0    0 -0.00000000000E+00 -0.00000000000E+00 -0.82074683499E+02  0.82074683499E+02  0.00000000000E+00 0.  1.
        -24    2    1    2    0    0  0.61428504885E+01 -0.43645833808E+02 -0.66621984845E+01  0.91209932688E+02  0.79574955302E+02 0.  0.
         25    2    1    2    0    0  0.12233650238E+03 -0.10539164403E+02  0.24519277256E+03  0.30140750191E+03  0.12509873176E+03 0.  0.
         24    2    1    2    0    0 -0.12847935287E+03  0.54184998211E+02  0.12791446121E+04  0.12892071186E+04  0.80006860854E+02 0.  0.
        -13    1    5    5    0    0 -0.38141509976E+02  0.27178352201E+02  0.17886569076E+03  0.18489557308E+03  0.00000000000E+00 0.  1.
         14    1    5    5    0    0 -0.90337842894E+02  0.27006646010E+02  0.11002789214E+04  0.11043115455E+04  0.00000000000E+00 0. -1.
         11    1    3    3    0    0 -0.19891402561E+02 -0.54809317977E+02 -0.17506084567E+02  0.60878503840E+02  0.00000000000E+00 0. -1.
        -12    1    3    3    0    0  0.26034253049E+02  0.11163484168E+02  0.10843886082E+02  0.30331428848E+02  0.00000000000E+00 0.  1.
          5    1    4    4  501    0  0.70422271403E+02 -0.40027565620E+02  0.45633988774E+02  0.93066834320E+02  0.41800000000E+01 0. -1.
         -5    1    4    4    0  501  0.51914230979E+02  0.29488401217E+02  0.19955878379E+03  0.20834066759E+03  0.41800000000E+01 0. -1.
</event>
<event>
11    1  0.8453735E-009  0.1428329E+03  0.7561462E-02  0.1104436E+00
         22   -1    0    0    0    0  0.00000000000E+00  0.00000000000E+00  0.26042840695E+03  0.26042840695E+03  0.00000000000E+00 0. -1.
         22   -1    0    0    0    0 -0.00000000000E+00 -0.00000000000E+00 -0.11508802577E+04  0.11508802577E+04  0.00000000000E+00 0.  1.
        -24    2    1    2    0    0  0.45593752183E+02  0.13260740620E+01 -0.85662990237E+03  0.86134419100E+03  0.77578843943E+02 0.  0.
         25    2    1    2    0    0 -0.69175261841E+02  0.62582493675E+02 -0.25405724206E+03  0.29815179272E+03  0.12509046286E+03 0.  0.
         24    2    1    2    0    0  0.23581509658E+02 -0.63908567737E+02  0.22023529366E+03  0.25181268094E+03  0.10131953948E+03 0.  0.
        -13    1    5    5    0    0 -0.35019033738E+01  0.81691977261E+01 -0.73635287967E+01  0.11542126107E+02  0.00000000000E+00 0.  1.
         14    1    5    5    0    0  0.27083413032E+02 -0.72077765463E+02  0.22759882246E+03  0.24027055483E+03  0.00000000000E+00 0. -1.
         13    1    3    3    0    0  0.84670972801E+01  0.85154506627E+01 -0.16731317469E+02  0.20594698847E+02  0.00000000000E+00 0. -1.
        -14    1    3    3    0    0  0.37126654903E+02 -0.71893766007E+01 -0.83989858490E+03  0.84074949216E+03  0.00000000000E+00 0.  1.
          5    1    4    4  501    0  0.19668361778E+01  0.68653181612E+02 -0.19022352780E+03  0.20228591329E+03  0.41800000000E+01 0.  1.
         -5    1    4    4    0  501 -0.71142098019E+02 -0.60706879370E+01 -0.63833714259E+02  0.95865879429E+02  0.41800000000E+01 0.  1.
</event>
<event>
11    1  0.8453735E-009  0.1413384E+03  0.7561462E-02  0.1106073E+00
         22   -1    0    0    0    0  0.00000000000E+00  0.00000000000E+00  0.86151479224E+02  0.86151479224E+02  0.00000000000E+00 0.  1.
         22   -1    0    0    0    0 -0.00000000000E+00 -0.00000000000E+00 -0.18302501042E+04  0.18302501042E+04  0.00000000000E+00 0.  1.
        -24    2    1    2    0    0  0.23711879829E+02  0.99346750756E+01 -0.12286293921E+04  0.12321891409E+04  0.89994137522E+02 0.  0.
         25    2    1    2    0    0  0.14651472446E+02 -0.63801762757E+02 -0.55433743775E+03  0.57203301953E+03  0.12508577044E+03 0.  0.
         24    2    1    2    0    0 -0.38363352275E+02  0.53867087681E+02  0.38868204915E+02  0.11217942296E+03  0.81853989817E+02 0.  0.
        -11    1    5    5    0    0 -0.67077225203E+00 -0.79333698803E+01  0.38986649098E+02  0.39791294286E+02  0.00000000000E+00 0.  1.
         12    1    5    5    0    0 -0.37692580023E+02  0.61800457561E+02 -0.11844418322E+00  0.72388128672E+02  0.00000000000E+00 0. -1.
         13    1    3    3    0    0  0.49146004133E+02 -0.10951858284E+02 -0.43969711938E+03  0.44257070589E+03  0.00000000000E+00 0. -1.
        -14    1    3    3    0    0 -0.25434124304E+02  0.20886533360E+02 -0.78893227274E+03  0.78961843502E+03  0.00000000000E+00 0.  1.
          5    1    4    4  501    0 -0.34607498737E+02  0.95027837167E+01 -0.61506903468E+02  0.71334097326E+02  0.41800000000E+01 0. -1.
         -5    1    4    4    0  501  0.49258971183E+02 -0.73304546473E+02 -0.49283053428E+03  0.50069892221E+03  0.41800000000E+01 0. -1.
</event>
<event>
11    1  0.8453735E-009  0.1648349E+03  0.7561462E-02  0.1082616E+00
         22   -1    0    0    0    0  0.00000000000E+00  0.00000000000E+00  0.36608795262E+03  0.36608795262E+03  0.00000000000E+00 0. -1.
         22   -1    0    0    0    0 -0.00000000000E+00 -0.00000000000E+00 -0.32689804947E+03  0.32689804947E+03  0.00000000000E+00 0. -1.
         24    2    1    2    0    0 -0.35685928538E+02  0.27561720754E+02 -0.25240894254E+03  0.26907154538E+03  0.81584853453E+02 0.  0.
         25    2    1    2    0    0 -0.74499381233E+02 -0.62353960046E+02  0.10250247515E+03  0.18865633728E+03  0.12508509921E+03 0.  0.
        -24    2    1    2    0    0  0.11018530977E+03  0.34792239292E+02  0.18909637054E+03  0.23525811944E+03  0.78978750352E+02 0.  0.
        -11    1    3    3    0    0 -0.12365400821E+02  0.48996744301E+02 -0.86609678618E+02  0.10027372796E+03  0.00000000000E+00 0.  1.
         12    1    3    3    0    0 -0.23320527717E+02 -0.21435023547E+02 -0.16579926392E+03  0.16879781741E+03  0.00000000000E+00 0. -1.
         13    1    5    5    0    0  0.10255716457E+03  0.19042571612E+02  0.19102834785E+03  0.21765206458E+03  0.00000000000E+00 0. -1.
        -14    1    5    5    0    0  0.76281452058E+01  0.15749667680E+02 -0.19319773052E+01  0.17606054857E+02  0.00000000000E+00 0.  1.
          5    1    4    4  501    0 -0.23318163290E+02 -0.63515832671E+02 -0.65570394426E+01  0.68106276549E+02  0.41800000000E+01 0.  1.
         -5    1    4    4    0  501 -0.51181217944E+02  0.11618726245E+01  0.10905951459E+03  0.12055006073E+03  0.41800000000E+01 0.  1.
</event>
<event>
11    1  0.8453735E-009  0.2075572E+03  0.7561462E-02  0.1049305E+00
         22   -1    0    0    0    0  0.00000000000E+00  0.00000000000E+00  0.48691070790E+03  0.48691070790E+03  0.00000000000E+00 0.  1.
         22   -1    0    0    0    0 -0.00000000000E+00 -0.00000000000E+00 -0.55255593272E+03  0.55255593272E+03  0.00000000000E+00 0. -1.
         24    2    1    2    0    0 -0.26928992758E+02  0.15515251389E+03 -0.26106519021E+03  0.31535091431E+03  0.80583449923E+02 0.  0.
         25    2    1    2    0    0  0.21567670443E+02 -0.17831516440E+03 -0.21389456751E+03  0.30603860403E+03  0.12508908379E+03 0.  0.
        -24    2    1    2    0    0  0.53613223153E+01  0.23162650510E+02  0.40931453291E+03  0.41807712228E+03  0.81760877973E+02 0.  0.
        -13    1    3    3    0    0  0.45556071931E+01  0.27345635192E+01 -0.64088762326E+02  0.64308637452E+02  0.00000000000E+00 0.  1.
         14    1    3    3    0    0 -0.31484599951E+02  0.15241795037E+03 -0.19697642788E+03  0.25104227686E+03  0.00000000000E+00 0. -1.
         11    1    5    5    0    0 -0.12462907241E+02  0.42822037658E+02  0.12865663320E+03  0.13616747128E+03  0.00000000000E+00 0. -1.
        -12    1    5    5    0    0  0.17824229556E+02 -0.19659387148E+02  0.28065789970E+03  0.28190965100E+03  0.00000000000E+00 0.  1.
          5    1    4    4  501    0  0.45595998099E+02 -0.14277845929E+02 -0.78299409452E+02  0.91821140526E+02  0.41800000000E+01 0.  1.
         -5    1    4    4    0  501 -0.24028327656E+02 -0.16403731847E+03 -0.13559515806E+03  0.21421746351E+03  0.41800000000E+01 0.  1.
</event>
<event>
11    1  0.8453735E-009  0.1433067E+03  0.7561462E-02  0.1103921E+00
         22   -1    0    0    0    0  0.00000000000E+00  0.00000000000E+00  0.15560576761E+03  0.15560576761E+03  0.00000000000E+00 0.  1.
         22   -1    0    0    0    0 -0.00000000000E+00 -0.00000000000E+00 -0.12236795549E+04  0.12236795549E+04  0.00000000000E+00 0.  1.
        -24    2    1    2    0    0  0.15533901918E+02  0.14700208499E+02 -0.99096198277E+03  0.99440146321E+03  0.79819925419E+02 0.  0.
         25    2    1    2    0    0 -0.11662645649E+02  0.56617739611E+02 -0.18572418659E+03  0.23126234678E+03  0.12508882368E+03 0.  0.
         24    2    1    2    0    0 -0.38712562693E+01 -0.71317948110E+02  0.10861238208E+03  0.15362151251E+03  0.81863808958E+02 0.  0.
        -13    1    5    5    0    0 -0.26058510235E+02 -0.65917600742E+02  0.40175326785E+02  0.81475351644E+02  0.00000000000E+00 0.  1.
         14    1    5    5    0    0  0.22187253966E+02 -0.54003473677E+01  0.68437055296E+02  0.72146160867E+02  0.00000000000E+00 0. -1.
         13    1    3    3    0    0  0.40974436753E+02  0.54305434578E+01 -0.29151882828E+03  0.29443441123E+03  0.00000000000E+00 0. -1.
        -14    1    3    3    0    0 -0.25440534835E+02  0.92696650407E+01 -0.69944315449E+03  0.69996705198E+03  0.00000000000E+00 0.  1.
          5    1    4    4  501    0 -0.40187359657E+02  0.82189428149E+02 -0.91488519637E+02  0.12945171919E+03  0.41800000000E+01 0. -1.
         -5    1    4    4    0  501  0.28524714008E+02 -0.25571688538E+02 -0.94235666953E+02  0.10181062759E+03  0.41800000000E+01 0. -1.
</event>
<event>
11    1  0.8453735E-009  0.1315671E+03  0.7561462E-02  0.1117358E+00
         22   -1    0    0    0    0  0.00000000000E+00  0.00000000000E+00  0.10218567704E+04  0.10218567704E+04  0.00000000000E+00 0.  1.
         22   -1    0    0    0    0 -0.00000000000E+00 -0.00000000000E+00 -0.20614970528E+03  0.20614970528E+03  0.00000000000E+00 0.  1.
         24    2    1    2    0    0  0.21201037805E+02  0.33684292509E+02 -0.16122291273E+03  0.18464507340E+03  0.80727070888E+02 0.  0.
         25    2    1    2    0    0 -0.30936270726E+02 -0.42586404624E+02  0.11226695558E+03  0.17613426959E+03  0.12509499152E+03 0.  0.
        -24    2    1    2    0    0  0.97352329215E+01  0.89021121154E+01  0.86466302229E+03  0.86722713271E+03  0.65320251380E+02 0.  0.
        -13    1    3    3    0    0  0.34304759411E+02  0.38118439088E+02 -0.16283365723E+03  0.17071798922E+03  0.00000000000E+00 0.  1.
         14    1    3    3    0    0 -0.13103721607E+02 -0.44341465796E+01  0.16107444970E+01  0.13927084177E+02  0.00000000000E+00 0. -1.
         13    1    5    5    0    0  0.12383995743E+02  0.22020897417E+02  0.12945108552E+03  0.13189339185E+03  0.00000000000E+00 0. -1.
        -14    1    5    5    0    0 -0.26487628215E+01 -0.13118785301E+02  0.73521193677E+03  0.73533374086E+03  0.00000000000E+00 0.  1.
          5    1    4    4  501    0  0.13049400867E+02  0.13579011381E+02  0.10215525208E+03  0.10396078271E+03  0.41800000000E+01 0. -1.
         -5    1    4    4    0  501 -0.43985671594E+02 -0.56165416005E+02  0.10111703492E+02  0.72173486877E+02  0.41800000000E+01 0. -1.
</event>
<event>
11    1  0.8453735E-009  0.1590333E+03  0.7561462E-02  0.1087990E+00
         22   -1    0    0    0    0  0.00000000000E+00  0.00000000000E+00  0.20815194767E+04  0.20815194767E+04  0.00000000000E+00 0. -1.
         22   -1    0    0    0    0 -0.00000000000E+00 -0.00000000000E+00 -0.32003327636E+03  0.32003327636E+03  0.00000000000E+00 0.  1.
         24    2    1    2    0    0  0.97686499130E+02  0.13695908943E+02 -0.27141332283E+03  0.30132312717E+03  0.86024444950E+02 0.  0.
         25    2    1    2    0    0 -0.77754608984E+02 -0.89992668624E+02  0.20124346282E+03  0.26512433469E+03  0.12509005514E+03 0.  0.
        -24    2    1    2    0    0 -0.19931890145E+02  0.76296759681E+02  0.18316560604E+04  0.18351052912E+04  0.80181235695E+02 0.  0.
        -11    1    3    3    0    0  0.19386314541E+02 -0.22991033838E+02 -0.14551763138E+03  0.14859272483E+03  0.00000000000E+00 0.  1.
         12    1    3    3    0    0  0.78300184588E+02  0.36686942781E+02 -0.12589569144E+03  0.15273040235E+03  0.00000000000E+00 0. -1.
         13    1    5    5    0    0 -0.35433941802E+02  0.25109737054E+02  0.13089359293E+04  0.13096561878E+04  0.00000000000E+00 0. -1.
        -14    1    5    5    0    0  0.15502051657E+02  0.51187022627E+02  0.52272013103E+03  0.52544910341E+03  0.00000000000E+00 0.  1.
          5    1    4    4  501    0 -0.11063535781E+03 -0.59917920098E+02  0.16496177184E+03  0.20750951332E+03  0.41800000000E+01 0.  1.
         -5    1    4    4    0  501  0.32880748825E+02 -0.30074748526E+02  0.36281690978E+02  0.57614821379E+02  0.41800000000E+01 0.  1.
</event>
<event>
11    1  0.8453735E-009  0.1510733E+03  0.7561462E-02  0.1095787E+00
         22   -1    0    0    0    0  0.00000000000E+00  0.00000000000E+00  0.10186154766E+04  0.10186154766E+04  0.00000000000E+00 0. -1.
         22   -1    0    0    0    0 -0.00000000000E+00 -0.00000000000E+00 -0.23860927302E+03  0.23860927302E+03  0.00000000000E+00 0.  1.
        -24    2    1    2    0    0  0.76301318050E+02  0.35291933870E+02 -0.20556961663E+03  0.23587261255E+03  0.79433055673E+02 0.  0.
         25    2    1    2    0    0 -0.85192801859E+02 -0.65702626251E+02  0.46278831759E+03  0.49131924730E+03  0.12508767841E+03 0.  0.
         24    2    1    2    0    0  0.88914838095E+01  0.30410692381E+02  0.52278750259E+03  0.53003288974E+03  0.81389327573E+02 0.  0.
        -13    1    5    5    0    0 -0.14939634803E+02 -0.12325432557E+02  0.36774359625E+02  0.41562753778E+02  0.00000000000E+00 0.  1.
         14    1    5    5    0    0  0.23831118612E+02  0.42736124938E+02  0.48601314296E+03  0.48847013596E+03  0.00000000000E+00 0. -1.
         11    1    3    3    0    0  0.32627093698E+01 -0.15081043547E+02 -0.83794295221E+02  0.85203093011E+02  0.00000000000E+00 0. -1.
        -12    1    3    3    0    0  0.73038608680E+02  0.50372977417E+02 -0.12177532141E+03  0.15066951953E+03  0.00000000000E+00 0.  1.
          5    1    4    4  501    0 -0.53678593617E+02 -0.14926774751E+02  0.52457790696E+02  0.76638712292E+02  0.41800000000E+01 0. -1.
         -5    1    4    4    0  501 -0.31514208242E+02 -0.50775851501E+02  0.41033052689E+03  0.41468053501E+03  0.41800000000E+01 0. -1.
</event>
<event>
11    1  0.8453735E-009  0.1455185E+03  0.7561462E-02  0.1101548E+00
         22   -1    0    0    0    0  0.00000000000E+00  0.00000000000E+00  0.88051295786E+03  0.88051295786E+03  0.00000000000E+00 0. -1.
         22   -1    0    0    0    0 -0.00000000000E+00 -0.00000000000E+00 -0.24521843126E+03  0.24521843126E+03  0.00000000000E+00 0.  1.
        -24    2    1    2    0    0 -0.26627497185E+02  0.12861968710E+02 -0.18921402685E+03  0.20786426299E+03  0.80815530846E+02 0.  0.
         25    2    1    2    0    0  0.97551493489E+02  0.63495577749E+00  0.10524496091E+03  0.19038880741E+03  0.12511874016E+03 0.  0.
         24    2    1    2    0    0 -0.70923996304E+02 -0.13496924487E+02  0.71926359254E+03  0.72747831872E+03  0.81683587292E+02 0.  0.
        -13    1    5    5    0    0 -0.41237601136E+02 -0.58409722908E+00  0.11199149901E+03  0.11934394316E+03  0.00000000000E+00 0.  1.
         14    1    5    5    0    0 -0.29686395167E+02 -0.12912827258E+02  0.60727209353E+03  0.60813437556E+03  0.00000000000E+00 0. -1.
         13    1    3    3    0    0 -0.47910453887E+02  0.97790952169E+01 -0.62586530208E+02  0.79423649239E+02  0.00000000000E+00 0. -1.
        -14    1    3    3    0    0  0.21282956702E+02  0.30828734926E+01 -0.12662749664E+03  0.12844061375E+03  0.00000000000E+00 0.  1.
          5    1    4    4  501    0  0.96217894890E+01 -0.23540276820E+02 -0.21931369440E+02  0.33840520552E+02  0.41800000000E+01 0.  1.
         -5    1    4    4    0  501  0.87929704000E+02  0.24175232598E+02  0.12717633035E+03  0.15654828686E+03  0.41800000000E+01 0.  1.
</event>
<event>
11    1  0.8453735E-009  0.1410655E+03  0.7561462E-02  0.1106374E+00
         22   -1    0    0    0    0  0.00000000000E+00  0.00000000000E+00  0.13799716423E+03  0.13799716423E+03  0.00000000000E+00 0. -1.
         22   -1    0    0    0    0 -0.00000000000E+00 -0.00000000000E+00 -0.12133837637E+04  0.12133837637E+04  0.00000000000E+00 0.  1.
        -24    2    1    2    0    0  0.58193785075E+02 -0.29010779247E+02 -0.10957960435E+04  0.11006124078E+04  0.79690409550E+02 0.  0.
         25    2    1    2    0    0 -0.39311206994E+02  0.78436127579E+02 -0.94743494693E+00  0.15279587595E+03  0.12509230580E+03 0.  0.
         24    2    1    2    0    0 -0.18882578082E+02 -0.49425348332E+02  0.21356879007E+02  0.97972644119E+02  0.79643618087E+02 0.  0.
        -13    1    5    5    0    0  0.22212916201E+02 -0.34215281990E+02 -0.12423976893E+02  0.42643339100E+02  0.00000000000E+00 0.  1.
         14    1    5    5    0    0 -0.41095494283E+02 -0.15210066343E+02  0.33780855900E+02  0.55329305019E+02  0.00000000000E+00 0. -1.
         13    1    3    3    0    0 -0.79988359979E+01 -0.35455955864E+02 -0.38809465689E+03  0.38979298209E+03  0.00000000000E+00 0. -1.
        -14    1    3    3    0    0  0.66192621073E+02  0.64451766168E+01 -0.70770138662E+03  0.71081942574E+03  0.00000000000E+00 0.  1.
          5    1    4    4  501    0 -0.16068576645E+02  0.11087419110E+03  0.50611945117E+01  0.11222465637E+03  0.41800000000E+01 0. -1.
         -5    1    4    4    0  501 -0.23242630349E+02 -0.32438063521E+02 -0.60086294587E+01  0.40571219583E+02  0.41800000000E+01 0. -1.
</event>
<event>
11    1  0.8453735E-009  0.1382285E+03  0.7561462E-02  0.1109553E+00
         22   -1    0    0    0    0  0.00000000000E+00  0.00000000000E+00  0.23748575270E+04  0.23748575270E+04  0.00000000000E+00 0. -1.
         22   -1    0    0    0    0 -0.00000000000E+00 -0.00000000000E+00 -0.51957480957E+03  0.51957480957E+03  0.00000000000E+00 0.  1.
        -24    2    1    2    0    0 -0.34051578737E+02 -0.47759511561E+02 -0.50708221547E+03  0.51694884262E+03  0.81628742999E+02 0.  0.
         25    2    1    2    0    0  0.23809749298E+02  0.10545015522E+03  0.12622466591E+04  0.12730283569E+04  0.12509168527E+03 0.  0.
         24    2    1    2    0    0  0.10241829439E+02 -0.57690643658E+02  0.11001182738E+04  0.11044551371E+04  0.78280444099E+02 0.  0.
        -11    1    5    5    0    0  0.17664299100E+02  0.13493051438E+02  0.41846991819E+03  0.41905985530E+03  0.00000000000E+00 0.  1.
         12    1    5    5    0    0 -0.74224696612E+01 -0.71183695095E+02  0.68164835564E+03  0.68539528175E+03  0.00000000000E+00 0. -1.
         13    1    3    3    0    0 -0.20805164221E+02  0.39906588992E+01 -0.29118415034E+02  0.36009197586E+02  0.00000000000E+00 0. -1.
        -14    1    3    3    0    0 -0.13246414516E+02 -0.51750170460E+02 -0.47796380043E+03  0.48093964503E+03  0.00000000000E+00 0.  1.
          5    1    4    4  501    0 -0.97729045046E+01 -0.19851759495E+02  0.65471704755E+02  0.69235962772E+02  0.41800000000E+01 0. -1.
         -5    1    4    4    0  501  0.33582653802E+02  0.12530191471E+03  0.11967749543E+04  0.12037923941E+04  0.41800000000E+01 0. -1.
</event>
<event>
11    1  0.8453735E-009  0.1330875E+03  0.7561462E-02  0.1115533E+00
         22   -1    0    0    0    0  0.00000000000E+00  0.00000000000E+00  0.91440613394E+03  0.91440613394E+03  0.00000000000E+00 0.  1.
         22   -1    0    0    0    0 -0.00000000000E+00 -0.00000000000E+00 -0.27604692863E+03  0.27604692863E+03  0.00000000000E+00 0.  1.
        -24    2    1    2    0    0 -0.26450880600E+02 -0.18158875981E+02 -0.24516857262E+03  0.25983380515E+03  0.79853512337E+02 0.  0.
         25    2    1    2    0    0  0.19498468024E+02  0.61020830106E+02  0.22186064814E+03  0.26262998724E+03  0.12509448846E+03 0.  0.
         24    2    1    2    0    0  0.69524125761E+01 -0.42861954124E+02  0.66166712979E+03  0.66798927019E+03  0.80751416632E+02 0.  0.
        -11    1    5    5    0    0  0.15229429348E+02 -0.37005790398E+02  0.65413649331E+03  0.65535937921E+03  0.00000000000E+00 0.  1.
         12    1    5    5    0    0 -0.82770167723E+01 -0.58561637260E+01  0.75306364794E+01  0.12629890974E+02  0.00000000000E+00 0. -1.
         13    1    3    3    0    0 -0.33829427345E+02  0.19044536799E+02 -0.18248503617E+03  0.18656878883E+03  0.00000000000E+00 0. -1.
        -14    1    3    3    0    0  0.73785467444E+01 -0.37203412780E+02 -0.62683536450E+02  0.73265016320E+02  0.00000000000E+00 0.  1.
          5    1    4    4  501    0  0.26208532449E+02  0.46790126114E+01  0.19979947272E+03  0.20160873501E+03  0.41800000000E+01 0. -1.
         -5    1    4    4    0  501 -0.67100644244E+01  0.56341817494E+02  0.22061175421E+02  0.61021252233E+02  0.41800000000E+01 0. -1.
</event>
<event>
11    1  0.8453735E-009  0.1476227E+03  0.7561462E-02  0.1099333E+00
         22   -1    0    0    0    0  0.00000000000E+00  0.00000000000E+00  0.68182369883E+03  0.68182369883E+03  0.00000000000E+00 0.  1.
         22   -1    0    0    0    0 -0.00000000000E+00 -0.00000000000E+00 -0.10239158244E+03  0.10239158244E+03  0.00000000000E+00 0. -1.
        -24    2    1    2    0    0  0.47891268151E+02  0.23118741845E+01  0.22509433323E+02  0.96573957380E+02  0.80752314692E+02 0.  0.
         25    2    1    2    0    0 -0.18597502247E+02 -0.76456123234E+02  0.32959242167E+02  0.15141189000E+03  0.12509133831E+03 0.  0.
         24    2    1    2    0    0 -0.29293765904E+02  0.74144249049E+02  0.52396344090E+03  0.53622943388E+03  0.81540321134E+02 0.  0.
        -11    1    5    5    0    0 -0.36803762529E+02  0.88555603279E+02  0.47669383738E+03  0.48624441016E+03  0.00000000000E+00 0.  1.
         12    1    5    5    0    0  0.75099966250E+01 -0.14411354229E+02  0.47269603521E+02  0.49985023728E+02  0.00000000000E+00 0. -1.
         11    1    3    3    0    0  0.46356431887E+02  0.34245236109E+02  0.28099116105E+02  0.64118759340E+02  0.00000000000E+00 0. -1.
        -12    1    3    3    0    0  0.15348362644E+01 -0.31933361925E+02 -0.55896827822E+01  0.32455198040E+02  0.00000000000E+00 0.  1.
          5    1    4    4  501    0 -0.22819854300E+02 -0.48717565833E+02 -0.43850900386E+02  0.69530718647E+02  0.41800000000E+01 0. -1.
         -5    1    4    4    0  501  0.42223520528E+01 -0.27738557401E+02  0.76810142554E+02  0.81881171356E+02  0.41800000000E+01 0. -1.
</event>
<event>
11    1  0.8453735E-009  0.1595102E+03  0.7561462E-02  0.1087539E+00
         22   -1    0    0    0    0  0.00000000000E+00  0.00000000000E+00  0.48312447935E+03  0.48312447935E+03  0.00000000000E+00 0. -1.
         22   -1    0    0    0    0 -0.00000000000E+00 -0.00000000000E+00 -0.21406707621E+04  0.21406707621E+04  0.00000000000E+00 0.  1.
        -24    2    1    2    0    0 -0.13158059218E+02 -0.29060549475E+02 -0.20255684427E+04  0.20274206812E+04  0.80557137407E+02 0.  0.
         25    2    1    2    0    0  0.91600006454E+02 -0.32273943344E+02 -0.44629945942E+02  0.16453372992E+03  0.12508935848E+03 0.  0.
         24    2    1    2    0    0 -0.78441947235E+02  0.61334492819E+02  0.41265210589E+03  0.43184083034E+03  0.79307522681E+02 0.  0.
        -13    1    5    5    0    0 -0.16632395280E+02  0.61810382206E+02  0.17705086202E+03  0.18826621487E+03  0.00000000000E+00 0.  1.
         14    1    5    5    0    0 -0.61809551956E+02 -0.47588938702E+00  0.23560124387E+03  0.24357461546E+03  0.00000000000E+00 0. -1.
         11    1    3    3    0    0 -0.40687888297E+02 -0.38697604445E+02 -0.11556207739E+04  0.11569841753E+04  0.00000000000E+00 0. -1.
        -12    1    3    3    0    0  0.27529829078E+02  0.96370549695E+01 -0.86994766880E+03  0.87043650588E+03  0.00000000000E+00 0.  1.
          5    1    4    4  501    0  0.11713559217E+02 -0.37289016913E+02 -0.70153221308E+02  0.80415328836E+02  0.41800000000E+01 0. -1.
         -5    1    4    4    0  501  0.79886447236E+02  0.50150735690E+01  0.25523275366E+02  0.84118401081E+02  0.41800000000E+01 0. -1.
</event>
<event>
11    1  0.8453735E-009  0.1420606E+03  0.7561462E-02  0.1105279E+00
         22   -1    0    0    0    0  0.00000000000E+00  0.00000000000E+00  0.18985077175E+03  0.18985077175E+03  0.00000000000E+00 0.  1.
         22   -1    0    0    0    0 -0.00000000000E+00 -0.00000000000E+00 -0.27716224610E+04  0.27716224610E+04  0.00000000000E+00 0.  1.
        -24    2    1    2    0    0  0.34350354056E+02 -0.56380513757E+02 -0.23087979829E+04  0.23110616721E+04  0.78097487215E+02 0.  0.
         25    2    1    2    0    0  0.81626316258E+01  0.10166320397E+03 -0.43229908731E+03  0.46144283966E+03  0.12507980571E+03 0.  0.
         24    2    1    2    0    0 -0.42512985682E+02 -0.45282690208E+02  0.15932538089E+03  0.18896872100E+03  0.80415947026E+02 0.  0.
        -11    1    5    5    0    0 -0.19352794360E+02 -0.58705837636E+02  0.14706143026E+03  0.15952419971E+03  0.00000000000E+00 0.  1.
         12    1    5    5    0    0 -0.23160191322E+02  0.13423147428E+02  0.12263950628E+02  0.29444521290E+02  0.00000000000E+00 0. -1.
         11    1    3    3    0    0  0.10575913121E+02  0.19389454001E+02 -0.62898596038E+03  0.62937360861E+03  0.00000000000E+00 0. -1.
        -12    1    3    3    0    0  0.23774440935E+02 -0.75769967759E+02 -0.16798120225E+04  0.16816880635E+04  0.00000000000E+00 0.  1.
          5    1    4    4  501    0 -0.21545729601E+02  0.91407617841E+02 -0.41461643082E+03  0.42513977486E+03  0.41800000000E+01 0. -1.
         -5    1    4    4    0  501  0.29708361227E+02  0.10255586124E+02 -0.17682656484E+02  0.36303064800E+02  0.41800000000E+01 0. -1.
</event>
<event>
11    1  0.8453735E-009  0.1510882E+03  0.7561462E-02  0.1095772E+00
         22   -1    0    0    0    0  0.00000000000E+00  0.00000000000E+00  0.28319323083E+03  0.28319323083E+03  0.00000000000E+00 0.  1.
         22   -1    0    0    0    0 -0.00000000000E+00 -0.00000000000E+00 -0.51271496228E+03  0.51271496228E+03  0.00000000000E+00 0. -1.
        -24    2    1    2    0    0 -0.64389887783E+02 -0.52467002123E+02 -0.43285612678E+03  0.44803997326E+03  0.80476997874E+02 0.  0.
         25    2    1    2    0    0 -0.25032262669E+02 -0.19773724331E+02  0.44652749847E+02  0.13659782280E+03  0.12508989878E+03 0.  0.
         24    2    1    2    0    0  0.89422150452E+02  0.72240726454E+02  0.15868164549E+03  0.21127039704E+03  0.78995395449E+02 0.  0.
        -13    1    5    5    0    0  0.85594821878E+02  0.76295608639E+02  0.16619654852E+03  0.20191281824E+03  0.00000000000E+00 0.  1.
         14    1    5    5    0    0  0.38273285741E+01 -0.40548821843E+01 -0.75149030300E+01  0.93575788051E+01  0.00000000000E+00 0. -1.
         13    1    3    3    0    0 -0.79495132448E+02 -0.36370429900E+02 -0.27269664220E+03  0.28636644866E+03  0.00000000000E+00 0. -1.
        -14    1    3    3    0    0  0.15105244665E+02 -0.16096572223E+02 -0.16015948459E+03  0.16167352460E+03  0.00000000000E+00 0.  1.
          5    1    4    4  501    0 -0.22571088143E+02  0.36450919239E+02  0.63820695090E+02  0.76997902927E+02  0.41800000000E+01 0. -1.
         -5    1    4    4    0  501 -0.24611745251E+01 -0.56224643570E+02 -0.19167945244E+02  0.59599919878E+02  0.41800000000E+01 0. -1.
</event>
<event>
11    1  0.8453735E-009  0.1896780E+03  0.7561462E-02  0.1062073E+00
         22   -1    0    0    0    0  0.00000000000E+00  0.00000000000E+00  0.17946240075E+04  0.17946240075E+04  0.00000000000E+00 0. -1.
         22   -1    0    0    0    0 -0.00000000000E+00 -0.00000000000E+00 -0.29769245688E+03  0.29769245688E+03  0.00000000000E+00 0.  1.
        -24    2    1    2    0    0  0.59575206575E+02 -0.16424018649E+02 -0.22000272594E+03  0.24238544022E+03  0.80811809676E+02 0.  0.
         25    2    1    2    0    0 -0.16941093424E+03 -0.70883541775E+02  0.13538959594E+03  0.26019680260E+03  0.12508993670E+03 0.  0.
         24    2    1    2    0    0  0.10983572766E+03  0.87307560424E+02  0.15815446806E+04  0.15897342215E+04  0.79276864118E+02 0.  0.
        -13    1    5    5    0    0  0.28940189016E+02 -0.13189797397E+02  0.35603112196E+03  0.35744882864E+03  0.00000000000E+00 0.  1.
         14    1    5    5    0    0  0.80895538646E+02  0.10049735782E+03  0.12255135586E+04  0.12322853929E+04  0.00000000000E+00 0. -1.
         13    1    3    3    0    0  0.14389223018E+02 -0.71154362640E+01  0.15064294163E+01  0.16122918528E+02  0.00000000000E+00 0. -1.
        -14    1    3    3    0    0  0.45185983557E+02 -0.93085823852E+01 -0.22150915536E+03  0.22626252170E+03  0.00000000000E+00 0.  1.
          5    1    4    4  501    0 -0.92551380085E+02  0.48660635484E+01  0.11911744197E+03  0.15098302524E+03  0.41800000000E+01 0. -1.
         -5    1    4    4    0  501 -0.76859554152E+02 -0.75749605323E+02  0.16272153975E+02  0.10921377736E+03  0.41800000000E+01 0. -1.
</event>
<event>
11    1  0.8453735E-009  0.2092630E+03  0.7561462E-02  0.1048160E+00
         22   -1    0    0    0    0  0.00000000000E+00  0.00000000000E+00  0.71962409555E+03  0.71962409555E+03  0.00000000000E+00 0.  1.
         22   -1    0    0    0    0 -0.00000000000E+00 -0.00000000000E+00 -0.98266078812E+03  0.98266078812E+03  0.00000000000E+00 0. -1.
        -24    2    1    2    0    0 -0.14228286610E+03  0.49697850340E+02 -0.59652413566E+03  0.62106518310E+03  0.84655932584E+02 0.  0.
         25    2    1    2    0    0  0.22976154983E+03 -0.18792428608E+03 -0.28879788431E+03  0.43261296593E+03  0.12507539020E+03 0.  0.
         24    2    1    2    0    0 -0.87478683732E+02  0.13822643574E+03  0.62228532739E+03  0.64860673464E+03  0.81808311823E+02 0.  0.
        -13    1    5    5    0    0 -0.44481772009E+02  0.84747577829E+02  0.49334876725E+03  0.50254729741E+03  0.00000000000E+00 0.  1.
         14    1    5    5    0    0 -0.42996911723E+02  0.53478857909E+02  0.12893656014E+03  0.14605943722E+03  0.00000000000E+00 0. -1.
         11    1    3    3    0    0 -0.46858782678E+02  0.13800684168E+02 -0.36278050048E+03  0.36605449858E+03  0.00000000000E+00 0. -1.
        -12    1    3    3    0    0 -0.95424083421E+02  0.35897166172E+02 -0.23374363518E+03  0.25501068453E+03  0.00000000000E+00 0.  1.
          5    1    4    4  501    0  0.17798906016E+03 -0.66530243000E+02 -0.17051710466E+03  0.25534277776E+03  0.41800000000E+01 0. -1.
         -5    1    4    4    0  501  0.51772489668E+02 -0.12139404308E+03 -0.11828077964E+03  0.17727018817E+03  0.41800000000E+01 0. -1.
</event>
<event>
11    1  0.8453735E-009  0.1492713E+03  0.7561462E-02  0.1097626E+00
         22   -1    0    0    0    0  0.00000000000E+00  0.00000000000E+00  0.14293029840E+04  0.14293029840E+04  0.00000000000E+00 0.  1.
         22   -1    0    0    0    0 -0.00000000000E+00 -0.00000000000E+00 -0.10689150732E+03  0.10689150732E+03  0.00000000000E+00 0. -1.
         24    2    1    2    0    0 -0.94981798639E+01 -0.79353584878E+02 -0.49997845326E+02  0.12422198720E+03  0.80895677963E+02 0.  0.
         25    2    1    2    0    0 -0.30956916587E+02  0.10004712183E+03  0.36581346886E+03  0.40055428665E+03  0.12512587776E+03 0.  0.
        -24    2    1    2    0    0  0.40455096451E+02 -0.20693536957E+02  0.10065958531E+04  0.10114182174E+04  0.87560046576E+02 0.  0.
        -11    1    3    3    0    0  0.79539557145E+01  0.10229978786E+02  0.87911448223E+01  0.15658930512E+02  0.00000000000E+00 0.  1.
         12    1    3    3    0    0 -0.17452135578E+02 -0.89583563664E+02 -0.58788990148E+02  0.10856305669E+03  0.00000000000E+00 0. -1.
         11    1    5    5    0    0 -0.26973555338E+02  0.86271598511E+00  0.22171042883E+03  0.22334688540E+03  0.00000000000E+00 0. -1.
        -12    1    5    5    0    0  0.67428651789E+02 -0.21556252942E+02  0.78488542427E+03  0.78807133202E+03  0.00000000000E+00 0.  1.
          5    1    4    4  501    0 -0.30117166956E+02  0.98161773131E+02  0.13484538933E+03  0.16953916619E+03  0.41800000000E+01 0.  1.
         -5    1    4    4    0  501 -0.83974963099E+00  0.18853487036E+01  0.23096807953E+03  0.23101512046E+03  0.41800000000E+01 0.  1.
</event>
<event>
11    1  0.8453735E-009  0.1347089E+03  0.7561462E-02  0.1113615E+00
         22   -1    0    0    0    0  0.00000000000E+00  0.00000000000E+00  0.90944807621E+02  0.90944807621E+02  0.00000000000E+00 0.  1.
         22   -1    0    0    0    0 -0.00000000000E+00 -0.00000000000E+00 -0.17984095220E+04  0.17984095220E+04  0.00000000000E+00 0. -1.
         24    2    1    2    0    0  0.43642622633E+02  0.25131211894E+02 -0.14067835162E+04  0.14098954696E+04  0.78924758170E+02 0.  0.
         25    2    1    2    0    0 -0.26931472161E+02 -0.45897355968E+02 -0.35277512580E+03  0.37805995679E+03  0.12508864881E+03 0.  0.
        -24    2    1    2    0    0 -0.16711150472E+02  0.20766144073E+02  0.52093927604E+02  0.10139890324E+03  0.82809812198E+02 0.  0.
        -13    1    3    3    0    0  0.25058298548E+02  0.85039293864E+01 -0.12054659314E+03  0.12341683944E+03  0.00000000000E+00 0.  1.
         14    1    3    3    0    0  0.18584324085E+02  0.16627282508E+02 -0.12862369231E+04  0.12864786302E+04  0.00000000000E+00 0. -1.
         11    1    5    5    0    0  0.86735477354E+01 -0.20046391203E+02 -0.90354590970E+01  0.23637422695E+02  0.00000000000E+00 0. -1.
        -12    1    5    5    0    0 -0.25384698208E+02  0.40812535277E+02  0.61129386701E+02  0.77761480550E+02  0.00000000000E+00 0.  1.
          5    1    4    4  501    0  0.18157883544E+02 -0.65285249824E+02 -0.10224358544E+03  0.12273180412E+03  0.41800000000E+01 0. -1.
         -5    1    4    4    0  501 -0.45089355705E+02  0.19387893857E+02 -0.25053154036E+03  0.25532815266E+03  0.41800000000E+01 0. -1.
</event>
<event>
11    1  0.8453735E-009  0.2262248E+03  0.7561462E-02  0.1037387E+00
         22   -1    0    0    0    0  0.00000000000E+00  0.00000000000E+00  0.10227824045E+04  0.10227824045E+04  0.00000000000E+00 0.  1.
         22   -1    0    0    0    0 -0.00000000000E+00 -0.00000000000E+00 -0.31064813263E+03  0.31064813263E+03  0.00000000000E+00 0.  1.
        -24    2    1    2    0    0 -0.58891465778E+02 -0.95182418338E+02 -0.13728481451E+03  0.19611223204E+03  0.84172381207E+02 0.  0.
         25    2    1    2    0    0 -0.95465822613E+02 -0.27517049746E+02 -0.83721044669E+02  0.18035497925E+03  0.12509114240E+03 0.  0.
         24    2    1    2    0    0  0.15435728839E+03  0.12269946808E+03  0.93314013103E+03  0.95696332581E+03  0.78402620327E+02 0.  0.
        -13    1    5    5    0    0  0.14882534002E+03  0.81079036325E+02  0.71412867538E+03  0.73396359376E+03  0.00000000000E+00 0.  1.
         14    1    5    5    0    0  0.55319483726E+01  0.41620431759E+02  0.21901145564E+03  0.22299973205E+03  0.00000000000E+00 0. -1.
         13    1    3    3    0    0 -0.44805189400E+02 -0.53206245293E+01 -0.68707623970E+02  0.82198245931E+02  0.00000000000E+00 0. -1.
        -14    1    3    3    0    0 -0.14086276378E+02 -0.89861793808E+02 -0.68577190542E+02  0.11391398611E+03  0.00000000000E+00 0.  1.
          5    1    4    4  501    0 -0.19490560872E+01 -0.48751729412E+02 -0.66894681050E+02  0.82902959496E+02  0.41800000000E+01 0.  1.
         -5    1    4    4    0  501 -0.93516766525E+02  0.21234679666E+02 -0.16826363618E+02  0.97452019756E+02  0.41800000000E+01 0.  1.
</event>
<event>
11    1  0.8453735E-009  0.1372497E+03  0.7561462E-02  0.1110669E+00
         22   -1    0    0    0    0  0.00000000000E+00  0.00000000000E+00  0.17787414218E+03  0.17787414218E+03  0.00000000000E+00 0.  1.
         22   -1    0    0    0    0 -0.00000000000E+00 -0.00000000000E+00 -0.11398664061E+04  0.11398664061E+04  0.00000000000E+00 0. -1.
         24    2    1    2    0    0 -0.56308246269E+02 -0.13821953973E+01 -0.78523942217E+03  0.79123362570E+03  0.79228601203E+02 0.  0.
         25    2    1    2    0    0  0.57219005531E+02 -0.95966398489E+01 -0.32667308537E+03  0.35458400684E+03  0.12509357742E+03 0.  0.
        -24    2    1    2    0    0 -0.91075926201E+00  0.10978835246E+02  0.14992024358E+03  0.17192291578E+03  0.83426885519E+02 0.  0.
        -11    1    3    3    0    0  0.11549877042E+02  0.11476800848E+02 -0.46415493974E+02  0.49188562677E+02  0.00000000000E+00 0.  1.
         12    1    3    3    0    0 -0.67858123311E+02 -0.12858996245E+02 -0.73882392819E+03  0.74204506302E+03  0.00000000000E+00 0. -1.
         13    1    5    5    0    0  0.24176390650E+02  0.32299382469E+01  0.53284025381E+01  0.24966422241E+02  0.00000000000E+00 0. -1.
        -14    1    5    5    0    0 -0.25087149912E+02  0.77488969993E+01  0.14459184105E+03  0.14695649354E+03  0.00000000000E+00 0.  1.
          5    1    4    4  501    0 -0.32100481759E+02 -0.11354649649E+02 -0.17645180363E+03  0.17975561299E+03  0.41800000000E+01 0. -1.
         -5    1    4    4    0  501  0.89319487290E+02  0.17580098002E+01 -0.15022128173E+03  0.17482839384E+03  0.41800000000E+01 0. -1.
</event>
<event>
11    1  0.8453735E-009  0.1865816E+03  0.7561462E-02  0.1064440E+00
         22   -1    0    0    0    0  0.00000000000E+00  0.00000000000E+00  0.17356487330E+04  0.17356487330E+04  0.00000000000E+00 0. -1.
         22   -1    0    0    0    0 -0.00000000000E+00 -0.00000000000E+00 -0.15215060646E+04  0.15215060646E+04  0.00000000000E+00 0.  1.
        -24    2    1    2    0    0  0.90528524343E+02  0.10408226631E+03 -0.14806964433E+04  0.14892901954E+04  0.80590304616E+02 0.  0.
         25    2    1    2    0    0 -0.53120525790E+02 -0.20947937658E+03  0.44405015616E+03  0.50944245905E+03  0.12509068081E+03 0.  0.
         24    2    1    2    0    0 -0.37407998553E+02  0.10539711027E+03  0.12507889555E+04  0.12584221431E+04  0.81519136658E+02 0.  0.
        -13    1    5    5    0    0 -0.38989547689E+02  0.54977803564E+02  0.36319599718E+03  0.36939690860E+03  0.00000000000E+00 0.  1.
         14    1    5    5    0    0  0.15815491356E+01  0.50419306703E+02  0.88759295836E+03  0.88902523446E+03  0.00000000000E+00 0. -1.
         11    1    3    3    0    0  0.73065708057E+01  0.63812138532E+02 -0.46889554512E+03  0.47327413539E+03  0.00000000000E+00 0. -1.
        -12    1    3    3    0    0  0.83221953537E+02  0.40270127781E+02 -0.10118008982E+04  0.10160160600E+04  0.00000000000E+00 0.  1.
          5    1    4    4  501    0 -0.83523866460E+01 -0.18678260434E+03  0.27139611841E+03  0.32959191303E+03  0.41800000000E+01 0. -1.
         -5    1    4    4    0  501 -0.44768139144E+02 -0.22696772239E+02  0.17265403775E+03  0.17985054602E+03  0.41800000000E+01 0. -1.
</event>
<event>
11    1  0.8453735E-009  0.1886896E+03  0.7561462E-02  0.1062823E+00
         22   -1    0    0    0    0  0.00000000000E+00  0.00000000000E+00  0.58356909049E+03  0.58356909049E+03  0.00000000000E+00 0. -1.
         22   -1    0    0    0    0 -0.00000000000E+00 -0.00000000000E+00 -0.13214980789E+04  0.13214980789E+04  0.00000000000E+00 0. -1.
        -24    2    1    2    0    0  0.37582926246E+02 -0.15093389011E+03 -0.11974732611E+04  0.12102808364E+04  0.81510589372E+02 0.  0.
         25    2    1    2    0    0 -0.12235082111E+01  0.49895781792E+02 -0.67763502109E+02  0.15076393074E+03  0.12508710797E+03 0.  0.
         24    2    1    2    0    0 -0.36359418035E+02  0.10103810832E+03  0.52730777480E+03  0.54402240233E+03  0.79850975365E+02 0.  0.
        -13    1    5    5    0    0 -0.56474525850E+02  0.39935048851E+02  0.29195251864E+03  0.30003408696E+03  0.00000000000E+00 0.  1.
         14    1    5    5    0    0  0.20115107815E+02  0.61103059470E+02  0.23535525616E+03  0.24398831537E+03  0.00000000000E+00 0. -1.
         11    1    3    3    0    0  0.56018334268E+02 -0.10586523729E+03 -0.98741450543E+03  0.99465215416E+03  0.00000000000E+00 0. -1.
        -12    1    3    3    0    0 -0.18435408022E+02 -0.45068652820E+02 -0.21005875571E+03  0.21562868220E+03  0.00000000000E+00 0.  1.
          5    1    4    4  501    0  0.57084570829E+02  0.11542076236E+02 -0.53945647866E+02  0.79495113524E+02  0.41800000000E+01 0.  1.
         -5    1    4    4    0  501 -0.58308079040E+02  0.38353705557E+02 -0.13817854243E+02  0.71268817214E+02  0.41800000000E+01 0.  1.
</event>
<event>
11    1  0.8453735E-009  0.1753774E+03  0.7561462E-02  0.1073445E+00
         22   -1    0    0    0    0  0.00000000000E+00  0.00000000000E+00  0.16019742884E+03  0.16019742884E+03  0.00000000000E+00 0.  1.
         22   -1    0    0    0    0 -0.00000000000E+00 -0.00000000000E+00 -0.75500133699E+03  0.75500133699E+03  0.00000000000E+00 0.  1.
         24    2    1    2    0    0 -0.63374057561E+02 -0.10186295233E+03 -0.55447672351E+03  0.57303066426E+03  0.80792159498E+02 0.  0.
         25    2    1    2    0    0  0.28076918622E+02  0.14685366032E+03 -0.10872738274E+03  0.22321044975E+03  0.12508777003E+03 0.  0.
        -24    2    1    2    0    0  0.35297138939E+02 -0.44990707987E+02  0.68400198105E+02  0.11895765183E+03  0.78754580853E+02 0.  0.
        -13    1    3    3    0    0 -0.11586950232E+02 -0.28860757201E+02 -0.32857293826E+03  0.33004147690E+03  0.00000000000E+00 0.  1.
         14    1    3    3    0    0 -0.51787107329E+02 -0.73002195133E+02 -0.22590378525E+03  0.24298918735E+03  0.00000000000E+00 0. -1.
         13    1    5    5    0    0 -0.14320373418E+02 -0.15659888117E+01 -0.92265823581E+01  0.17107169193E+02  0.00000000000E+00 0. -1.
        -14    1    5    5    0    0  0.49617512357E+02 -0.43424719175E+02  0.77626780463E+02  0.10185048263E+03  0.00000000000E+00 0.  1.
          5    1    4    4  501    0 -0.27001278686E+01  0.16024586057E+03 -0.97145561043E+02  0.18745868599E+03  0.41800000000E+01 0. -1.
         -5    1    4    4    0  501  0.30777046490E+02 -0.13392200253E+02 -0.11581821701E+02  0.35751763764E+02  0.41800000000E+01 0. -1.
</event>
<event>
11    1  0.8453735E-009  0.2986336E+03  0.7561462E-02  0.1000771E+00
         22   -1    0    0    0    0  0.00000000000E+00  0.00000000000E+00  0.33662166968E+03  0.33662166968E+03  0.00000000000E+00 0. -1.
         22   -1    0    0    0    0 -0.00000000000E+00 -0.00000000000E+00 -0.10073284477E+04  0.10073284477E+04  0.00000000000E+00 0.  1.
        -24    2    1    2    0    0  0.28016142878E+02  0.26981338367E+03 -0.48706954547E+03  0.56337700990E+03  0.81072479218E+02 0.  0.
         25    2    1    2    0    0 -0.83088796517E+02 -0.26134688696E+03 -0.42447802742E+03  0.52060891760E+03  0.12508439510E+03 0.  0.
         24    2    1    2    0    0  0.55072653638E+02 -0.84664967150E+01  0.24084079483E+03  0.25996418992E+03  0.80451307290E+02 0.  0.
        -11    1    5    5    0    0  0.71418120023E+01  0.20347886222E+02  0.12609384804E+02  0.24980763349E+02  0.00000000000E+00 0.  1.
         12    1    5    5    0    0  0.47930841636E+02 -0.28814382937E+02  0.22823141002E+03  0.23498342657E+03  0.00000000000E+00 0. -1.
         11    1    3    3    0    0 -0.20398640140E+02  0.66410009817E+02 -0.81563050698E+02  0.10713974595E+03  0.00000000000E+00 0. -1.
        -12    1    3    3    0    0  0.48414783019E+02  0.20340337385E+03 -0.40550649478E+03  0.45623726395E+03  0.00000000000E+00 0.  1.
          5    1    4    4  501    0 -0.74165704035E+02 -0.23509838080E+03 -0.27847225300E+03  0.37193557023E+03  0.41800000000E+01 0.  1.
         -5    1    4    4    0  501 -0.89230924814E+01 -0.26248506153E+02 -0.14600577442E+03  0.14867334738E+03  0.41800000000E+01 0.  1.
</event>
<event>
11    1  0.8453735E-009  0.2116089E+03  0.7561462E-02  0.1046605E+00
         22   -1    0    0    0    0  0.00000000000E+00  0.00000000000E+00  0.17852068141E+04  0.17852068141E+04  0.00000000000E+00 0. -1.
         22   -1    0    0    0    0 -0.00000000000E+00 -0.00000000000E+00 -0.78419183183E+03  0.78419183183E+03  0.00000000000E+00 0.  1.
        -24    2    1    2    0    0  0.13883463571E+03 -0.96126180075E+02 -0.72143250622E+03  0.74530565500E+03  0.80624808631E+02 0.  0.
         25    2    1    2    0    0 -0.23604732403E+03  0.63291776562E+02  0.34714890694E+03  0.44258749233E+03  0.12508851513E+03 0.  0.
         24    2    1    2    0    0  0.97212688319E+02  0.32834403513E+02  0.13752985816E+04  0.13815054986E+04  0.81134761105E+02 0.  0.
        -13    1    5    5    0    0  0.42068095239E+02  0.35611253450E+02  0.31613796917E+03  0.32090668669E+03  0.00000000000E+00 0.  1.
         14    1    5    5    0    0  0.55144593080E+02 -0.27768499372E+01  0.10591606124E+04  0.10605988119E+04  0.00000000000E+00 0. -1.
         13    1    3    3    0    0  0.40740166667E+02 -0.47821896637E+01 -0.78734767621E+02  0.88779469194E+02  0.00000000000E+00 0. -1.
        -14    1    3    3    0    0  0.98094469041E+02 -0.91343990411E+02 -0.64269773860E+03  0.65652618580E+03  0.00000000000E+00 0.  1.
          5    1    4    4  501    0 -0.72461839475E+02  0.11895089001E+02  0.21145638813E+03  0.22388275459E+03  0.41800000000E+01 0. -1.
         -5    1    4    4    0  501 -0.16358548455E+03  0.51396687560E+02  0.13569251881E+03  0.21870473774E+03  0.41800000000E+01 0. -1.
</event>
<event>
11    1  0.8453735E-009  0.1371426E+03  0.7561462E-02  0.1110792E+00
         22   -1    0    0    0    0  0.00000000000E+00  0.00000000000E+00  0.75752167292E+03  0.75752167292E+03  0.00000000000E+00 0.  1.
         22   -1    0    0    0    0 -0.00000000000E+00 -0.00000000000E+00 -0.13146802440E+03  0.13146802440E+03  0.00000000000E+00 0.  1.
         24    2    1    2    0    0 -0.50434592693E+01 -0.18808985323E+02 -0.89374099251E+02  0.12260726860E+03  0.81643115357E+02 0.  0.
         25    2    1    2    0    0  0.44910516322E+02  0.54201629510E+02  0.22472423233E+03  0.26665102560E+03  0.12508803996E+03 0.  0.
        -24    2    1    2    0    0 -0.39867057052E+02 -0.35392644187E+02  0.49070351545E+03  0.49973140313E+03  0.78099383466E+02 0.  0.
        -11    1    3    3    0    0 -0.42966941938E+02 -0.37546366933E+01 -0.45726029060E+02  0.62857975865E+02  0.00000000000E+00 0.  1.
         12    1    3    3    0    0  0.37923482669E+02 -0.15054348630E+02 -0.43648070190E+02  0.59749292730E+02  0.00000000000E+00 0. -1.
         11    1    5    5    0    0 -0.19541937847E+02  0.12867667864E+02  0.42808203410E+02  0.48785310189E+02  0.00000000000E+00 0. -1.
        -12    1    5    5    0    0 -0.20325119205E+02 -0.48260312051E+02  0.44789531204E+03  0.45094609294E+03  0.00000000000E+00 0.  1.
          5    1    4    4  501    0  0.83712252833E+01 -0.10993805400E+02  0.17762885240E+03  0.17821454142E+03  0.41800000000E+01 0.  1.
         -5    1    4    4    0  501  0.36539291038E+02  0.65195434910E+02  0.47095379925E+02  0.88436484174E+02  0.41800000000E+01 0.  1.
</event>
<event>
11    1  0.8453735E-009  0.1343107E+03  0.7561462E-02  0.1114083E+00
         22   -1    0    0    0    0  0.00000000000E+00  0.00000000000E+00  0.10421556442E+04  0.10421556442E+04  0.00000000000E+00 0. -1.
         22   -1    0    0    0    0 -0.00000000000E+00 -0.00000000000E+00 -0.69153157305E+03  0.69153157305E+03  0.00000000000E+00 0. -1.
         24    2    1    2    0    0  0.14169842815E+01  0.35812915188E+02 -0.62068145056E+03  0.62708527356E+03  0.81889587314E+02 0.  0.
         25    2    1    2    0    0  0.83416452315E+01  0.13318428159E+02 -0.46034606339E+01  0.12615803624E+03  0.12509074580E+03 0.  0.
        -24    2    1    2    0    0 -0.97586295129E+01 -0.49131343347E+02  0.97590898238E+03  0.98044390749E+03  0.79767124131E+02 0.  0.
        -13    1    3    3    0    0  0.28022675871E+02  0.20214502992E+02 -0.10618653534E+03  0.11166681146E+03  0.00000000000E+00 0.  1.
         14    1    3    3    0    0 -0.26605691590E+02  0.15598412196E+02 -0.51449491522E+03  0.51541846210E+03  0.00000000000E+00 0. -1.
         11    1    5    5    0    0 -0.41637830763E+02 -0.44329349277E+02  0.70649684597E+03  0.70910971896E+03  0.00000000000E+00 0. -1.
        -12    1    5    5    0    0  0.31879201250E+02 -0.48019940708E+01  0.26941213641E+03  0.27133418853E+03  0.00000000000E+00 0.  1.
          5    1    4    4  501    0 -0.90936491707E+01  0.66355175273E+02 -0.16087190594E+02  0.69007056465E+02  0.41800000000E+01 0.  1.
         -5    1    4    4    0  501  0.17435294402E+02 -0.53036747114E+02  0.11483729960E+02  0.57150979773E+02  0.41800000000E+01 0.  1.
</event>
<event>
11    1  0.8453735E-009  0.1729264E+03  0.7561462E-02  0.1075513E+00
         22   -1    0    0    0    0  0.00000000000E+00  0.00000000000E+00  0.45892668334E+03  0.45892668334E+03  0.00000000000E+00 0.  1.
         22   -1    0    0    0    0 -0.00000000000E+00 -0.00000000000E+00 -0.14185209983E+04  0.14185209983E+04  0.00000000000E+00 0. -1.
        -24    2    1    2    0    0 -0.82743203455E+02 -0.58306175337E+02 -0.77433001283E+03  0.78502811268E+03  0.80225439430E+02 0.  0.
         25    2    1    2    0    0  0.19691636274E+03  0.56603826080E+02 -0.60637392803E+03  0.65216454169E+03  0.12509676975E+03 0.  0.
         24    2    1    2    0    0 -0.11417315929E+03  0.17023492576E+01  0.42110962589E+03  0.44025502728E+03  0.58760222395E+02 0.  0.
        -11    1    5    5    0    0 -0.66071584662E+02 -0.11144144841E+02  0.14553293134E+03  0.16021697903E+03  0.00000000000E+00 0.  1.
         12    1    5    5    0    0 -0.48101574624E+02  0.12846494098E+02  0.27557669455E+03  0.28003804825E+03  0.00000000000E+00 0. -1.
         13    1    3    3    0    0 -0.48706067597E+01 -0.26889650068E+02 -0.41983773197E+03  0.42072615474E+03  0.00000000000E+00 0. -1.
        -14    1    3    3    0    0 -0.77872596696E+02 -0.31416525269E+02 -0.35449228086E+03  0.36430195795E+03  0.00000000000E+00 0.  1.
          5    1    4    4  501    0  0.20021114184E+03  0.24476822177E+02 -0.46140138726E+03  0.50357951577E+03  0.41800000000E+01 0.  1.
         -5    1    4    4    0  501 -0.32947791018E+01  0.32127003903E+02 -0.14497254077E+03  0.14858502591E+03  0.41800000000E+01 0.  1.
</event>
<event>
11    1  0.8453735E-009  0.1442153E+03  0.7561462E-02  0.1102941E+00
         22   -1    0    0    0    0  0.00000000000E+00  0.00000000000E+00  0.10199227505E+03  0.10199227505E+03  0.00000000000E+00 0.  1.
         22   -1    0    0    0    0 -0.00000000000E+00 -0.00000000000E+00 -0.12918786666E+04  0.12918786666E+04  0.00000000000E+00 0.  1.
         24    2    1    2    0    0 -0.35484235971E+01  0.77590836761E+02 -0.10016737428E+04  0.10079609969E+04  0.81253646441E+02 0.  0.
         25    2    1    2    0    0 -0.92248525996E+01 -0.41078823749E+02 -0.24666233932E+03  0.27975168832E+03  0.12508449070E+03 0.  0.
        -24    2    1    2    0    0  0.12773276197E+02 -0.36512013012E+02  0.58449690588E+02  0.10615825637E+03  0.79730329157E+02 0.  0.
        -11    1    3    3    0    0 -0.57082986495E+00  0.82894342639E+02 -0.99659636415E+03  0.10000380547E+04  0.00000000000E+00 0.  1.
         12    1    3    3    0    0 -0.29775937321E+01 -0.53035058775E+01 -0.50773786491E+01  0.79229421917E+01  0.00000000000E+00 0. -1.
         13    1    5    5    0    0 -0.14858291276E+02  0.16075001293E+02  0.37018092275E+02  0.43005972166E+02  0.00000000000E+00 0. -1.
        -14    1    5    5    0    0  0.27631567472E+02 -0.52587014305E+02  0.21431598312E+02  0.63152284208E+02  0.00000000000E+00 0.  1.
          5    1    4    4  501    0 -0.36914251145E+02  0.89891613032E+01 -0.14947404451E+02  0.41041007033E+02  0.41800000000E+01 0.  1.
         -5    1    4    4    0  501  0.27689398545E+02 -0.50067985052E+02 -0.23171493487E+03  0.23871068129E+03  0.41800000000E+01 0.  1.
</event>
<event>
11    1  0.8453735E-009  0.1357559E+03  0.7561462E-02  0.1112392E+00
         22   -1    0    0    0    0  0.00000000000E+00  0.00000000000E+00  0.88172802554E+03  0.88172802554E+03  0.00000000000E+00 0.  1.
         22   -1    0    0    0    0 -0.00000000000E+00 -0.00000000000E+00 -0.26112621785E+03  0.26112621785E+03  0.00000000000E+00 0. -1.
        -24    2    1    2    0    0 -0.56744064892E+00  0.50200018314E+02 -0.18180964350E+03  0.20489121877E+03  0.80033125850E+02 0.  0.
         25    2    1    2    0    0 -0.22924671834E+02 -0.70230300279E+02  0.15719476696E+02  0.14612221907E+03  0.12508703091E+03 0.  0.
         24    2    1    2    0    0  0.23492112483E+02  0.20030281965E+02  0.78669197449E+03  0.79184080554E+03  0.84702461871E+02 0.  0.
        -11    1    5    5    0    0  0.42853659219E+01 -0.26892541062E+01  0.70300305696E+03  0.70302126180E+03  0.00000000000E+00 0.  1.
         12    1    5    5    0    0  0.19206746561E+02  0.22719536071E+02  0.83688917530E+02  0.88819543739E+02  0.00000000000E+00 0. -1.
         11    1    3    3    0    0  0.75593785373E+01  0.27767803883E+02 -0.17849861123E+03  0.18080362094E+03  0.00000000000E+00 0. -1.
        -12    1    3    3    0    0 -0.81268191862E+01  0.22432214431E+02 -0.33110322689E+01  0.24087597826E+02  0.00000000000E+00 0.  1.
          5    1    4    4  501    0 -0.35703134302E+02 -0.17891760048E+01 -0.42197413589E+02  0.55461780204E+02  0.41800000000E+01 0. -1.
         -5    1    4    4    0  501  0.12778462468E+02 -0.68441124274E+02  0.57916890285E+02  0.90660438866E+02  0.41800000000E+01 0. -1.
</event>
<event>
11    1  0.8453735E-009  0.1570050E+03  0.7561462E-02  0.1089928E+00
         22   -1    0    0    0    0  0.00000000000E+00  0.00000000000E+00  0.36473070121E+04  0.36473070121E+04  0.00000000000E+00 0. -1.
         22   -1    0    0    0    0 -0.00000000000E+00 -0.00000000000E+00 -0.14599045874E+04  0.14599045874E+04  0.00000000000E+00 0.  1.
         24    2    1    2    0    0 -0.32534377717E+02 -0.17804636484E+02 -0.14405262263E+04  0.14432012297E+04  0.79614634630E+02 0.  0.
         25    2    1    2    0    0  0.12396247385E+03  0.30157310870E+02  0.46195226783E+03  0.49530105502E+03  0.12508828490E+03 0.  0.
        -24    2    1    2    0    0 -0.91428096132E+02 -0.12352674386E+02  0.31659763831E+04  0.31687093148E+04  0.93811395510E+02 0.  0.
        -13    1    3    3    0    0  0.24127218046E+02  0.73018851745E+01 -0.34159827509E+03  0.34252711093E+03  0.00000000000E+00 0.  1.
         14    1    3    3    0    0 -0.56661595763E+02 -0.25106521659E+02 -0.10989279512E+04  0.11006741188E+04  0.00000000000E+00 0. -1.
         11    1    5    5    0    0 -0.89513669422E+02 -0.43997393993E+02  0.23401393934E+04  0.23422640433E+04  0.00000000000E+00 0. -1.
        -12    1    5    5    0    0 -0.19144267101E+01  0.31644719607E+02  0.82583698972E+03  0.82644527157E+03  0.00000000000E+00 0.  1.
          5    1    4    4  501    0  0.76130317301E+02  0.58304244882E+02  0.14762703896E+03  0.17608641405E+03  0.41800000000E+01 0. -1.
         -5    1    4    4    0  501  0.47832156548E+02 -0.28146934012E+02  0.31432522888E+03  0.31921464096E+03  0.41800000000E+01 0. -1.
</event>
<event>
11    1  0.8453735E-009  0.1649892E+03  0.7561462E-02  0.1082476E+00
         22   -1    0    0    0    0  0.00000000000E+00  0.00000000000E+00  0.30745058932E+03  0.30745058932E+03  0.00000000000E+00 0. -1.
         22   -1    0    0    0    0 -0.00000000000E+00 -0.00000000000E+00 -0.91132767689E+03  0.91132767689E+03  0.00000000000E+00 0.  1.
        -24    2    1    2    0    0 -0.88519686175E+01  0.11466308651E+03 -0.79690006261E+03  0.80908538211E+03  0.79645872451E+02 0.  0.
         25    2    1    2    0    0  0.54985199892E+02 -0.37342840594E+02 -0.41065477974E+02  0.14748528582E+03  0.12509067152E+03 0.  0.
         24    2    1    2    0    0 -0.46133231275E+02 -0.77320245921E+02  0.23408845302E+03  0.26220759827E+03  0.76476959275E+02 0.  0.
        -13    1    5    5    0    0  0.98967722024E+00  0.58071283610E+01 -0.29831047633E+01  0.66031140252E+01  0.00000000000E+00 0.  1.
         14    1    5    5    0    0 -0.47122908495E+02 -0.83127374282E+02  0.23707155778E+03  0.25560448425E+03  0.00000000000E+00 0. -1.
         11    1    3    3    0    0  0.34825430635E+02  0.38119424045E+02 -0.27776955922E+03  0.28252757235E+03  0.00000000000E+00 0. -1.
        -12    1    3    3    0    0 -0.43677399252E+02  0.76543662470E+02 -0.51913050339E+03  0.52655780976E+03  0.00000000000E+00 0.  1.
          5    1    4    4  501    0  0.61917869596E+02 -0.10085044429E+02  0.30936626490E+02  0.70071948417E+02  0.41800000000E+01 0. -1.
         -5    1    4    4    0  501 -0.69326697033E+01 -0.27257796165E+02 -0.72002104465E+02  0.77413337406E+02  0.41800000000E+01 0. -1.
</event>
<event>
11    1  0.8453735E-009  0.1386401E+03  0.7561462E-02  0.1109087E+00
         22   -1    0    0    0    0  0.00000000000E+00  0.00000000000E+00  0.56328660482E+03  0.56328660482E+03  0.00000000000E+00 0. -1.
         22   -1    0    0    0    0 -0.00000000000E+00 -0.00000000000E+00 -0.69872019060E+03  0.69872019060E+03  0.00000000000E+00 0.  1.
         24    2    1    2    0    0  0.19810770042E+02 -0.45681233116E+02 -0.50809973843E+03  0.51709904436E+03  0.82139124750E+02 0.  0.
         25    2    1    2    0    0 -0.58668293947E+02  0.89541287449E+02 -0.14387629558E+03  0.21863382810E+03  0.12506299008E+03 0.  0.
        -24    2    1    2    0    0  0.38857523905E+02 -0.43860054333E+02  0.51654244823E+03  0.52627392295E+03  0.81942233434E+02 0.  0.
        -13    1    3    3    0    0  0.14349083041E+02 -0.68927674743E+02 -0.33164732391E+03  0.33903815123E+03  0.00000000000E+00 0.  1.
         14    1    3    3    0    0  0.54616870012E+01  0.23246441628E+02 -0.17645241452E+03  0.17806089313E+03  0.00000000000E+00 0. -1.
         13    1    5    5    0    0  0.35948970113E+02  0.62479164139E+00  0.39808956191E+03  0.39970991746E+03  0.00000000000E+00 0. -1.
        -14    1    5    5    0    0  0.29085537916E+01 -0.44484845974E+02  0.11845288633E+03  0.12656400549E+03  0.00000000000E+00 0.  1.
          5    1    4    4  501    0 -0.55800920055E+02  0.57276490949E+02 -0.16241304796E+03  0.18107956716E+03  0.41800000000E+01 0.  1.
         -5    1    4    4    0  501 -0.28673738920E+01  0.32264796500E+02  0.18536752382E+02  0.37554260944E+02  0.41800000000E+01 0.  1.
</event>
<event>
11    1  0.8453735E-009  0.8915755E+03  0.7561462E-02  0.8789585E-01
         22   -1    0    0    0    0  0.00000000000E+00  0.00000000000E+00  0.12516640058E+04  0.12516640058E+04  0.00000000000E+00 0.  1.
         22   -1    0    0    0    0 -0.00000000000E+00 -0.00000000000E+00 -0.15877003071E+03  0.15877003071E+03  0.00000000000E+00 0. -1.
        -24    2    1    2    0    0 -0.59024006549E+02  0.15621042679E+03  0.21804444160E+03  0.28131947166E+03  0.60924016925E+02 0.  0.
         25    2    1    2    0    0 -0.29694431569E+02 -0.39979158743E+03  0.38816803736E+03  0.57187181393E+03  0.12509146132E+03 0.  0.
         24    2    1    2    0    0  0.88718438118E+02  0.24358116064E+03  0.48668149612E+03  0.55724275090E+03  0.80360821812E+02 0.  0.
        -11    1    5    5    0    0  0.43512594937E+02  0.89333542436E+02  0.26811588425E+03  0.28593697752E+03  0.00000000000E+00 0.  1.
         12    1    5    5    0    0  0.45205843181E+02  0.15424761821E+03  0.21856561187E+03  0.27130577338E+03  0.00000000000E+00 0. -1.
         13    1    3    3    0    0 -0.16106514306E+02  0.84003443482E+02  0.67632242632E+02  0.10904182025E+03  0.00000000000E+00 0. -1.
        -14    1    3    3    0    0 -0.42917492242E+02  0.72206983307E+02  0.15041219897E+03  0.17227765141E+03  0.00000000000E+00 0.  1.
          5    1    4    4  501    0  0.38075963438E+02 -0.26814277712E+03  0.23216341933E+03  0.35674592301E+03  0.41800000000E+01 0. -1.
         -5    1    4    4    0  501 -0.67770395007E+02 -0.13164881031E+03  0.15600461803E+03  0.21512589092E+03  0.41800000000E+01 0. -1.
</event>
<event>
11    1  0.8453735E-009  0.2249332E+03  0.7561462E-02  0.1038170E+00
         22   -1    0    0    0    0  0.00000000000E+00  0.00000000000E+00  0.43254167055E+03  0.43254167055E+03  0.00000000000E+00 0. -1.
         22   -1    0    0    0    0 -0.00000000000E+00 -0.00000000000E+00 -0.78866587230E+03  0.78866587230E+03  0.00000000000E+00 0. -1.
         24    2    1    2    0    0  0.14861663257E+03  0.10715047037E+03 -0.56789043137E+03  0.60286223948E+03  0.85879048531E+02 0.  0.
         25    2    1    2    0    0 -0.16046411829E+03 -0.12296956231E+03 -0.12700758970E+03  0.26953870677E+03  0.12509972059E+03 0.  0.
        -24    2    1    2    0    0  0.11847485718E+02  0.15819091937E+02  0.33877381932E+03  0.34880659660E+03  0.80670531126E+02 0.  0.
        -13    1    3    3    0    0  0.12659586406E+03  0.45015995263E+02 -0.41940114046E+03  0.44039785336E+03  0.00000000000E+00 0.  1.
         14    1    3    3    0    0  0.22020768508E+02  0.62134475111E+02 -0.14848929090E+03  0.16246438612E+03  0.00000000000E+00 0. -1.
         11    1    5    5    0    0  0.17154963231E+02 -0.10716882064E+02  0.30434002133E+03  0.30501146357E+03  0.00000000000E+00 0. -1.
        -12    1    5    5    0    0 -0.53074775138E+01  0.26535974001E+02  0.34433797981E+02  0.43795133030E+02  0.00000000000E+00 0.  1.
          5    1    4    4  501    0 -0.15417456097E+03 -0.82714111897E+02 -0.14256161952E+03  0.22572706377E+03  0.41800000000E+01 0. -1.
         -5    1    4    4    0  501 -0.62895573190E+01 -0.40255450413E+02  0.15554029814E+02  0.43811643004E+02  0.41800000000E+01 0. -1.
</event>
<event>
11    1  0.8453735E-009  0.2814205E+03  0.7561462E-02  0.1008376E+00
         22   -1    0    0    0    0  0.00000000000E+00  0.00000000000E+00  0.37319239545E+04  0.37319239545E+04  0.00000000000E+00 0.  1.
         22   -1    0    0    0    0 -0.00000000000E+00 -0.00000000000E+00 -0.31702313441E+03  0.31702313441E+03  0.00000000000E+00 0. -1.
         24    2    1    2    0    0  0.32656503157E+02 -0.24035366427E+03 -0.19539765027E+03  0.32193061533E+03  0.81380269269E+02 0.  0.
         25    2    1    2    0    0  0.26920150493E+02  0.35063719847E+03  0.55924675577E+03  0.67236616267E+03  0.12509269924E+03 0.  0.
        -24    2    1    2    0    0 -0.59576653650E+02 -0.11028353420E+03  0.30510517146E+04  0.30546503109E+04  0.79120927891E+02 0.  0.
        -13    1    3    3    0    0  0.23402407605E+02 -0.55509533765E+02 -0.12091866595E+02  0.61442609468E+02  0.00000000000E+00 0.  1.
         14    1    3    3    0    0  0.92540955518E+01 -0.18484413051E+03 -0.18330578368E+03  0.26048800586E+03  0.00000000000E+00 0. -1.
         13    1    5    5    0    0 -0.30341763377E+02  0.23940442416E+01  0.81867616102E+03  0.81924172908E+03  0.00000000000E+00 0. -1.
        -14    1    5    5    0    0 -0.29234890272E+02 -0.11267757844E+03  0.22323755535E+04  0.22354085818E+04  0.00000000000E+00 0.  1.
          5    1    4    4  501    0  0.42059445310E+02  0.32172832396E+03  0.54931697458E+03  0.63800056609E+03  0.41800000000E+01 0.  1.
         -5    1    4    4    0  501 -0.15139294817E+02  0.28908874514E+02  0.99297811928E+01  0.34365596572E+02  0.41800000000E+01 0.  1.
</event>
<event>
11    1  0.8453735E-009  0.1778283E+03  0.7561462E-02  0.1071413E+00
         22   -1    0    0    0    0  0.00000000000E+00  0.00000000000E+00  0.22282920774E+04  0.22282920774E+04  0.00000000000E+00 0. -1.
         22   -1    0    0    0    0 -0.00000000000E+00 -0.00000000000E+00 -0.12126361399E+03  0.12126361399E+03  0.00000000000E+00 0.  1.
        -24    2    1    2    0    0  0.63887416124E+02 -0.60950917961E+02 -0.36607143427E+02  0.12448251666E+03  0.79744577651E+02 0.  0.
         25    2    1    2    0    0 -0.18558496202E+03  0.64073166265E+02  0.31995922248E+03  0.39568776932E+03  0.12509099879E+03 0.  0.
         24    2    1    2    0    0  0.12169754589E+03 -0.31222483040E+01  0.18236763844E+04  0.18293854055E+04  0.77687615193E+02 0.  0.
        -13    1    5    5    0    0  0.75171772572E+02  0.24020999542E+02  0.70305906458E+03  0.70747427663E+03  0.00000000000E+00 0.  1.
         14    1    5    5    0    0  0.46525773320E+02 -0.27143247846E+02  0.11206173198E+04  0.11219111288E+04  0.00000000000E+00 0. -1.
         11    1    3    3    0    0  0.19027608078E+00  0.16641420385E+02  0.23345337502E+01  0.16805449273E+02  0.00000000000E+00 0. -1.
        -12    1    3    3    0    0  0.63697140043E+02 -0.77592338346E+02 -0.38941677177E+02  0.10767706739E+03  0.00000000000E+00 0.  1.
          5    1    4    4  501    0 -0.29217767767E+01  0.25372499786E+02  0.11718868787E+03  0.12001233891E+03  0.41800000000E+01 0.  1.
         -5    1    4    4    0  501 -0.18266318524E+03  0.38700666479E+02  0.20277053461E+03  0.27567543041E+03  0.41800000000E+01 0.  1.
</event>
<event>
11    1  0.8453735E-009  0.1759088E+03  0.7561462E-02  0.1073001E+00
         22   -1    0    0    0    0  0.00000000000E+00  0.00000000000E+00  0.42064153944E+03  0.42064153944E+03  0.00000000000E+00 0. -1.
         22   -1    0    0    0    0 -0.00000000000E+00 -0.00000000000E+00 -0.33586924357E+03  0.33586924357E+03  0.00000000000E+00 0. -1.
        -24    2    1    2    0    0 -0.63882493091E+02 -0.10388565119E+03 -0.23465133790E+03  0.27599545826E+03  0.78987601249E+02 0.  0.
         25    2    1    2    0    0  0.57956125301E+02  0.12039032036E+03  0.37754823613E+02  0.18688530008E+03  0.12509175426E+03 0.  0.
         24    2    1    2    0    0  0.59263677905E+01 -0.16504669167E+02  0.28166881016E+03  0.29363002467E+03  0.81078645974E+02 0.  0.
        -13    1    5    5    0    0  0.19278128586E+02  0.26642310483E+01  0.11815171694E+02  0.22767139720E+02  0.00000000000E+00 0.  1.
         14    1    5    5    0    0 -0.13351760796E+02 -0.19168900215E+02  0.26985363847E+03  0.27086288495E+03  0.00000000000E+00 0. -1.
         13    1    3    3    0    0  0.30606446972E+01 -0.69301493698E+02 -0.12485182057E+03  0.14282871446E+03  0.00000000000E+00 0. -1.
        -14    1    3    3    0    0 -0.66943137789E+02 -0.34584157492E+02 -0.10979951734E+03  0.13316674380E+03  0.00000000000E+00 0.  1.
          5    1    4    4  501    0  0.91547186748E+02  0.62197158287E+02  0.22595121504E+01  0.11077884137E+03  0.41800000000E+01 0. -1.
         -5    1    4    4    0  501 -0.33591061447E+02  0.58193162070E+02  0.35495311463E+02  0.76106458705E+02  0.41800000000E+01 0. -1.
</event>
<event>
11    1  0.8453735E-009  0.1681950E+03  0.7561462E-02  0.1079613E+00
         22   -1    0    0    0    0  0.00000000000E+00  0.00000000000E+00  0.28252569688E+04  0.28252569688E+04  0.00000000000E+00 0.  1.
         22   -1    0    0    0    0 -0.00000000000E+00 -0.00000000000E+00 -0.52636576159E+03  0.52636576159E+03  0.00000000000E+00 0. -1.
        -24    2    1    2    0    0 -0.20252252897E+02  0.11860703027E+02 -0.47962786993E+03  0.48698027629E+03  0.80969536580E+02 0.  0.
         25    2    1    2    0    0  0.97985513603E+02  0.69025087665E+02  0.14148197855E+03  0.22367402054E+03  0.12508914264E+03 0.  0.
         24    2    1    2    0    0 -0.77733260706E+02 -0.80885790692E+02  0.26370370985E+04  0.26409684335E+04  0.90358380044E+02 0.  0.
        -13    1    5    5    0    0 -0.91715435208E+02 -0.55115733813E+02  0.23507372335E+04  0.23531712658E+04  0.00000000000E+00 0.  1.
         14    1    5    5    0    0  0.13982174502E+02 -0.25770056879E+02  0.28629986503E+03  0.28779716773E+03  0.00000000000E+00 0. -1.
         13    1    3    3    0    0 -0.14532687559E+02  0.17536594650E+02 -0.47826616813E+03  0.47880816486E+03  0.00000000000E+00 0. -1.
        -14    1    3    3    0    0 -0.57195653377E+01 -0.56758916226E+01 -0.13617018012E+01  0.81721114261E+01  0.00000000000E+00 0.  1.
          5    1    4    4  501    0  0.61548064810E+02  0.13462938793E+02  0.14380639091E+03  0.15705784116E+03  0.41800000000E+01 0.  1.
         -5    1    4    4    0  501  0.36437448793E+02  0.55562148872E+02 -0.23244123614E+01  0.66616179376E+02  0.41800000000E+01 0.  1.
</event>
<event>
11    1  0.9685614E-009  0.1378769E+03  0.7561462E-02  0.1109953E+00
         22   -1    0    0    0    0  0.00000000000E+00  0.00000000000E+00  0.84757419667E+03  0.84757419667E+03  0.00000000000E+00 0.  1.
         22   -1    0    0    0    0 -0.00000000000E+00 -0.00000000000E+00 -0.43763217673E+03  0.43763217673E+03  0.00000000000E+00 0.  1.
         24    2    1    2    0    0 -0.38814316451E+02  0.57190979982E+02 -0.35873786102E+03  0.38176646945E+03  0.11079451662E+03 0.  0.
         25    2    1    2    0    0  0.26447240371E+01  0.36001251240E+01 -0.22118845969E+01  0.12519029133E+03  0.12509101144E+03 0.  0.
        -24    2    1    2    0    0  0.36169592414E+02 -0.60791105107E+02  0.77089176556E+03  0.77824961261E+03  0.79965914292E+02 0.  0.
        -11    1    3    3    0    0 -0.33900391012E+01  0.85132183518E+02 -0.22265325228E+03  0.23839767572E+03  0.00000000000E+00 0.  1.
         12    1    3    3    0    0 -0.35424277350E+02 -0.27941203535E+02 -0.13608460874E+03  0.14336879374E+03  0.00000000000E+00 0. -1.
         11    1    5    5    0    0 -0.21724239406E+02 -0.36552039472E+02  0.24999587922E+03  0.25358614669E+03  0.00000000000E+00 0. -1.
        -12    1    5    5    0    0  0.57893831821E+02 -0.24239065634E+02  0.52089588634E+03  0.52466346592E+03  0.00000000000E+00 0.  1.
          5    1    4    4  501    0 -0.38099957816E+02  0.15487134326E+02 -0.47508070742E+02  0.62975767569E+02  0.41800000000E+01 0. -1.
         -5    1    4    4    0  501  0.40744681853E+02 -0.11887009202E+02  0.45296186145E+02  0.62214523757E+02  0.41800000000E+01 0. -1.
</event>
<event>
11    1  0.8453735E-009  0.1364590E+03  0.7561462E-02  0.1111578E+00
         22   -1    0    0    0    0  0.00000000000E+00  0.00000000000E+00  0.98667763071E+02  0.98667763071E+02  0.00000000000E+00 0.  1.
         22   -1    0    0    0    0 -0.00000000000E+00 -0.00000000000E+00 -0.16985236452E+04  0.16985236452E+04  0.00000000000E+00 0.  1.
        -24    2    1    2    0    0  0.16209872742E+01 -0.53548859673E+02 -0.15417488334E+04  0.15447394350E+04  0.79751794782E+02 0.  0.
         25    2    1    2    0    0  0.10022647755E+02  0.88980532997E+02 -0.57143524765E+02  0.16410703409E+03  0.12509095689E+03 0.  0.
         24    2    1    2    0    0 -0.11643635029E+02 -0.35431673324E+02 -0.96352400344E+00  0.88344939221E+02  0.80080723000E+02 0.  0.
        -13    1    5    5    0    0 -0.45169301629E+02 -0.29912509401E+02  0.22040745917E+01  0.54220678464E+02  0.00000000000E+00 0.  1.
         14    1    5    5    0    0  0.33525666599E+02 -0.55191639232E+01 -0.31675985952E+01  0.34124260757E+02  0.00000000000E+00 0. -1.
         11    1    3    3    0    0  0.14092751816E+02 -0.25662271174E+02 -0.16022480223E+03  0.16287769972E+03  0.00000000000E+00 0. -1.
        -12    1    3    3    0    0 -0.12471764542E+02 -0.27886588499E+02 -0.13815240311E+04  0.13818617352E+04  0.00000000000E+00 0.  1.
          5    1    4    4  501    0 -0.31221131612E+02  0.47552268316E+01 -0.62425395540E+02  0.70084047041E+02  0.41800000000E+01 0. -1.
         -5    1    4    4    0  501  0.41243779367E+02  0.84225306165E+02  0.52818707754E+01  0.94022987051E+02  0.41800000000E+01 0. -1.
</event>
<event>
11    1  0.8825349E-009  0.1875835E+03  0.7561462E-02  0.1063669E+00
         22   -1    0    0    0    0  0.00000000000E+00  0.00000000000E+00  0.35519488437E+03  0.35519488437E+03  0.00000000000E+00 0. -1.
         22   -1    0    0    0    0 -0.00000000000E+00 -0.00000000000E+00 -0.16655703795E+04  0.16655703795E+04  0.00000000000E+00 0. -1.
         24    2    1    2    0    0 -0.16641939540E+02  0.55892787297E+01 -0.11152083537E+04  0.11179737963E+04  0.76599888958E+02 0.  0.
         25    2    1    2    0    0  0.13323392784E+03 -0.81661244458E+02 -0.51167565018E+03  0.54943574635E+03  0.12509128670E+03 0.  0.
        -24    2    1    2    0    0 -0.11659198830E+03  0.76071965728E+02  0.31650850877E+03  0.35335572115E+03  0.72814791390E+02 0.  0.
        -13    1    3    3    0    0  0.25866877594E+02 -0.49782028047E+00 -0.18803077844E+03  0.18980230984E+03  0.00000000000E+00 0.  1.
         14    1    3    3    0    0 -0.42508817135E+02  0.60870990102E+01 -0.92717757524E+03  0.92817148649E+03  0.00000000000E+00 0. -1.
         11    1    5    5    0    0 -0.61435051507E+02  0.22208147851E+02  0.22188514620E+03  0.23130171959E+03  0.00000000000E+00 0. -1.
        -12    1    5    5    0    0 -0.55156936793E+02  0.53863817877E+02  0.94623362570E+02  0.12205400156E+03  0.00000000000E+00 0.  1.
          5    1    4    4  501    0  0.45392629077E+02  0.31431159095E+02 -0.11382488229E+03  0.12657797898E+03  0.41800000000E+01 0. -1.
         -5    1    4    4    0  501  0.87841298764E+02 -0.11309240355E+03 -0.39785076789E+03  0.42285776737E+03  0.41800000000E+01 0. -1.
</event>
<event>
11    1  0.1058092E-008  0.1693430E+03  0.7561462E-02  0.1078605E+00
         22   -1    0    0    0    0  0.00000000000E+00  0.00000000000E+00  0.47552842706E+03  0.47552842706E+03  0.00000000000E+00 0. -1.
         22   -1    0    0    0    0 -0.00000000000E+00 -0.00000000000E+00 -0.99451065937E+03  0.99451065937E+03  0.00000000000E+00 0.  1.
        -24    2    1    2    0    0  0.60822886877E+02 -0.48746644329E+02 -0.80689358933E+03  0.81466424685E+03  0.80776925479E+02 0.  0.
         25    2    1    2    0    0  0.45698215940E+02 -0.45877763107E+01 -0.14604892781E+03  0.19766981144E+03  0.12503475681E+03 0.  0.
         24    2    1    2    0    0 -0.10652110282E+03  0.53334420640E+02  0.43396028483E+03  0.45770502814E+03  0.83552727089E+02 0.  0.
        -11    1    5    5    0    0 -0.65353740716E+02  0.17352980320E+02  0.10968577839E+03  0.12885343353E+03  0.00000000000E+00 0.  1.
         12    1    5    5    0    0 -0.41167362101E+02  0.35981440319E+02  0.32427450644E+03  0.32885159461E+03  0.00000000000E+00 0. -1.
         11    1    3    3    0    0  0.71455314868E+01 -0.50103778121E+02 -0.24266826966E+03  0.24788976643E+03  0.00000000000E+00 0. -1.
        -12    1    3    3    0    0  0.53677355390E+02  0.13571337922E+01 -0.56422531967E+03  0.56677448042E+03  0.00000000000E+00 0.  1.
          5    1    4    4  501    0 -0.36485169315E+02 -0.17567694462E+02 -0.85456445597E+02  0.94657635523E+02  0.41800000000E+01 0.  1.
         -5    1    4    4    0  501  0.82183385255E+02  0.12979918151E+02 -0.60592482212E+02  0.10301217592E+03  0.41800000000E+01 0.  1.
</event>
<event>
11    1  0.8453735E-009  0.1574803E+03  0.7561462E-02  0.1089471E+00
         22   -1    0    0    0    0  0.00000000000E+00  0.00000000000E+00  0.18221098881E+04  0.18221098881E+04  0.00000000000E+00 0. -1.
         22   -1    0    0    0    0 -0.00000000000E+00 -0.00000000000E+00 -0.24374315402E+04  0.24374315402E+04  0.00000000000E+00 0. -1.
        -24    2    1    2    0    0 -0.66393467512E+02 -0.68205007948E+02 -0.23799161304E+04  0.23832888582E+04  0.83695748609E+02 0.  0.
         25    2    1    2    0    0  0.14169244227E+03  0.70616431207E+02  0.13483037828E+03  0.24267427176E+03  0.12509253661E+03 0.  0.
         24    2    1    2    0    0 -0.75298974754E+02 -0.24114232592E+01  0.16297641001E+04  0.16335782983E+04  0.82287814391E+02 0.  0.
        -13    1    5    5    0    0 -0.48515382290E+02  0.19464931509E+02  0.40934202287E+03  0.41266635138E+03  0.00000000000E+00 0.  1.
         14    1    5    5    0    0 -0.26783592464E+02 -0.21876354768E+02  0.12204220772E+04  0.12209119470E+04  0.00000000000E+00 0. -1.
         13    1    3    3    0    0 -0.73271661226E+02 -0.32705738120E+02 -0.20121807154E+04  0.20137799366E+04  0.00000000000E+00 0. -1.
        -14    1    3    3    0    0  0.68781937145E+01 -0.35499269828E+02 -0.36773541497E+03  0.36950892158E+03  0.00000000000E+00 0.  1.
          5    1    4    4  501    0  0.42016954950E+02  0.89844539604E+02  0.55195163118E+02  0.11358452461E+03  0.41800000000E+01 0. -1.
         -5    1    4    4    0  501  0.99675487315E+02 -0.19228108397E+02  0.79635215164E+02  0.12908974715E+03  0.41800000000E+01 0. -1.
</event>
<event>
11    1  0.8453735E-009  0.1501299E+03  0.7561462E-02  0.1096746E+00
         22   -1    0    0    0    0  0.00000000000E+00  0.00000000000E+00  0.26301372209E+03  0.26301372209E+03  0.00000000000E+00 0.  1.
         22   -1    0    0    0    0 -0.00000000000E+00 -0.00000000000E+00 -0.98426372229E+03  0.98426372229E+03  0.00000000000E+00 0.  1.
         24    2    1    2    0    0  0.33811068144E+01 -0.36563927507E+02 -0.80342389073E+03  0.80887307867E+03  0.86240109693E+02 0.  0.
         25    2    1    2    0    0  0.79439565165E+02  0.42451335817E+02 -0.12665449449E+03  0.19950065400E+03  0.12508552892E+03 0.  0.
        -24    2    1    2    0    0 -0.82820671980E+02 -0.58874083100E+01  0.20882838502E+03  0.23890371171E+03  0.81066415935E+02 0.  0.
        -11    1    3    3    0    0  0.14200610280E+02 -0.62026564288E+02 -0.63641822802E+03  0.63959136405E+03  0.00000000000E+00 0.  1.
         12    1    3    3    0    0 -0.10819503465E+02  0.25462636782E+02 -0.16700566270E+03  0.16928171461E+03  0.00000000000E+00 0. -1.
         11    1    5    5    0    0 -0.83698207278E+02  0.22317969026E+02  0.14161568801E+03  0.16600748397E+03  0.00000000000E+00 0. -1.
        -12    1    5    5    0    0  0.87753529808E+00 -0.28205377336E+02  0.67212697008E+02  0.72896227735E+02  0.00000000000E+00 0.  1.
          5    1    4    4  501    0  0.81945281745E+02  0.62806552705E+02 -0.40737177973E+02  0.11107061867E+03  0.41800000000E+01 0.  1.
         -5    1    4    4    0  501 -0.25057165797E+01 -0.20355216889E+02 -0.85917316521E+02  0.88430035330E+02  0.41800000000E+01 0.  1.
</event>
<event>
11    1  0.8453735E-009  0.1760292E+03  0.7561462E-02  0.1072901E+00
         22   -1    0    0    0    0  0.00000000000E+00  0.00000000000E+00  0.16084277315E+04  0.16084277315E+04  0.00000000000E+00 0.  1.
         22   -1    0    0    0    0 -0.00000000000E+00 -0.00000000000E+00 -0.25829893087E+03  0.25829893087E+03  0.00000000000E+00 0. -1.
         24    2    1    2    0    0  0.53955417152E+02 -0.38585484965E+02 -0.22662884648E+03  0.24875423823E+03  0.78217710850E+02 0.  0.
         25    2    1    2    0    0  0.52447710093E+02  0.11102127447E+03  0.48730989588E+03  0.51787438760E+03  0.12508581468E+03 0.  0.
        -24    2    1    2    0    0 -0.10640312724E+03 -0.72435789510E+02  0.10894477513E+04  0.11000980366E+04  0.82162754372E+02 0.  0.
        -11    1    3    3    0    0  0.17279892520E+02 -0.26288960173E+02 -0.17342331448E+02  0.35922981120E+02  0.00000000000E+00 0.  1.
         12    1    3    3    0    0  0.36675524632E+02 -0.12296524793E+02 -0.20928651504E+03  0.21283125711E+03  0.00000000000E+00 0. -1.
         13    1    5    5    0    0 -0.61511654857E+02 -0.49381046193E+02  0.34330505740E+03  0.35225066904E+03  0.00000000000E+00 0. -1.
        -14    1    5    5    0    0 -0.44891472387E+02 -0.23054743316E+02  0.74614269388E+03  0.74784736753E+03  0.00000000000E+00 0.  1.
          5    1    4    4  501    0  0.34998315070E+02  0.19363989039E+02  0.34699644791E+03  0.34931912829E+03  0.41800000000E+01 0.  1.
         -5    1    4    4    0  501  0.17449395023E+02  0.91657285436E+02  0.14031344797E+03  0.16855525931E+03  0.41800000000E+01 0.  1.
</event>
<event>
11    1  0.8453735E-009  0.1523061E+03  0.7561462E-02  0.1094545E+00
         22   -1    0    0    0    0  0.00000000000E+00  0.00000000000E+00  0.74297690280E+03  0.74297690280E+03  0.00000000000E+00 0.  1.
         22   -1    0    0    0    0 -0.00000000000E+00 -0.00000000000E+00 -0.10520568929E+04  0.10520568929E+04  0.00000000000E+00 0.  1.
         24    2    1    2    0    0  0.87074237791E+02 -0.89771227468E+01 -0.10211825001E+04  0.10272420129E+04  0.68919830518E+02 0.  0.
         25    2    1    2    0    0 -0.47663340603E+02 -0.17137899261E+01  0.16084213993E+03  0.20926723934E+03  0.12509137608E+03 0.  0.
        -24    2    1    2    0    0 -0.39410897188E+02  0.10690912673E+02  0.55126037002E+03  0.55852454347E+03  0.79963464565E+02 0.  0.
        -13    1    3    3    0    0  0.31154125979E+01 -0.81438277162E+01 -0.43392424714E+03  0.43401184314E+03  0.00000000000E+00 0.  1.
         14    1    3    3    0    0  0.83958825193E+02 -0.83329503061E+00 -0.58725825295E+03  0.59323016980E+03  0.00000000000E+00 0. -1.
         11    1    5    5    0    0  0.18045621370E+01  0.39375602518E+02  0.25882698172E+03  0.26181119339E+03  0.00000000000E+00 0. -1.
        -12    1    5    5    0    0 -0.41215459325E+02 -0.28684689845E+02  0.29243338830E+03  0.29671335007E+03  0.00000000000E+00 0.  1.
          5    1    4    4  501    0  0.22967500951E+02 -0.36399625844E+02  0.10241601297E+03  0.11117081890E+03  0.41800000000E+01 0. -1.
         -5    1    4    4    0  501 -0.70630841554E+02  0.34685835917E+02  0.58426126963E+02  0.98096420443E+02  0.41800000000E+01 0. -1.
</event>
<event>
11    1  0.8453735E-009  0.1842227E+03  0.7561462E-02  0.1066277E+00
         22   -1    0    0    0    0  0.00000000000E+00  0.00000000000E+00  0.40963455281E+04  0.40963455281E+04  0.00000000000E+00 0.  1.
         22   -1    0    0    0    0 -0.00000000000E+00 -0.00000000000E+00 -0.13585414126E+03  0.13585414126E+03  0.00000000000E+00 0.  1.
         24    2    1    2    0    0  0.69201184481E+01  0.13907434300E+03 -0.62626029616E+02  0.17269742930E+03  0.80702054368E+02 0.  0.
         25    2    1    2    0    0 -0.13780479219E+02 -0.10662864301E+03  0.36746449188E+03  0.40278718295E+03  0.12509113811E+03 0.  0.
        -24    2    1    2    0    0  0.68603607709E+01 -0.32445699992E+02  0.36556529246E+04  0.36567150571E+04  0.81651184771E+02 0.  0.
        -11    1    3    3    0    0 -0.33578784880E+02  0.72733680467E+02 -0.48648654733E+02  0.93725208325E+02  0.00000000000E+00 0.  1.
         12    1    3    3    0    0  0.40498903328E+02  0.66340662538E+02 -0.13977374882E+02  0.78972220973E+02  0.00000000000E+00 0. -1.
         11    1    5    5    0    0 -0.12590475799E+02  0.18207898486E+02  0.20990569751E+04  0.20991737022E+04  0.00000000000E+00 0. -1.
        -12    1    5    5    0    0  0.19450836570E+02 -0.50653598478E+02  0.15565959495E+04  0.15575413549E+04  0.00000000000E+00 0.  1.
          5    1    4    4  501    0 -0.62248329716E+02 -0.50417752431E+02  0.11954916945E+03  0.14396624823E+03  0.41800000000E+01 0.  1.
         -5    1    4    4    0  501  0.48467850497E+02 -0.56210890582E+02  0.24791532243E+03  0.25882093472E+03  0.41800000000E+01 0.  1.
</event>
<event>
11    1  0.8453735E-009  0.1524706E+03  0.7561462E-02  0.1094381E+00
         22   -1    0    0    0    0  0.00000000000E+00  0.00000000000E+00  0.19665192797E+04  0.19665192797E+04  0.00000000000E+00 0.  1.
         22   -1    0    0    0    0 -0.00000000000E+00 -0.00000000000E+00 -0.64371221698E+03  0.64371221698E+03  0.00000000000E+00 0.  1.
         24    2    1    2    0    0  0.14137858543E+02  0.82188294403E+02 -0.52207198955E+03  0.53447052621E+03  0.78388687550E+02 0.  0.
         25    2    1    2    0    0  0.20279119023E+02 -0.13924164184E+03 -0.36342560590E+02  0.19174847172E+03  0.12508883726E+03 0.  0.
        -24    2    1    2    0    0 -0.34416977566E+02  0.57053347435E+02  0.18812216129E+04  0.18840124988E+04  0.77902027772E+02 0.  0.
        -11    1    3    3    0    0  0.23849109315E+02  0.73850578084E+02 -0.51286565390E+03  0.51870402625E+03  0.00000000000E+00 0.  1.
         12    1    3    3    0    0 -0.97112507721E+01  0.83377163192E+01 -0.92063356533E+01  0.15766499965E+02  0.00000000000E+00 0. -1.
         11    1    5    5    0    0 -0.59326547984E+02  0.41040191836E+02  0.14320532419E+04  0.14338690401E+04  0.00000000000E+00 0. -1.
        -12    1    5    5    0    0  0.24909570418E+02  0.16013155599E+02  0.44916837104E+03  0.45014345868E+03  0.00000000000E+00 0.  1.
          5    1    4    4  501    0 -0.22853645230E+02 -0.21832415968E+02  0.35280827624E+02  0.47551579208E+02  0.41800000000E+01 0. -1.
         -5    1    4    4    0  501  0.43132764253E+02 -0.11740922587E+03 -0.71623388214E+02  0.14419689251E+03  0.41800000000E+01 0. -1.
</event>
<event>
11    1  0.8453735E-009  0.1363721E+03  0.7561462E-02  0.1111679E+00
         22   -1    0    0    0    0  0.00000000000E+00  0.00000000000E+00  0.34045627613E+03  0.34045627613E+03  0.00000000000E+00 0.  1.
         22   -1    0    0    0    0 -0.00000000000E+00 -0.00000000000E+00 -0.56586034256E+03  0.56586034256E+03  0.00000000000E+00 0. -1.
        -24    2    1    2    0    0 -0.51059345548E+02 -0.72943684987E+01 -0.48298123951E+03  0.49219656707E+03  0.79538156489E+02 0.  0.
         25    2    1    2    0    0  0.21851675105E+02 -0.42569087326E+02 -0.46233990826E+01  0.13400949747E+03  0.12509015426E+03 0.  0.
         24    2    1    2    0    0  0.29207670442E+02  0.49863455824E+02  0.26220057216E+03  0.28011055415E+03  0.79833140145E+02 0.  0.
        -11    1    5    5    0    0  0.19280042056E+01  0.88977773205E+01  0.20264644696E+03  0.20285085681E+03  0.00000000000E+00 0.  1.
         12    1    5    5    0    0  0.27279666237E+02  0.40965678504E+02  0.59554125202E+02  0.77259697345E+02  0.00000000000E+00 0. -1.
         13    1    3    3    0    0 -0.57511871457E+02  0.17640690674E+02 -0.41784059596E+03  0.42214875691E+03  0.00000000000E+00 0. -1.
        -14    1    3    3    0    0  0.64525259094E+01 -0.24935059173E+02 -0.65140643552E+02  0.70047810165E+02  0.00000000000E+00 0.  1.
          5    1    4    4  501    0  0.19614025028E+02  0.40862857462E+02  0.15443778222E+02  0.48067304725E+02  0.41800000000E+01 0.  1.
         -5    1    4    4    0  501  0.22376500773E+01 -0.83431944788E+02 -0.20067177304E+02  0.85942192746E+02  0.41800000000E+01 0.  1.
</event>
<event>
11    1  0.8453735E-009  0.1621126E+03  0.7561462E-02  0.1085107E+00
         22   -1    0    0    0    0  0.00000000000E+00  0.00000000000E+00  0.29634012988E+04  0.29634012988E+04  0.00000000000E+00 0.  1.
         22   -1    0    0    0    0 -0.00000000000E+00 -0.00000000000E+00 -0.77740920707E+02  0.77740920707E+02  0.00000000000E+00 0.  1.
         24    2    1    2    0    0  0.96787160525E+02 -0.26952990658E+02  0.68137534242E+00  0.12990110774E+03  0.82338419776E+02 0.  0.
         25    2    1    2    0    0 -0.11978089814E+03  0.55249541016E+02  0.66379475346E+03  0.68823908876E+03  0.12509833426E+03 0.  0.
        -24    2    1    2    0    0  0.22993737616E+02 -0.28296550358E+02  0.22211842493E+04  0.22230020231E+04  0.82153017466E+02 0.  0.
        -11    1    3    3    0    0  0.11348626604E+02 -0.38122281469E+02 -0.14639452975E+02  0.42384115581E+02  0.00000000000E+00 0.  1.
         12    1    3    3    0    0  0.85438533921E+02  0.11169290811E+02  0.15320828317E+02  0.87516992156E+02  0.00000000000E+00 0. -1.
         11    1    5    5    0    0  0.33561845523E+01 -0.31616162063E+02  0.29387153881E+03  0.29558641207E+03  0.00000000000E+00 0. -1.
        -12    1    5    5    0    0  0.19637553064E+02  0.33196117055E+01  0.19273127105E+04  0.19274156110E+04  0.00000000000E+00 0.  1.
          5    1    4    4  501    0  0.91412390148E+01 -0.52272048625E+01  0.25645612562E+03  0.25670625760E+03  0.41800000000E+01 0. -1.
         -5    1    4    4    0  501 -0.12892213716E+03  0.60476745879E+02  0.40733862783E+03  0.43153283116E+03  0.41800000000E+01 0. -1.
</event>
<event>
11    1  0.8453735E-009  0.1461996E+03  0.7561462E-02  0.1100827E+00
         22   -1    0    0    0    0  0.00000000000E+00  0.00000000000E+00  0.91497273099E+03  0.91497273099E+03  0.00000000000E+00 0. -1.
         22   -1    0    0    0    0 -0.00000000000E+00 -0.00000000000E+00 -0.18393728276E+03  0.18393728276E+03  0.00000000000E+00 0.  1.
         24    2    1    2    0    0  0.30574234862E+02  0.70138289658E+02 -0.11786055965E+03  0.16190700256E+03  0.80427622381E+02 0.  0.
         25    2    1    2    0    0 -0.23267120098E+02 -0.67232539365E+02  0.81541480394E+02  0.16540452501E+03  0.12509224852E+03 0.  0.
        -24    2    1    2    0    0 -0.73071147645E+01 -0.29057502928E+01  0.76735452748E+03  0.77159848619E+03  0.80432678238E+02 0.  0.
        -13    1    3    3    0    0 -0.24946952765E+02  0.15233953973E+02 -0.15263149143E+02  0.32975559550E+02  0.00000000000E+00 0.  1.
         14    1    3    3    0    0  0.55521187627E+02  0.54904335685E+02 -0.10259741051E+03  0.12893144301E+03  0.00000000000E+00 0. -1.
         11    1    5    5    0    0 -0.23345158448E+02 -0.36316712141E+02  0.36638632040E+03  0.36892117827E+03  0.00000000000E+00 0. -1.
        -12    1    5    5    0    0  0.16038043684E+02  0.33410961848E+02  0.40096820708E+03  0.40267730791E+03  0.00000000000E+00 0.  1.
          5    1    4    4  501    0 -0.55067566497E+02 -0.74909708569E+02  0.91942269746E+02  0.13082337209E+03  0.41800000000E+01 0.  1.
         -5    1    4    4    0  501  0.31800446399E+02  0.76771692042E+01 -0.10400789352E+02  0.34581152920E+02  0.41800000000E+01 0.  1.
</event>
<event>
11    1  0.8453735E-009  0.1337107E+03  0.7561462E-02  0.1114792E+00
         22   -1    0    0    0    0  0.00000000000E+00  0.00000000000E+00  0.68492333081E+03  0.68492333081E+03  0.00000000000E+00 0.  1.
         22   -1    0    0    0    0 -0.00000000000E+00 -0.00000000000E+00 -0.32863976609E+03  0.32863976609E+03  0.00000000000E+00 0.  1.
         24    2    1    2    0    0 -0.38456331732E+02 -0.26863673203E+02 -0.30031366096E+03  0.31445130127E+03  0.80565374196E+02 0.  0.
         25    2    1    2    0    0  0.46374369116E+02  0.39533305832E+02  0.26697266569E+03  0.30105551876E+03  0.12508619736E+03 0.  0.
        -24    2    1    2    0    0 -0.79180373831E+01 -0.12669632629E+02  0.38962455999E+03  0.39805627688E+03  0.80114211611E+02 0.  0.
        -13    1    3    3    0    0 -0.47080713697E+02  0.14069068048E+02 -0.19592784832E+03  0.20199567823E+03  0.00000000000E+00 0.  1.
         14    1    3    3    0    0  0.86243819648E+01 -0.40932741251E+02 -0.10438581264E+03  0.11245562303E+03  0.00000000000E+00 0. -1.
         11    1    5    5    0    0 -0.37749470157E+01  0.27868614547E+02  0.64190165117E+02  0.70080576478E+02  0.00000000000E+00 0. -1.
        -12    1    5    5    0    0 -0.41430903674E+01 -0.40538247176E+02  0.32543439488E+03  0.32797570040E+03  0.00000000000E+00 0.  1.
          5    1    4    4  501    0  0.77248243647E+01  0.56669284849E+02  0.24797105748E+03  0.25451561544E+03  0.41800000000E+01 0. -1.
         -5    1    4    4    0  501  0.38649544751E+02 -0.17135979018E+02  0.19001608209E+02  0.46539903318E+02  0.41800000000E+01 0. -1.
</event>
<event>
11    1  0.8453735E-009  0.2729391E+03  0.7561462E-02  0.1012342E+00
         22   -1    0    0    0    0  0.00000000000E+00  0.00000000000E+00  0.23794417419E+04  0.23794417419E+04  0.00000000000E+00 0.  1.
         22   -1    0    0    0    0 -0.00000000000E+00 -0.00000000000E+00 -0.15674765384E+03  0.15674765384E+03  0.00000000000E+00 0. -1.
         24    2    1    2    0    0  0.11424643298E+03 -0.20365543336E+03  0.22034519872E+02  0.24875939189E+03  0.82872987191E+02 0.  0.
         25    2    1    2    0    0 -0.17691377150E+03  0.22243500103E+03  0.53646562894E+03  0.61985208135E+03  0.12508165129E+03 0.  0.
        -24    2    1    2    0    0  0.62667338520E+02 -0.18779567675E+02  0.16641939393E+04  0.16675779225E+04  0.83634877198E+02 0.  0.
        -13    1    3    3    0    0  0.10670237798E+03 -0.16055896388E+03  0.46942731132E+02  0.19841420905E+03  0.00000000000E+00 0.  1.
         14    1    3    3    0    0  0.75440550024E+01 -0.43096469476E+02 -0.24908211260E+02  0.50345182841E+02  0.00000000000E+00 0. -1.
         11    1    5    5    0    0 -0.19359417558E+01  0.24096362775E+02  0.63851704061E+03  0.63897448597E+03  0.00000000000E+00 0. -1.
        -12    1    5    5    0    0  0.64603280276E+02 -0.42875930450E+02  0.10256768987E+04  0.10286034365E+04  0.00000000000E+00 0.  1.
          5    1    4    4  501    0 -0.13673770477E+03  0.18510420606E+03  0.30593223510E+03  0.38284823610E+03  0.41800000000E+01 0. -1.
         -5    1    4    4    0  501 -0.40176066728E+02  0.37330794971E+02  0.23053339383E+03  0.23700384525E+03  0.41800000000E+01 0. -1.
</event>
<event>
11    1  0.8453735E-009  0.2105654E+03  0.7561462E-02  0.1047294E+00
         22   -1    0    0    0    0  0.00000000000E+00  0.00000000000E+00  0.17212488070E+03  0.17212488070E+03  0.00000000000E+00 0. -1.
         22   -1    0    0    0    0 -0.00000000000E+00 -0.00000000000E+00 -0.16003869041E+04  0.16003869041E+04  0.00000000000E+00 0.  1.
         24    2    1    2    0    0  0.24438689839E+01  0.10969137893E+02 -0.12961470512E+04  0.12987310013E+04  0.81109437573E+02 0.  0.
         25    2    1    2    0    0 -0.16996565466E+03 -0.29499410574E+02 -0.18621726449E+03  0.28299011939E+03  0.12509196253E+03 0.  0.
        -24    2    1    2    0    0  0.16752178568E+03  0.18530272681E+02  0.54102292265E+02  0.19079066416E+03  0.71183564264E+02 0.  0.
        -11    1    3    3    0    0 -0.30299103144E+02  0.48922893442E+01 -0.10368522949E+04  0.10373064406E+04  0.00000000000E+00 0.  1.
         12    1    3    3    0    0  0.32742972128E+02  0.60768485490E+01 -0.25929475626E+03  0.26142456070E+03  0.00000000000E+00 0. -1.
         11    1    5    5    0    0  0.14081069305E+03  0.34873625685E+02  0.63122209223E+02  0.15820314264E+03  0.00000000000E+00 0. -1.
        -12    1    5    5    0    0  0.26711092632E+02 -0.16343353004E+02 -0.90199169577E+01  0.32587521522E+02  0.00000000000E+00 0.  1.
          5    1    4    4  501    0 -0.11953110075E+03  0.20073076401E+02 -0.17244724627E+03  0.21082252629E+03  0.41800000000E+01 0.  1.
         -5    1    4    4    0  501 -0.50434553909E+02 -0.49572486976E+02 -0.13770018222E+02  0.72167593107E+02  0.41800000000E+01 0.  1.
</event>
<event>
11    1  0.8453735E-009  0.1513833E+03  0.7561462E-02  0.1095474E+00
         22   -1    0    0    0    0  0.00000000000E+00  0.00000000000E+00  0.18102065342E+03  0.18102065342E+03  0.00000000000E+00 0. -1.
         22   -1    0    0    0    0 -0.00000000000E+00 -0.00000000000E+00 -0.50616316383E+03  0.50616316383E+03  0.00000000000E+00 0.  1.
         24    2    1    2    0    0  0.73231559988E+02 -0.41321454260E+02 -0.38748418013E+03  0.40469071549E+03  0.80995440580E+02 0.  0.
         25    2    1    2    0    0 -0.72259702489E+02  0.63355687894E+02 -0.27239235913E+02  0.16007832489E+03  0.12509071242E+03 0.  0.
        -24    2    1    2    0    0 -0.97185749949E+00 -0.22034233634E+02  0.89580905631E+02  0.12241477687E+03  0.80462332702E+02 0.  0.
        -13    1    3    3    0    0  0.33688697112E+02 -0.14035581520E+02 -0.31873824246E+03  0.32082081147E+03  0.00000000000E+00 0.  1.
         14    1    3    3    0    0  0.39542862876E+02 -0.27285872739E+02 -0.68745937664E+02  0.83869904024E+02  0.00000000000E+00 0. -1.
         13    1    5    5    0    0  0.11450119349E+02 -0.27069943902E+02  0.10076100167E+03  0.10496030942E+03  0.00000000000E+00 0. -1.
        -14    1    5    5    0    0 -0.12421976848E+02  0.50357102680E+01 -0.11180096036E+02  0.17454467454E+02  0.00000000000E+00 0.  1.
          5    1    4    4  501    0  0.20902757466E+02 -0.11401219839E+02 -0.32425114165E+02  0.40444696959E+02  0.41800000000E+01 0. -1.
         -5    1    4    4    0  501 -0.93162459955E+02  0.74756907733E+02  0.51858782518E+01  0.11963362793E+03  0.41800000000E+01 0. -1.
</event>
<event>
11    1  0.8453735E-009  0.2081607E+03  0.7561462E-02  0.1048898E+00
         22   -1    0    0    0    0  0.00000000000E+00  0.00000000000E+00  0.41620230444E+03  0.41620230444E+03  0.00000000000E+00 0.  1.
         22   -1    0    0    0    0 -0.00000000000E+00 -0.00000000000E+00 -0.74957288485E+03  0.74957288485E+03  0.00000000000E+00 0. -1.
        -24    2    1    2    0    0  0.84226652623E+02  0.14470156003E+03 -0.68562110410E+03  0.71036052470E+03  0.80641838818E+02 0.  0.
         25    2    1    2    0    0 -0.51737377099E+02 -0.13932872297E+03  0.19260760700E+03  0.27356271357E+03  0.12509843623E+03 0.  0.
         24    2    1    2    0    0 -0.32489275524E+02 -0.53728370636E+01  0.15964291669E+03  0.18185195103E+03  0.80621652436E+02 0.  0.
        -11    1    5    5    0    0 -0.36401177691E+02  0.12916528455E+02  0.25209548482E+02  0.46123787564E+02  0.00000000000E+00 0.  1.
         12    1    5    5    0    0  0.39119021671E+01 -0.18289365519E+02  0.13443336821E+03  0.13572816347E+03  0.00000000000E+00 0. -1.
         13    1    3    3    0    0  0.76693996655E+02  0.15166235728E+03 -0.58409539027E+03  0.60831806209E+03  0.00000000000E+00 0. -1.
        -14    1    3    3    0    0  0.75326559681E+01 -0.69607972448E+01 -0.10152571384E+03  0.10204246260E+03  0.00000000000E+00 0.  1.
          5    1    4    4  501    0  0.10761825983E+02 -0.42502204222E+00  0.87956993942E+02  0.88712472210E+02  0.41800000000E+01 0.  1.
         -5    1    4    4    0  501 -0.62499203082E+02 -0.13890370093E+03  0.10465061305E+03  0.18485024136E+03  0.41800000000E+01 0.  1.
</event>
<event>
11    1  0.8453735E-009  0.1316313E+03  0.7561462E-02  0.1117281E+00
         22   -1    0    0    0    0  0.00000000000E+00  0.00000000000E+00  0.60611511442E+02  0.60611511442E+02  0.00000000000E+00 0.  1.
         22   -1    0    0    0    0 -0.00000000000E+00 -0.00000000000E+00 -0.18154062837E+04  0.18154062837E+04  0.00000000000E+00 0. -1.
        -24    2    1    2    0    0 -0.98624194455E+01 -0.28645356210E+01 -0.15877128197E+04  0.15897958865E+04  0.80706195082E+02 0.  0.
         25    2    1    2    0    0 -0.31381846534E+02 -0.11389312561E+02 -0.14229105857E+03  0.19238211569E+03  0.12509834673E+03 0.  0.
         24    2    1    2    0    0  0.41244265980E+02  0.14253848182E+02 -0.24790893960E+02  0.93839792956E+02  0.79290961998E+02 0.  0.
        -13    1    5    5    0    0  0.11811044146E+01  0.38236147926E+02 -0.27430408510E+02  0.47072553860E+02  0.00000000000E+00 0.  1.
         14    1    5    5    0    0  0.40063161565E+02 -0.23982299744E+02  0.26395145503E+01  0.46767239096E+02  0.00000000000E+00 0. -1.
         13    1    3    3    0    0 -0.42012243418E+02 -0.64904383862E+01 -0.11937929090E+04  0.11945495653E+04  0.00000000000E+00 0. -1.
        -14    1    3    3    0    0  0.32149823972E+02  0.36259027652E+01 -0.39391991075E+03  0.39524632122E+03  0.00000000000E+00 0.  1.
          5    1    4    4  501    0  0.29155807939E+02 -0.36463335268E+01 -0.12547769459E+03  0.12893983529E+03  0.41800000000E+01 0.  1.
         -5    1    4    4    0  501 -0.60537654473E+02 -0.77429790339E+01 -0.16813363980E+02  0.63442280396E+02  0.41800000000E+01 0.  1.
</event>
<event>
11    1  0.8453735E-009  0.1436346E+03  0.7561462E-02  0.1103566E+00
         22   -1    0    0    0    0  0.00000000000E+00  0.00000000000E+00  0.11440103897E+03  0.11440103897E+03  0.00000000000E+00 0.  1.
         22   -1    0    0    0    0 -0.00000000000E+00 -0.00000000000E+00 -0.57735750302E+03  0.57735750302E+03  0.00000000000E+00 0. -1.
        -24    2    1    2    0    0  0.52032359987E+02  0.42639934607E+02 -0.41740933459E+03  0.43098590705E+03  0.83622777809E+02 0.  0.
         25    2    1    2    0    0 -0.61286435091E+02 -0.79639701243E+02 -0.57154513238E+02  0.17033116297E+03  0.12509019768E+03 0.  0.
         24    2    1    2    0    0  0.92540751043E+01  0.36999766636E+02  0.11607383777E+02  0.90441471958E+02  0.81180711100E+02 0.  0.
        -11    1    5    5    0    0  0.31088624165E+02  0.15289933584E+02  0.36884850646E+02  0.50604118693E+02  0.00000000000E+00 0.  1.
         12    1    5    5    0    0 -0.21834549061E+02  0.21709833052E+02 -0.25277466870E+02  0.39837353265E+02  0.00000000000E+00 0. -1.
         11    1    3    3    0    0  0.48123475677E+02 -0.14333239654E+02 -0.19705359163E+03  0.20335050687E+03  0.00000000000E+00 0. -1.
        -12    1    3    3    0    0  0.39088843095E+01  0.56973174261E+02 -0.22035574296E+03  0.22763540018E+03  0.00000000000E+00 0.  1.
          5    1    4    4  501    0 -0.28522009621E+01 -0.10759303654E+02  0.37551743117E+02  0.39389128913E+02  0.41800000000E+01 0. -1.
         -5    1    4    4    0  501 -0.58434234129E+02 -0.68880397589E+02 -0.94706256355E+02  0.13094203406E+03  0.41800000000E+01 0. -1.
</event>
<event>
11    1  0.8453735E-009  0.1935118E+03  0.7561462E-02  0.1059209E+00
         22   -1    0    0    0    0  0.00000000000E+00  0.00000000000E+00  0.65306660252E+03  0.65306660252E+03  0.00000000000E+00 0.  1.
         22   -1    0    0    0    0 -0.00000000000E+00 -0.00000000000E+00 -0.16039644413E+03  0.16039644413E+03  0.00000000000E+00 0.  1.
         24    2    1    2    0    0  0.18641792742E+01 -0.93621038249E+02  0.60104071456E+02  0.13670598208E+03  0.79420728806E+02 0.  0.
         25    2    1    2    0    0  0.13778712808E+03  0.13004711954E+03  0.14936211699E+02  0.22754486007E+03  0.12512404629E+03 0.  0.
        -24    2    1    2    0    0 -0.13965130735E+03 -0.36426081287E+02  0.41762987523E+03  0.44921220450E+03  0.80916901474E+02 0.  0.
        -11    1    3    3    0    0  0.16834573059E+02 -0.10271766372E+03  0.57738160604E+02  0.11902947736E+03  0.00000000000E+00 0.  1.
         12    1    3    3    0    0 -0.14970393785E+02  0.90966254718E+01  0.23659108517E+01  0.17676504722E+02  0.00000000000E+00 0. -1.
         13    1    5    5    0    0  0.10680132595E+02  0.14779159976E+00  0.24080453008E+02  0.26343031178E+02  0.00000000000E+00 0. -1.
        -14    1    5    5    0    0 -0.15033143995E+03 -0.36573872887E+02  0.39354942222E+03  0.42286917332E+03  0.00000000000E+00 0.  1.
          5    1    4    4  501    0  0.67476146135E+02  0.65266617699E+02 -0.55124030990E+02  0.10894444858E+03  0.41800000000E+01 0.  1.
         -5    1    4    4    0  501  0.70310981944E+02  0.64780501838E+02  0.70060242689E+02  0.11860041149E+03  0.41800000000E+01 0.  1.
</event>
<event>
11    1  0.8453735E-009  0.1570144E+03  0.7561462E-02  0.1089919E+00
         22   -1    0    0    0    0  0.00000000000E+00  0.00000000000E+00  0.56626714682E+03  0.56626714682E+03  0.00000000000E+00 0.  1.
         22   -1    0    0    0    0 -0.00000000000E+00 -0.00000000000E+00 -0.64982471739E+03  0.64982471739E+03  0.00000000000E+00 0. -1.
         24    2    1    2    0    0 -0.40296624926E+02  0.80222334262E+02 -0.45774224664E+03  0.47265685061E+03  0.76269870687E+02 0.  0.
         25    2    1    2    0    0  0.48497398267E+02 -0.11482264694E+03 -0.13799550866E+03  0.22411714575E+03  0.12509794852E+03 0.  0.
        -24    2    1    2    0    0 -0.82007733410E+01  0.34600312674E+02  0.51218018472E+03  0.51931786785E+03  0.78090152572E+02 0.  0.
        -13    1    3    3    0    0 -0.10239372397E+02  0.19775253320E+02 -0.20610193085E+02  0.30342798980E+02  0.00000000000E+00 0.  1.
         14    1    3    3    0    0 -0.30057252529E+02  0.60447080942E+02 -0.43713205355E+03  0.44231405163E+03  0.00000000000E+00 0. -1.
         11    1    5    5    0    0 -0.24641708621E+02  0.37875211799E+02  0.14781398243E+03  0.15456622812E+03  0.00000000000E+00 0. -1.
        -12    1    5    5    0    0  0.16440935280E+02 -0.32748991250E+01  0.36436620228E+03  0.36475163973E+03  0.00000000000E+00 0.  1.
          5    1    4    4  501    0  0.67399511556E+02 -0.93665581088E+02 -0.15305438723E+03  0.19172650596E+03  0.41800000000E+01 0.  1.
         -5    1    4    4    0  501 -0.18902113289E+02 -0.21157065849E+02  0.15058878573E+02  0.32390639790E+02  0.41800000000E+01 0.  1.
</event>
<event>
11    1  0.8453735E-009  0.1303323E+03  0.7561462E-02  0.1118861E+00
         22   -1    0    0    0    0  0.00000000000E+00  0.00000000000E+00  0.35030398618E+04  0.35030398618E+04  0.00000000000E+00 0.  1.
         22   -1    0    0    0    0 -0.00000000000E+00 -0.00000000000E+00 -0.34787405844E+02  0.34787405844E+02  0.00000000000E+00 0. -1.
        -24    2    1    2    0    0  0.21413114001E+02  0.22138463848E+01  0.37806858874E+02  0.90559812548E+02  0.79424797789E+02 0.  0.
         25    2    1    2    0    0 -0.55421204584E+02 -0.98406563275E+01  0.60066488572E+03  0.61612918509E+03  0.12509404199E+03 0.  0.
         24    2    1    2    0    0  0.34008090583E+02  0.76268099427E+01  0.28297807113E+04  0.28311382700E+04  0.80438243877E+02 0.  0.
        -13    1    5    5    0    0  0.28053624853E+02  0.99618224277E+01  0.28133365495E+04  0.28134940527E+04  0.00000000000E+00 0.  1.
         14    1    5    5    0    0  0.59544657299E+01 -0.23350124851E+01  0.16444161811E+02  0.17644217271E+02  0.00000000000E+00 0. -1.
         13    1    3    3    0    0  0.82170456061E+01  0.37551343466E+02  0.19086729570E+01  0.38487222127E+02  0.00000000000E+00 0. -1.
        -14    1    3    3    0    0  0.13196068395E+02 -0.35337497081E+02  0.35898185917E+02  0.52072590421E+02  0.00000000000E+00 0.  1.
          5    1    4    4  501    0  0.28730151236E+02  0.26050013354E+02  0.27786844122E+03  0.28059288625E+03  0.41800000000E+01 0. -1.
         -5    1    4    4    0  501 -0.84151355820E+02 -0.35890669682E+02  0.32279644450E+03  0.33553629884E+03  0.41800000000E+01 0. -1.
</event>
<event>
11    1  0.8453735E-009  0.1270406E+03  0.7561462E-02  0.1122959E+00
         22   -1    0    0    0    0  0.00000000000E+00  0.00000000000E+00  0.40653261341E+03  0.40653261341E+03  0.00000000000E+00 0.  1.
         22   -1    0    0    0    0 -0.00000000000E+00 -0.00000000000E+00 -0.23374268932E+03  0.23374268932E+03  0.00000000000E+00 0.  1.
         24    2    1    2    0    0  0.54059009436E+01  0.22464374257E+02 -0.17565918805E+03  0.19498228586E+03  0.81412957060E+02 0.  0.
         25    2    1    2    0    0 -0.88563084470E+01 -0.11489359532E+02  0.49055225375E+02  0.13514578344E+03  0.12509007979E+03 0.  0.
        -24    2    1    2    0    0  0.34504075035E+01 -0.10975014725E+02  0.29939388676E+03  0.31014723344E+03  0.80138946350E+02 0.  0.
        -11    1    3    3    0    0  0.90226951195E+01  0.52733305627E+02 -0.99978523644E+02  0.11339274994E+03  0.00000000000E+00 0.  1.
         12    1    3    3    0    0 -0.36167941759E+01 -0.30268931370E+02 -0.75680664402E+02  0.81589535915E+02  0.00000000000E+00 0. -1.
         11    1    5    5    0    0  0.13625665169E+02 -0.42925294277E+02  0.13329468428E+03  0.14069723699E+03  0.00000000000E+00 0. -1.
        -12    1    5    5    0    0 -0.10175257665E+02  0.31950279552E+02  0.16609920248E+03  0.16944999645E+03  0.00000000000E+00 0.  1.
          5    1    4    4  501    0 -0.40899186118E+02 -0.45554551148E+02  0.61180664639E+02  0.86651639806E+02  0.41800000000E+01 0.  1.
         -5    1    4    4    0  501  0.32042877671E+02  0.34065191616E+02 -0.12125439264E+02  0.48494143632E+02  0.41800000000E+01 0.  1.
</event>
<event>
11    1  0.8453735E-009  0.1367229E+03  0.7561462E-02  0.1111274E+00
         22   -1    0    0    0    0  0.00000000000E+00  0.00000000000E+00  0.10226714330E+04  0.10226714330E+04  0.00000000000E+00 0. -1.
         22   -1    0    0    0    0 -0.00000000000E+00 -0.00000000000E+00 -0.18105016083E+03  0.18105016083E+03  0.00000000000E+00 0. -1.
        -24    2    1    2    0    0  0.40282474589E+02  0.30546379628E+02 -0.11039025726E+03  0.14519614336E+03  0.79625071945E+02 0.  0.
         25    2    1    2    0    0 -0.67721807873E+02 -0.51659448405E+02  0.61630602504E+02  0.16340211349E+03  0.12508787973E+03 0.  0.
         24    2    1    2    0    0  0.27439333285E+02  0.21113068777E+02  0.89038092697E+03  0.89512333702E+03  0.85257930364E+02 0.  0.
        -13    1    5    5    0    0 -0.18310683997E+02 -0.13010454126E+02  0.91903461626E+02  0.94608664105E+02  0.00000000000E+00 0.  1.
         14    1    5    5    0    0  0.45750017282E+02  0.34123522902E+02  0.79847746534E+03  0.80051467292E+03  0.00000000000E+00 0. -1.
         11    1    3    3    0    0  0.62859833861E+02  0.21480682449E+02 -0.96581631944E+02  0.11722111610E+03  0.00000000000E+00 0. -1.
        -12    1    3    3    0    0 -0.22577359272E+02  0.90656971795E+01 -0.13808625316E+02  0.27975027259E+02  0.00000000000E+00 0.  1.
          5    1    4    4  501    0 -0.45777075029E+00 -0.70747419291E+02  0.11850559336E+01  0.70882181456E+02  0.41800000000E+01 0. -1.
         -5    1    4    4    0  501 -0.67264037123E+02  0.19087970886E+02  0.60445546570E+02  0.92519932030E+02  0.41800000000E+01 0. -1.
</event>
<event>
11    1  0.8453735E-009  0.1284687E+03  0.7561462E-02  0.1121165E+00
         22   -1    0    0    0    0  0.00000000000E+00  0.00000000000E+00  0.87982273742E+03  0.87982273742E+03  0.00000000000E+00 0. -1.
         22   -1    0    0    0    0 -0.00000000000E+00 -0.00000000000E+00 -0.81845467373E+02  0.81845467373E+02  0.00000000000E+00 0. -1.
         24    2    1    2    0    0 -0.26167583156E+02  0.17283980551E+02 -0.36504354496E+02  0.93705468371E+02  0.80403162336E+02 0.  0.
         25    2    1    2    0    0  0.46432402002E+02 -0.15350368041E+02  0.39361922125E+03  0.41590281724E+03  0.12508980893E+03 0.  0.
        -24    2    1    2    0    0 -0.20264818846E+02 -0.19336125096E+01  0.44086240329E+03  0.45205991918E+03  0.97898468587E+02 0.  0.
        -11    1    3    3    0    0 -0.15397554136E+02 -0.32055930051E+02 -0.18531776572E+02  0.40101048212E+02  0.00000000000E+00 0.  1.
         12    1    3    3    0    0 -0.10770029020E+02  0.49339910602E+02 -0.17972577924E+02  0.53604420159E+02  0.00000000000E+00 0. -1.
         11    1    5    5    0    0  0.33750310899E+02 -0.12186342891E+02  0.27479974674E+03  0.27713262393E+03  0.00000000000E+00 0. -1.
        -12    1    5    5    0    0 -0.54015129744E+02  0.10252730382E+02  0.16606265656E+03  0.17492729525E+03  0.00000000000E+00 0.  1.
          5    1    4    4  501    0 -0.27947693939E+02  0.86018962939E+01  0.23910779069E+02  0.38003473157E+02  0.41800000000E+01 0. -1.
         -5    1    4    4    0  501  0.74380095941E+02 -0.23952264335E+02  0.36970844218E+03  0.37789934408E+03  0.41800000000E+01 0. -1.
</event>
<event>
11    1  0.8453735E-009  0.1360980E+03  0.7561462E-02  0.1111996E+00
         22   -1    0    0    0    0  0.00000000000E+00  0.00000000000E+00  0.25067192760E+03  0.25067192760E+03  0.00000000000E+00 0.  1.
         22   -1    0    0    0    0 -0.00000000000E+00 -0.00000000000E+00 -0.95399724401E+03  0.95399724401E+03  0.00000000000E+00 0. -1.
        -24    2    1    2    0    0  0.15085667958E+02  0.45654992498E+01 -0.75559130322E+03  0.76006771121E+03  0.80847306425E+02 0.  0.
         25    2    1    2    0    0 -0.67781481884E+02 -0.73812567945E+01 -0.15837533110E+03  0.21303181633E+03  0.12510394489E+03 0.  0.
         24    2    1    2    0    0  0.52695813926E+02  0.28157575447E+01  0.21064131792E+03  0.23156964407E+03  0.80436048776E+02 0.  0.
        -13    1    5    5    0    0  0.59500415521E+02  0.25830380891E+02  0.18679700084E+03  0.19773878615E+03  0.00000000000E+00 0.  1.
         14    1    5    5    0    0 -0.68046015946E+01 -0.23014623346E+02  0.23844317080E+02  0.33830857921E+02  0.00000000000E+00 0. -1.
         13    1    3    3    0    0  0.55541254670E+01  0.15281215250E+02 -0.73380292535E+03  0.73398303598E+03  0.00000000000E+00 0. -1.
        -14    1    3    3    0    0  0.95315424909E+01 -0.10715716001E+02 -0.21788377871E+02  0.26084675231E+02  0.00000000000E+00 0.  1.
          5    1    4    4  501    0  0.29206904191E+02  0.11675535063E+02 -0.82385315235E+02  0.88284618919E+02  0.41800000000E+01 0.  1.
         -5    1    4    4    0  501 -0.96988386075E+02 -0.19056791858E+02 -0.75990015867E+02  0.12474719741E+03  0.41800000000E+01 0.  1.
</event>
<event>
11    1  0.8453735E-009  0.1712665E+03  0.7561462E-02  0.1076935E+00
         22   -1    0    0    0    0  0.00000000000E+00  0.00000000000E+00  0.19601811758E+03  0.19601811758E+03  0.00000000000E+00 0.  1.
         22   -1    0    0    0    0 -0.00000000000E+00 -0.00000000000E+00 -0.10336464931E+04  0.10336464931E+04  0.00000000000E+00 0. -1.
        -24    2    1    2    0    0  0.10503786934E+03 -0.39230024643E+02 -0.57922744431E+03  0.59552353355E+03  0.81067243351E+02 0.  0.
         25    2    1    2    0    0 -0.13502799937E+03 -0.26310940523E+01 -0.41316968378E+03  0.45232015874E+03  0.12507939534E+03 0.  0.
         24    2    1    2    0    0  0.29990130033E+02  0.41861118695E+02  0.15476875252E+03  0.18182091843E+03  0.80335038816E+02 0.  0.
        -13    1    5    5    0    0  0.20998223360E+02  0.65947008846E+02  0.12077758612E+03  0.13920186302E+03  0.00000000000E+00 0.  1.
         14    1    5    5    0    0  0.89919066731E+01 -0.24085890150E+02  0.33991166402E+02  0.42619055402E+02  0.00000000000E+00 0. -1.
         13    1    3    3    0    0  0.80022450106E+02 -0.49187789215E+02 -0.53895947728E+03  0.54708349388E+03  0.00000000000E+00 0. -1.
        -14    1    3    3    0    0  0.25015419232E+02  0.99577645719E+01 -0.40267967037E+02  0.48440039677E+02  0.00000000000E+00 0.  1.
          5    1    4    4  501    0 -0.70381989349E+02 -0.46552293778E+02 -0.31835399633E+03  0.32937437644E+03  0.41800000000E+01 0.  1.
         -5    1    4    4    0  501 -0.64646010021E+02  0.43921199726E+02 -0.94815687453E+02  0.12294578230E+03  0.41800000000E+01 0.  1.
</event>
<event>
11    1  0.8453735E-009  0.2804453E+03  0.7561462E-02  0.1008824E+00
         22   -1    0    0    0    0  0.00000000000E+00  0.00000000000E+00  0.19777831850E+04  0.19777831850E+04  0.00000000000E+00 0.  1.
         22   -1    0    0    0    0 -0.00000000000E+00 -0.00000000000E+00 -0.52228653118E+03  0.52228653118E+03  0.00000000000E+00 0. -1.
        -24    2    1    2    0    0  0.50126978106E+02 -0.15059472558E+01 -0.41932867218E+03  0.43097021858E+03  0.85929111325E+02 0.  0.
         25    2    1    2    0    0 -0.21360861946E+03 -0.18456540689E+03  0.18632444128E+03  0.36063471083E+03  0.12509022947E+03 0.  0.
         24    2    1    2    0    0  0.16348164136E+03  0.18607135414E+03  0.16885008847E+04  0.17084647868E+04  0.80423218436E+02 0.  0.
        -11    1    5    5    0    0  0.17107658369E+03  0.17992727140E+03  0.15642552686E+04  0.15838357131E+04  0.00000000000E+00 0.  1.
         12    1    5    5    0    0 -0.75949423311E+01  0.61440827429E+01  0.12424561608E+03  0.12462907372E+03  0.00000000000E+00 0. -1.
         13    1    3    3    0    0  0.10429804515E+01 -0.26648017014E+02 -0.27778876534E+03  0.27906594699E+03  0.00000000000E+00 0. -1.
        -14    1    3    3    0    0  0.49083997655E+02  0.25142069759E+02 -0.14153990684E+03  0.15190427159E+03  0.00000000000E+00 0.  1.
          5    1    4    4  501    0 -0.16399556834E+02 -0.80407380012E+02  0.75362133035E+02  0.11149536188E+03  0.41800000000E+01 0. -1.
         -5    1    4    4    0  501 -0.19720906263E+03 -0.10415802687E+03  0.11096230825E+03  0.24913934896E+03  0.41800000000E+01 0. -1.
</event>
<event>
11    1  0.8453735E-009  0.1409921E+03  0.7561462E-02  0.1106456E+00
         22   -1    0    0    0    0  0.00000000000E+00  0.00000000000E+00  0.21106589844E+04  0.21106589844E+04  0.00000000000E+00 0. -1.
         22   -1    0    0    0    0 -0.00000000000E+00 -0.00000000000E+00 -0.28028907951E+03  0.28028907951E+03  0.00000000000E+00 0.  1.
        -24    2    1    2    0    0 -0.20983288519E+02 -0.58993034267E+02 -0.22861777895E+03  0.25049572465E+03  0.81003350077E+02 0.  0.
         25    2    1    2    0    0  0.36764080188E+02  0.94473204918E+02  0.12351683783E+03  0.20293106980E+03  0.12509126996E+03 0.  0.
         24    2    1    2    0    0 -0.15780791670E+02 -0.35480170651E+02  0.19354708460E+04  0.19375212695E+04  0.80208465864E+02 0.  0.
        -13    1    5    5    0    0 -0.32675963785E+02 -0.39466154553E+02  0.67898080617E+03  0.68091132397E+03  0.00000000000E+00 0.  1.
         14    1    5    5    0    0  0.16895172115E+02  0.39859839023E+01  0.12564900398E+04  0.12566099455E+04  0.00000000000E+00 0. -1.
         13    1    3    3    0    0  0.51668553356E+01 -0.21647465302E+02 -0.57140261312E+01  0.22977363702E+02  0.00000000000E+00 0. -1.
        -14    1    3    3    0    0 -0.26150143854E+02 -0.37345568965E+02 -0.22290375282E+03  0.22751836094E+03  0.00000000000E+00 0.  1.
          5    1    4    4  501    0 -0.44301210793E+02  0.14336938196E+02  0.40509763711E+02  0.61859990547E+02  0.41800000000E+01 0. -1.
         -5    1    4    4    0  501  0.81065290981E+02  0.80136266722E+02  0.83007074122E+02  0.14107107925E+03  0.41800000000E+01 0. -1.
</event>
<event>
11    1  0.8453735E-009  0.1381990E+03  0.7561462E-02  0.1109586E+00
         22   -1    0    0    0    0  0.00000000000E+00  0.00000000000E+00  0.99259344620E+02  0.99259344620E+02  0.00000000000E+00 0.  1.
         22   -1    0    0    0    0 -0.00000000000E+00 -0.00000000000E+00 -0.24734214543E+04  0.24734214543E+04  0.00000000000E+00 0.  1.
        -24    2    1    2    0    0 -0.16845391627E+01  0.37654431700E+02 -0.22551716870E+04  0.22569113690E+04  0.80180396062E+02 0.  0.
         25    2    1    2    0    0  0.10602864039E+02 -0.89572614311E+02 -0.14943990687E+03  0.21474372572E+03  0.12508760134E+03 0.  0.
         24    2    1    2    0    0 -0.89183248761E+01  0.51918182611E+02  0.30449484158E+02  0.10102570421E+03  0.80647303865E+02 0.  0.
        -13    1    5    5    0    0 -0.33050410286E+02  0.58349634644E+02  0.34993995432E+02  0.75641187189E+02  0.00000000000E+00 0.  1.
         14    1    5    5    0    0  0.24132085410E+02 -0.64314520329E+01 -0.45445112737E+01  0.25384517017E+02  0.00000000000E+00 0. -1.
         13    1    3    3    0    0  0.56095794497E+01  0.54512290232E+02 -0.93046539260E+03  0.93207773495E+03  0.00000000000E+00 0. -1.
        -14    1    3    3    0    0 -0.72941186124E+01 -0.16857858532E+02 -0.13247062944E+04  0.13248336341E+04  0.00000000000E+00 0.  1.
          5    1    4    4  501    0 -0.55390423777E+02 -0.59542311150E+02 -0.74087082935E+02  0.11008975484E+03  0.41800000000E+01 0. -1.
         -5    1    4    4    0  501  0.65993287816E+02 -0.30030303161E+02 -0.75352823940E+02  0.10465397088E+03  0.41800000000E+01 0. -1.
</event>
<event>
11    1  0.8453735E-009  0.1468036E+03  0.7561462E-02  0.1100190E+00
         22   -1    0    0    0    0  0.00000000000E+00  0.00000000000E+00  0.40333748155E+03  0.40333748155E+03  0.00000000000E+00 0. -1.
         22   -1    0    0    0    0 -0.00000000000E+00 -0.00000000000E+00 -0.49912419973E+03  0.49912419973E+03  0.00000000000E+00 0.  1.
        -24    2    1    2    0    0  0.20913521002E+02 -0.17772719782E+02 -0.43496305233E+03  0.44136050342E+03  0.69663420518E+02 0.  0.
         25    2    1    2    0    0  0.54244839988E+02 -0.13451950092E+02  0.43051986705E+02  0.14361908784E+03  0.12509800640E+03 0.  0.
         24    2    1    2    0    0 -0.75158360991E+02  0.31224669874E+02  0.29612434744E+03  0.31748209002E+03  0.80507695914E+02 0.  0.
        -11    1    5    5    0    0 -0.51522003803E+02 -0.18532516844E+02  0.10292118700E+03  0.11657933689E+03  0.00000000000E+00 0.  1.
         12    1    5    5    0    0 -0.23636357188E+02  0.49757186718E+02  0.19320316044E+03  0.20090275313E+03  0.00000000000E+00 0. -1.
         13    1    3    3    0    0  0.51844750152E+01 -0.33370592460E+02 -0.97722949331E+02  0.10339366542E+03  0.00000000000E+00 0. -1.
        -14    1    3    3    0    0  0.15729045987E+02  0.15597872678E+02 -0.33724010300E+03  0.33796683800E+03  0.00000000000E+00 0.  1.
          5    1    4    4  501    0  0.14614738028E+02 -0.59443430934E+02  0.54063310607E+02  0.81776683735E+02  0.41800000000E+01 0. -1.
         -5    1    4    4    0  501  0.39630101961E+02  0.45991480842E+02 -0.11011323902E+02  0.61842404105E+02  0.41800000000E+01 0. -1.
</event>
<event>
11    1  0.8453735E-009  0.1311219E+03  0.7561462E-02  0.1117898E+00
         22   -1    0    0    0    0  0.00000000000E+00  0.00000000000E+00  0.10989855686E+03  0.10989855686E+03  0.00000000000E+00 0.  1.
         22   -1    0    0    0    0 -0.00000000000E+00 -0.00000000000E+00 -0.11565944834E+04  0.11565944834E+04  0.00000000000E+00 0. -1.
        -24    2    1    2    0    0 -0.29215662569E+02 -0.23431669220E+02 -0.90860226448E+03  0.91292483089E+03  0.80442984707E+02 0.  0.
         25    2    1    2    0    0  0.42352376591E+02  0.39375580608E+02 -0.20483509796E+03  0.24687445699E+03  0.12508165335E+03 0.  0.
         24    2    1    2    0    0 -0.13136714022E+02 -0.15943911388E+02  0.66741435941E+02  0.10669375234E+03  0.80637187153E+02 0.  0.
        -11    1    5    5    0    0  0.20405433265E+02 -0.36801079215E+02  0.44992139733E+02  0.61603520807E+02  0.00000000000E+00 0.  1.
         12    1    5    5    0    0 -0.33542147287E+02  0.20857167827E+02  0.21749296209E+02  0.45090231536E+02  0.00000000000E+00 0. -1.
         11    1    3    3    0    0  0.20453237095E+02  0.93710757136E+01 -0.43735179794E+03  0.43793007105E+03  0.00000000000E+00 0. -1.
        -12    1    3    3    0    0 -0.49668899663E+02 -0.32802744934E+02 -0.47125046654E+03  0.47499475984E+03  0.00000000000E+00 0.  1.
          5    1    4    4  501    0  0.84009245267E+02  0.44907261834E+02 -0.13536533706E+03  0.16557615267E+03  0.41800000000E+01 0. -1.
         -5    1    4    4    0  501 -0.41656868676E+02 -0.55316812260E+01 -0.69469760907E+02  0.81298304321E+02  0.41800000000E+01 0. -1.
</event>
<event>
11    1  0.8453735E-009  0.2604904E+03  0.7561462E-02  0.1018455E+00
         22   -1    0    0    0    0  0.00000000000E+00  0.00000000000E+00  0.16124888964E+04  0.16124888964E+04  0.00000000000E+00 0.  1.
         22   -1    0    0    0    0 -0.00000000000E+00 -0.00000000000E+00 -0.66765660284E+03  0.66765660284E+03  0.00000000000E+00 0.  1.
         24    2    1    2    0    0  0.18717766258E+03  0.14787012914E+03 -0.52646874657E+03  0.58243270602E+03  0.71815482075E+02 0.  0.
         25    2    1    2    0    0 -0.16750744185E+03 -0.88709396668E+02  0.42570590514E+01  0.22714406294E+03  0.12509277614E+03 0.  0.
        -24    2    1    2    0    0 -0.19670220731E+02 -0.59160732475E+02  0.14670439811E+04  0.14705687303E+04  0.80420384169E+02 0.  0.
        -11    1    3    3    0    0  0.19286237966E+03  0.14386934142E+03 -0.51985314259E+03  0.57283642931E+03  0.00000000000E+00 0.  1.
         12    1    3    3    0    0 -0.56847170758E+01  0.40007877223E+01 -0.66156039816E+01  0.95962767088E+01  0.00000000000E+00 0. -1.
         13    1    5    5    0    0 -0.13956793062E+02  0.16585804676E+02  0.18290819585E+03  0.18418818936E+03  0.00000000000E+00 0. -1.
        -14    1    5    5    0    0 -0.57134276687E+01 -0.75746537151E+02  0.12841357853E+04  0.12863805409E+04  0.00000000000E+00 0.  1.
          5    1    4    4  501    0 -0.10131201972E+03 -0.41447209715E+01 -0.42394819350E+02  0.10998225839E+03  0.41800000000E+01 0.  1.
         -5    1    4    4    0  501 -0.66195422128E+02 -0.84564675696E+02  0.46651878401E+02  0.11716180455E+03  0.41800000000E+01 0.  1.
</event>
<event>
11    1  0.8453735E-009  0.2461526E+03  0.7561462E-02  0.1025969E+00
         22   -1    0    0    0    0  0.00000000000E+00  0.00000000000E+00  0.10115420530E+04  0.10115420530E+04  0.00000000000E+00 0. -1.
         22   -1    0    0    0    0 -0.00000000000E+00 -0.00000000000E+00 -0.27123106032E+03  0.27123106032E+03  0.00000000000E+00 0.  1.
        -24    2    1    2    0    0 -0.10992357587E+03  0.10420829120E+03 -0.77754964043E+02  0.18801561467E+03  0.79758864329E+02 0.  0.
         25    2    1    2    0    0  0.25666496789E+03 -0.23180973887E+03  0.15414898126E+03  0.39877544307E+03  0.12508910742E+03 0.  0.
         24    2    1    2    0    0 -0.14674139202E+03  0.12760144767E+03  0.66391697542E+03  0.69598205554E+03  0.76092744682E+02 0.  0.
        -13    1    5    5    0    0 -0.21668715529E+01 -0.63823349110E+01  0.55199368765E+01  0.87120166645E+01  0.00000000000E+00 0.  1.
         14    1    5    5    0    0 -0.14457452047E+03  0.13398378258E+03  0.65839703855E+03  0.68727003887E+03  0.00000000000E+00 0. -1.
         11    1    3    3    0    0 -0.66780161733E+02  0.31285141991E+02 -0.10950881329E+01  0.73753300458E+02  0.00000000000E+00 0. -1.
        -12    1    3    3    0    0 -0.43143414134E+02  0.72923149211E+02 -0.76659875910E+02  0.11426231421E+03  0.00000000000E+00 0.  1.
          5    1    4    4  501    0  0.23059505216E+03 -0.18191518665E+03  0.17096639457E+03  0.33987379082E+03  0.41800000000E+01 0.  1.
         -5    1    4    4    0  501  0.26069915732E+02 -0.49894552225E+02 -0.16817413308E+02  0.58901652255E+02  0.41800000000E+01 0.  1.
</event>
<event>
11    1  0.8453735E-009  0.1766183E+03  0.7561462E-02  0.1072412E+00
         22   -1    0    0    0    0  0.00000000000E+00  0.00000000000E+00  0.85591870676E+03  0.85591870676E+03  0.00000000000E+00 0.  1.
         22   -1    0    0    0    0 -0.00000000000E+00 -0.00000000000E+00 -0.19952238100E+03  0.19952238100E+03  0.00000000000E+00 0. -1.
        -24    2    1    2    0    0 -0.26240830957E+02 -0.38814639710E+02 -0.15341342373E+03  0.17563542236E+03  0.71532968208E+02 0.  0.
         25    2    1    2    0    0 -0.97712941129E+02 -0.18916844017E+02  0.23792537636E+03  0.28661992162E+03  0.12504730665E+03 0.  0.
         24    2    1    2    0    0  0.12395377209E+03  0.57731483726E+02  0.57188437314E+03  0.59318574378E+03  0.78231250476E+02 0.  0.
        -11    1    5    5    0    0  0.11775203558E+03  0.51095484477E+02  0.38014274048E+03  0.40122910358E+03  0.00000000000E+00 0.  1.
         12    1    5    5    0    0  0.62017365034E+01  0.66359992498E+01  0.19174163266E+03  0.19195664020E+03  0.00000000000E+00 0. -1.
         11    1    3    3    0    0 -0.32248011796E+02 -0.39893804729E+02 -0.15917831204E+03  0.16723990237E+03  0.00000000000E+00 0. -1.
        -12    1    3    3    0    0  0.60071808387E+01  0.10791650199E+01  0.57648883046E+01  0.83955199918E+01  0.00000000000E+00 0.  1.
          5    1    4    4  501    0 -0.19009230963E+02 -0.65019009934E+02  0.88888113638E+02  0.11183645050E+03  0.41800000000E+01 0.  1.
         -5    1    4    4    0  501 -0.78703710166E+02  0.46102165917E+02  0.14903726272E+03  0.17478347112E+03  0.41800000000E+01 0.  1.
</event>
<event>
11    1  0.8453735E-009  0.1652108E+03  0.7561462E-02  0.1082276E+00
         22   -1    0    0    0    0  0.00000000000E+00  0.00000000000E+00  0.45913263984E+03  0.45913263984E+03  0.00000000000E+00 0. -1.
         22   -1    0    0    0    0 -0.00000000000E+00 -0.00000000000E+00 -0.24154615752E+04  0.24154615752E+04  0.00000000000E+00 0.  1.
        -24    2    1    2    0    0 -0.10608621732E+03  0.28877084087E+02 -0.21604409773E+04  0.21647183871E+04  0.80076886679E+02 0.  0.
         25    2    1    2    0    0  0.84785943740E+02 -0.16127394556E+02 -0.22558762631E+03  0.27200010188E+03  0.12508208970E+03 0.  0.
         24    2    1    2    0    0  0.21300273576E+02 -0.12749689531E+02  0.42969966822E+03  0.43787572604E+03  0.80480372417E+02 0.  0.
        -13    1    5    5    0    0 -0.72127367346E+01 -0.27147424842E+02  0.54443494282E+02  0.61262552317E+02  0.00000000000E+00 0.  1.
         14    1    5    5    0    0  0.28513010310E+02  0.14397735311E+02  0.37525617394E+03  0.37661317372E+03  0.00000000000E+00 0. -1.
         13    1    3    3    0    0  0.12025959272E+02 -0.21221295734E+01 -0.11798349834E+03  0.11861379773E+03  0.00000000000E+00 0. -1.
        -14    1    3    3    0    0 -0.11811217659E+03  0.30999213660E+02 -0.20424574790E+04  0.20461045894E+04  0.00000000000E+00 0.  1.
          5    1    4    4  501    0 -0.66332930560E+01  0.18648531970E+02  0.55560100567E+01  0.20978798086E+02  0.41800000000E+01 0.  1.
         -5    1    4    4    0  501  0.91419236796E+02 -0.34775926526E+02 -0.23114363637E+03  0.25102130379E+03  0.41800000000E+01 0.  1.
</event>
<event>
11    1  0.8453735E-009  0.1277250E+03  0.7561462E-02  0.1122096E+00
         22   -1    0    0    0    0  0.00000000000E+00  0.00000000000E+00  0.20422432858E+04  0.20422432858E+04  0.00000000000E+00 0. -1.
         22   -1    0    0    0    0 -0.00000000000E+00 -0.00000000000E+00 -0.10861619736E+03  0.10861619736E+03  0.00000000000E+00 0.  1.
        -24    2    1    2    0    0  0.50701660744E+02 -0.35580288803E+02 -0.75652781645E+02  0.12632417781E+03  0.79986493700E+02 0.  0.
         25    2    1    2    0    0 -0.13033097937E+02  0.35801270726E+02  0.76551508428E+03  0.77660316594E+03  0.12509012931E+03 0.  0.
         24    2    1    2    0    0 -0.37668562806E+02 -0.22098192350E+00  0.12437647858E+04  0.12479321395E+04  0.94682695023E+02 0.  0.
        -13    1    5    5    0    0 -0.51205120234E+02  0.20425104627E+02  0.39720237277E+03  0.40100981805E+03  0.00000000000E+00 0.  1.
         14    1    5    5    0    0  0.13536557427E+02 -0.20646086551E+02  0.84656241307E+03  0.84692232141E+03  0.00000000000E+00 0. -1.
         11    1    3    3    0    0 -0.46385696196E+01 -0.97765744800E+01  0.14097871479E+02  0.17772105022E+02  0.00000000000E+00 0. -1.
        -12    1    3    3    0    0  0.55340230364E+02 -0.25803714323E+02 -0.89750653124E+02  0.10855207278E+03  0.00000000000E+00 0.  1.
          5    1    4    4  501    0  0.22379499394E+02 -0.33640525357E+02  0.12709721313E+03  0.13343050972E+03  0.41800000000E+01 0.  1.
         -5    1    4    4    0  501 -0.35412597332E+02  0.69441796083E+02  0.63841787115E+03  0.64317265621E+03  0.41800000000E+01 0.  1.
</event>
<event>
11    1  0.8453735E-009  0.1454296E+03  0.7561462E-02  0.1101642E+00
         22   -1    0    0    0    0  0.00000000000E+00  0.00000000000E+00  0.12018058853E+03  0.12018058853E+03  0.00000000000E+00 0.  1.
         22   -1    0    0    0    0 -0.00000000000E+00 -0.00000000000E+00 -0.13284180618E+04  0.13284180618E+04  0.00000000000E+00 0.  1.
         24    2    1    2    0    0 -0.28938362532E+02  0.25782282700E+02 -0.10519112885E+04  0.10556527460E+04  0.79894970884E+02 0.  0.
         25    2    1    2    0    0 -0.27200561416E+02  0.29295281512E+02 -0.22519070254E+03  0.26068447054E+03  0.12508979419E+03 0.  0.
        -24    2    1    2    0    0  0.56138923948E+02 -0.55077564212E+02  0.68864517708E+02  0.13226143383E+03  0.81028687624E+02 0.  0.
        -11    1    3    3    0    0  0.17132494531E+02 -0.33359726464E+01 -0.62924939121E+03  0.62949141965E+03  0.00000000000E+00 0.  1.
         12    1    3    3    0    0 -0.46070857063E+02  0.29118255346E+02 -0.42266189726E+03  0.42616132633E+03  0.00000000000E+00 0. -1.
         11    1    5    5    0    0  0.72218680806E+02 -0.30742561555E+02  0.30823079828E+02  0.84324997471E+02  0.00000000000E+00 0. -1.
        -12    1    5    5    0    0 -0.16079756858E+02 -0.24335002656E+02  0.38041437880E+02  0.47936436359E+02  0.00000000000E+00 0.  1.
          5    1    4    4  501    0  0.48992606207E+02  0.22659366818E+02 -0.10554712988E+03  0.11862289574E+03  0.41800000000E+01 0.  1.
         -5    1    4    4    0  501 -0.76193167624E+02  0.66359146941E+01 -0.11964357265E+03  0.14206157480E+03  0.41800000000E+01 0.  1.
</event>
<event>
11    1  0.8453735E-009  0.1394443E+03  0.7561462E-02  0.1108181E+00
         22   -1    0    0    0    0  0.00000000000E+00  0.00000000000E+00  0.64995537896E+03  0.64995537896E+03  0.00000000000E+00 0. -1.
         22   -1    0    0    0    0 -0.00000000000E+00 -0.00000000000E+00 -0.59686603820E+03  0.59686603820E+03  0.00000000000E+00 0.  1.
         24    2    1    2    0    0  0.30504426236E+02 -0.58625576673E+02 -0.56520243028E+03  0.57502920889E+03  0.82688122664E+02 0.  0.
         25    2    1    2    0    0 -0.80969985376E+01 -0.18828295711E+02  0.19423264412E+03  0.23193595768E+03  0.12509157574E+03 0.  0.
        -24    2    1    2    0    0 -0.22407427698E+02  0.77453872384E+02  0.42405912693E+03  0.43985625058E+03  0.84535098534E+02 0.  0.
        -11    1    3    3    0    0  0.49022131238E+02 -0.57272225306E+02 -0.30550904894E+03  0.31467293517E+03  0.00000000000E+00 0.  1.
         12    1    3    3    0    0 -0.18517705002E+02 -0.13533513671E+01 -0.25969338134E+03  0.26035627373E+03  0.00000000000E+00 0. -1.
         13    1    5    5    0    0 -0.10549507176E+02  0.94609555173E+02  0.36552725139E+03  0.37772004387E+03  0.00000000000E+00 0. -1.
        -14    1    5    5    0    0 -0.11857920522E+02 -0.17155682788E+02  0.58531875538E+02  0.62136206716E+02  0.00000000000E+00 0.  1.
          5    1    4    4  501    0 -0.57777825646E+02 -0.40713281887E+02  0.91822253454E+02  0.11595105471E+03  0.41800000000E+01 0.  1.
         -5    1    4    4    0  501  0.49680827109E+02  0.21884986175E+02  0.10241039066E+03  0.11598490297E+03  0.41800000000E+01 0.  1.
</event>
<event>
11    1  0.8453735E-009  0.1597996E+03  0.7561462E-02  0.1087266E+00
         22   -1    0    0    0    0  0.00000000000E+00  0.00000000000E+00  0.34069135229E+04  0.34069135229E+04  0.00000000000E+00 0. -1.
         22   -1    0    0    0    0 -0.00000000000E+00 -0.00000000000E+00 -0.32504635671E+03  0.32504635671E+03  0.00000000000E+00 0.  1.
         24    2    1    2    0    0 -0.10050829709E+03 -0.27199974399E+02 -0.27509444852E+03  0.30824979891E+03  0.92191249734E+02 0.  0.
         25    2    1    2    0    0  0.62374689785E+02 -0.15295622723E+02  0.11879318043E+03  0.18407405758E+03  0.12508749321E+03 0.  0.
        -24    2    1    2    0    0  0.38133607307E+02  0.42495597122E+02  0.32381684343E+04  0.32396360231E+04  0.79036104409E+02 0.  0.
        -13    1    3    3    0    0 -0.82080692734E+02 -0.59743014820E+02 -0.20730801983E+03  0.23083128693E+03  0.00000000000E+00 0.  1.
         14    1    3    3    0    0 -0.18427604358E+02  0.32543040421E+02 -0.67786428691E+02  0.77418511978E+02  0.00000000000E+00 0. -1.
         11    1    5    5    0    0  0.45446965417E+02  0.34234169341E+02  0.31750985313E+04  0.31756083021E+04  0.00000000000E+00 0. -1.
        -12    1    5    5    0    0 -0.73133581101E+01  0.82614277806E+01  0.63069902963E+02  0.64027720993E+02  0.00000000000E+00 0.  1.
          5    1    4    4  501    0  0.43618357876E+02 -0.75754548095E+01  0.14442832178E+03  0.15111902988E+03  0.41800000000E+01 0.  1.
         -5    1    4    4    0  501  0.18756331909E+02 -0.77201679137E+01 -0.25635141343E+02  0.32955027704E+02  0.41800000000E+01 0.  1.
</event>
<event>
11    1  0.8453735E-009  0.1974560E+03  0.7561462E-02  0.1056337E+00
         22   -1    0    0    0    0  0.00000000000E+00  0.00000000000E+00  0.64811850822E+03  0.64811850822E+03  0.00000000000E+00 0.  1.
         22   -1    0    0    0    0 -0.00000000000E+00 -0.00000000000E+00 -0.90526904788E+03  0.90526904788E+03  0.00000000000E+00 0. -1.
        -24    2    1    2    0    0  0.21513651907E+02  0.37154723734E+01 -0.63627555268E+03  0.64166749161E+03  0.80087133203E+02 0.  0.
         25    2    1    2    0    0 -0.40425095148E+02  0.14793295926E+03 -0.21518587410E+03  0.29235417765E+03  0.12509059127E+03 0.  0.
         24    2    1    2    0    0  0.18911443241E+02 -0.15164843164E+03  0.59431088712E+03  0.61936588683E+03  0.83986794891E+02 0.  0.
        -13    1    5    5    0    0  0.35221187796E+02 -0.14026898142E+03  0.42590755393E+03  0.44979235622E+03  0.00000000000E+00 0.  1.
         14    1    5    5    0    0 -0.16309744555E+02 -0.11379450220E+02  0.16840333319E+03  0.16957353061E+03  0.00000000000E+00 0. -1.
         11    1    3    3    0    0  0.36419961563E+02 -0.22538943140E+02 -0.51155366047E+03  0.51334351569E+03  0.00000000000E+00 0. -1.
        -12    1    3    3    0    0 -0.14906309657E+02  0.26254415514E+02 -0.12472189221E+03  0.12832397593E+03  0.00000000000E+00 0.  1.
          5    1    4    4  501    0  0.40411996378E+02  0.82414294336E+02 -0.12106367192E+03  0.15198398081E+03  0.41800000000E+01 0.  1.
         -5    1    4    4    0  501 -0.80837091526E+02  0.65518664927E+02 -0.94122202175E+02  0.14037019685E+03  0.41800000000E+01 0.  1.
</event>
<event>
11    1  0.8453735E-009  0.1366067E+03  0.7561462E-02  0.1111408E+00
         22   -1    0    0    0    0  0.00000000000E+00  0.00000000000E+00  0.68419842146E+03  0.68419842146E+03  0.00000000000E+00 0.  1.
         22   -1    0    0    0    0 -0.00000000000E+00 -0.00000000000E+00 -0.11630584952E+04  0.11630584952E+04  0.00000000000E+00 0.  1.
         24    2    1    2    0    0 -0.46059311042E+01  0.51990869528E+02 -0.86632046033E+03  0.87139138736E+03  0.78022720162E+02 0.  0.
         25    2    1    2    0    0 -0.14441723987E+02 -0.75650168374E+02 -0.27320465088E+03  0.31019438203E+03  0.12509301344E+03 0.  0.
        -24    2    1    2    0    0  0.19047655091E+02  0.23659298847E+02  0.66066503751E+03  0.66567114724E+03  0.75612227112E+02 0.  0.
        -13    1    3    3    0    0 -0.35566098749E+02  0.48732927807E+01 -0.26223935476E+03  0.26468504972E+03  0.00000000000E+00 0.  1.
         14    1    3    3    0    0  0.30960167645E+02  0.47117576747E+02 -0.60408110557E+03  0.60670633763E+03  0.00000000000E+00 0. -1.
         13    1    5    5    0    0 -0.19492306332E+02  0.40086506129E+01  0.55465614228E+02  0.58927528775E+02  0.00000000000E+00 0. -1.
        -14    1    5    5    0    0  0.38539961423E+02  0.19650648234E+02  0.60519942328E+03  0.60674361846E+03  0.00000000000E+00 0.  1.
          5    1    4    4  501    0 -0.39579231288E+02 -0.60157244266E+01 -0.20672077478E+03  0.21060307599E+03  0.41800000000E+01 0.  1.
         -5    1    4    4    0  501  0.25137507301E+02 -0.69634443948E+02 -0.66483876100E+02  0.99591306038E+02  0.41800000000E+01 0.  1.
</event>
<event>
11    1  0.8453735E-009  0.1416003E+03  0.7561462E-02  0.1105784E+00
         22   -1    0    0    0    0  0.00000000000E+00  0.00000000000E+00  0.34367807936E+03  0.34367807936E+03  0.00000000000E+00 0. -1.
         22   -1    0    0    0    0 -0.00000000000E+00 -0.00000000000E+00 -0.11377610050E+03  0.11377610050E+03  0.00000000000E+00 0. -1.
         24    2    1    2    0    0  0.12763309858E+02  0.12938874425E+02 -0.29518662394E+02  0.86437877634E+02  0.79182313116E+02 0.  0.
         25    2    1    2    0    0 -0.37471770452E+02  0.50523421366E+02  0.76009628610E+02  0.15931756211E+03  0.12509145562E+03 0.  0.
        -24    2    1    2    0    0  0.24708460594E+02 -0.63462295791E+02  0.18341101265E+03  0.21169874011E+03  0.80862760221E+02 0.  0.
        -11    1    3    3    0    0  0.28717708925E+02  0.23926648096E+02  0.13112078795E+02  0.39612092918E+02  0.00000000000E+00 0.  1.
         12    1    3    3    0    0 -0.15954399068E+02 -0.10987773672E+02 -0.42630741189E+02  0.46825784716E+02  0.00000000000E+00 0. -1.
         11    1    5    5    0    0  0.47110793952E+02 -0.58103216157E+02  0.16823266685E+03  0.18411311966E+03  0.00000000000E+00 0. -1.
        -12    1    5    5    0    0 -0.22402333358E+02 -0.53590796335E+01  0.15178345797E+02  0.27585620448E+02  0.00000000000E+00 0.  1.
          5    1    4    4  501    0 -0.77587186567E+02  0.35114215674E+02  0.78731914331E+02  0.11605587618E+03  0.41800000000E+01 0. -1.
         -5    1    4    4    0  501  0.40115416116E+02  0.15409205692E+02 -0.27222857217E+01  0.43261685933E+02  0.41800000000E+01 0. -1.
</event>
<event>
11    1  0.8453735E-009  0.1387072E+03  0.7561462E-02  0.1109011E+00
         22   -1    0    0    0    0  0.00000000000E+00  0.00000000000E+00  0.14501595967E+04  0.14501595967E+04  0.00000000000E+00 0. -1.
         22   -1    0    0    0    0 -0.00000000000E+00 -0.00000000000E+00 -0.10339471868E+03  0.10339471868E+03  0.00000000000E+00 0. -1.
        -24    2    1    2    0    0  0.20714934741E+02 -0.49203895111E+02 -0.33131395901E+02  0.99781655465E+02  0.77514886039E+02 0.  0.
         25    2    1    2    0    0 -0.50064021082E+01  0.10021432530E+03  0.14739604506E+03  0.21780951870E+03  0.12508963698E+03 0.  0.
         24    2    1    2    0    0 -0.15708532633E+02 -0.51010430188E+02  0.12325002289E+04  0.12359631413E+04  0.75493379245E+02 0.  0.
        -13    1    5    5    0    0  0.16092510253E+02  0.73319762406E+01  0.10275900641E+03  0.10426955529E+03  0.00000000000E+00 0.  1.
         14    1    5    5    0    0 -0.31801042886E+02 -0.58342406429E+02  0.11297412225E+04  0.11316935860E+04  0.00000000000E+00 0. -1.
         11    1    3    3    0    0  0.38647422293E+02 -0.23341273602E+02 -0.47193001769E+02  0.65311696650E+02  0.00000000000E+00 0. -1.
        -12    1    3    3    0    0 -0.17932487553E+02 -0.25862621509E+02  0.14061605868E+02  0.34469958816E+02  0.00000000000E+00 0.  1.
          5    1    4    4  501    0  0.28170731803E+02  0.11576082615E+03  0.13195474573E+03  0.17783049885E+03  0.41800000000E+01 0.  1.
         -5    1    4    4    0  501 -0.33177133911E+02 -0.15546500850E+02  0.15441299330E+02  0.39979019851E+02  0.41800000000E+01 0.  1.
</event>
<event>
11    1  0.8453735E-009  0.1509730E+03  0.7561462E-02  0.1095889E+00
         22   -1    0    0    0    0  0.00000000000E+00  0.00000000000E+00  0.60235163326E+03  0.60235163326E+03  0.00000000000E+00 0. -1.
         22   -1    0    0    0    0 -0.00000000000E+00 -0.00000000000E+00 -0.17845738919E+04  0.17845738919E+04  0.00000000000E+00 0. -1.
         24    2    1    2    0    0 -0.17646488251E+02  0.27712614336E+02 -0.15595560837E+04  0.15621780795E+04  0.84295826959E+02 0.  0.
         25    2    1    2    0    0 -0.45406720410E+02 -0.83807106548E+02 -0.18974209750E+03  0.24644506547E+03  0.12509078849E+03 0.  0.
        -24    2    1    2    0    0  0.63053208661E+02  0.56094492212E+02  0.56707592256E+03  0.57830238015E+03  0.75737980944E+02 0.  0.
        -11    1    3    3    0    0  0.37263915523E+01 -0.19296849087E+02 -0.11270442597E+03  0.11440516602E+03  0.00000000000E+00 0.  1.
         12    1    3    3    0    0 -0.21372879803E+02  0.47009463423E+02 -0.14468516577E+04  0.14477729135E+04  0.00000000000E+00 0. -1.
         11    1    5    5    0    0  0.36939057241E+02  0.55519442081E+02  0.52170581049E+03  0.52595043027E+03  0.00000000000E+00 0. -1.
        -12    1    5    5    0    0  0.26114151420E+02  0.57505013037E+00  0.45370112071E+02  0.52351949881E+02  0.00000000000E+00 0.  1.
          5    1    4    4  501    0  0.29185049808E+02 -0.34114467000E+02 -0.10947180297E+02  0.46399107184E+02  0.41800000000E+01 0.  1.
         -5    1    4    4    0  501 -0.74591770219E+02 -0.49692639547E+02 -0.17879491720E+03  0.20004595828E+03  0.41800000000E+01 0.  1.
</event>
<event>
11    1  0.8453735E-009  0.1565281E+03  0.7561462E-02  0.1090389E+00
         22   -1    0    0    0    0  0.00000000000E+00  0.00000000000E+00  0.25542122376E+03  0.25542122376E+03  0.00000000000E+00 0. -1.
         22   -1    0    0    0    0 -0.00000000000E+00 -0.00000000000E+00 -0.58994540909E+03  0.58994540909E+03  0.00000000000E+00 0.  1.
         24    2    1    2    0    0 -0.37594048990E+01 -0.93036916505E+01 -0.45298573723E+03  0.46018968900E+03  0.80484656468E+02 0.  0.
         25    2    1    2    0    0  0.54354380991E+02  0.86930826633E+02 -0.56603745421E+02  0.17135723426E+03  0.12509176785E+03 0.  0.
        -24    2    1    2    0    0 -0.50594976092E+02 -0.77627134982E+02  0.17506529732E+03  0.21381970960E+03  0.80530653751E+02 0.  0.
        -11    1    3    3    0    0 -0.32481084780E+02 -0.27841020100E+02 -0.32146302698E+03  0.32429711837E+03  0.00000000000E+00 0.  1.
         12    1    3    3    0    0  0.28721679881E+02  0.18537328449E+02 -0.13152271025E+03  0.13589257063E+03  0.00000000000E+00 0. -1.
         11    1    5    5    0    0 -0.69104233692E+02 -0.70241928914E+02  0.12007451868E+03  0.15532937175E+03  0.00000000000E+00 0. -1.
        -12    1    5    5    0    0  0.18509257600E+02 -0.73852060686E+01  0.54990778648E+02  0.58490337851E+02  0.00000000000E+00 0.  1.
          5    1    4    4  501    0 -0.34938808313E+02  0.28117900978E+01 -0.28660560216E+02  0.45470062698E+02  0.41800000000E+01 0. -1.
         -5    1    4    4    0  501  0.89293189304E+02  0.84119036535E+02 -0.27943185206E+02  0.12588717156E+03  0.41800000000E+01 0. -1.
</event>
<event>
11    1  0.8453735E-009  0.1676079E+03  0.7561462E-02  0.1080132E+00
         22   -1    0    0    0    0  0.00000000000E+00  0.00000000000E+00  0.14722217852E+04  0.14722217852E+04  0.00000000000E+00 0.  1.
         22   -1    0    0    0    0 -0.00000000000E+00 -0.00000000000E+00 -0.12642582736E+03  0.12642582736E+03  0.00000000000E+00 0. -1.
         24    2    1    2    0    0  0.43892445420E+02  0.91489549635E+02 -0.19531425291E+02  0.13046972657E+03  0.79649158936E+02 0.  0.
         25    2    1    2    0    0 -0.64721883007E+02 -0.12987777461E+03  0.13487003520E+03  0.23429712945E+03  0.12509220598E+03 0.  0.
        -24    2    1    2    0    0  0.20829437588E+02  0.38388224974E+02  0.12304573480E+04  0.12338807566E+04  0.80801701713E+02 0.  0.
        -13    1    3    3    0    0 -0.35840659428E+01  0.79968418588E+02 -0.96790492230E+01  0.80631739991E+02  0.00000000000E+00 0.  1.
         14    1    3    3    0    0  0.47476511362E+02  0.11521131048E+02 -0.98523760678E+01  0.49837986576E+02  0.00000000000E+00 0. -1.
         11    1    5    5    0    0  0.14959132496E+02  0.30001539119E+02  0.16484947579E+03  0.16822371314E+03  0.00000000000E+00 0. -1.
        -12    1    5    5    0    0  0.58703050914E+01  0.83866858556E+01  0.10656078722E+04  0.10656570434E+04  0.00000000000E+00 0.  1.
          5    1    4    4  501    0  0.36807524777E+02 -0.40751894679E+02  0.26830654976E+02  0.61260650067E+02  0.41800000000E+01 0.  1.
         -5    1    4    4    0  501 -0.10152940778E+03 -0.89125879930E+02  0.10803938022E+03  0.17303647938E+03  0.41800000000E+01 0.  1.
</event>
<event>
11    1  0.8453735E-009  0.1274602E+03  0.7561462E-02  0.1122430E+00
         22   -1    0    0    0    0  0.00000000000E+00  0.00000000000E+00  0.48758553750E+03  0.48758553750E+03  0.00000000000E+00 0. -1.
         22   -1    0    0    0    0 -0.00000000000E+00 -0.00000000000E+00 -0.31358370468E+03  0.31358370468E+03  0.00000000000E+00 0. -1.
        -24    2    1    2    0    0 -0.79293049854E+00  0.23123869955E+02 -0.24542295664E+03  0.26056943804E+03  0.84431405855E+02 0.  0.
         25    2    1    2    0    0  0.32463984084E+02 -0.36101317252E+02  0.24796814778E+02  0.13644916456E+03  0.12508507951E+03 0.  0.
         24    2    1    2    0    0 -0.31671053586E+02  0.12977447297E+02  0.39462797468E+03  0.40415063959E+03  0.80218646855E+02 0.  0.
        -11    1    5    5    0    0 -0.30200628142E+02 -0.14564765385E+02  0.62903998627E+02  0.71281998949E+02  0.00000000000E+00 0.  1.
         12    1    5    5    0    0 -0.14704254437E+01  0.27542212682E+02  0.33172397605E+03  0.33286864064E+03  0.00000000000E+00 0. -1.
         11    1    3    3    0    0  0.34780749855E+02  0.25371743541E+02 -0.18891679202E+03  0.19376011003E+03  0.00000000000E+00 0. -1.
        -12    1    3    3    0    0 -0.35573680353E+02 -0.22478735859E+01 -0.56506164618E+02  0.66809328011E+02  0.00000000000E+00 0.  1.
          5    1    4    4  501    0  0.61293179004E+02 -0.61562382121E+02 -0.57381424041E+01  0.87161799907E+02  0.41800000000E+01 0. -1.
         -5    1    4    4    0  501 -0.28829194920E+02  0.25461064870E+02  0.30534957182E+02  0.49287364650E+02  0.41800000000E+01 0. -1.
</event>
<event>
11    1  0.8453735E-009  0.1433009E+03  0.7561462E-02  0.1103927E+00
         22   -1    0    0    0    0  0.00000000000E+00  0.00000000000E+00  0.10059226656E+04  0.10059226656E+04  0.00000000000E+00 0. -1.
         22   -1    0    0    0    0 -0.00000000000E+00 -0.00000000000E+00 -0.66533212776E+03  0.66533212776E+03  0.00000000000E+00 0.  1.
         24    2    1    2    0    0 -0.13178028007E+01  0.69225091189E+02 -0.62937584866E+03  0.63810131439E+03  0.79154776820E+02 0.  0.
         25    2    1    2    0    0 -0.99593999946E+01 -0.10665179107E+03  0.20764228564E+03  0.26502176600E+03  0.12508966178E+03 0.  0.
        -24    2    1    2    0    0  0.11277202795E+02  0.37426699876E+02  0.76232410081E+03  0.76813171292E+03  0.85792543697E+02 0.  0.
        -13    1    3    3    0    0 -0.37095102908E+02  0.55278924625E+02 -0.38026187105E+03  0.38604520039E+03  0.00000000000E+00 0.  1.
         14    1    3    3    0    0  0.35777300107E+02  0.13946166564E+02 -0.24911397760E+03  0.25205611399E+03  0.00000000000E+00 0. -1.
         11    1    5    5    0    0  0.28147022708E+02  0.31244700242E+02  0.72950788166E+03  0.73071898537E+03  0.00000000000E+00 0. -1.
        -12    1    5    5    0    0 -0.16869819913E+02  0.61819996345E+01  0.32816219155E+02  0.37412727553E+02  0.00000000000E+00 0.  1.
          5    1    4    4  501    0 -0.42036263965E+02  0.22930099258E+01  0.22854843482E+02  0.48084526131E+02  0.41800000000E+01 0.  1.
         -5    1    4    4    0  501  0.32076863970E+02 -0.10894480099E+03  0.18478744216E+03  0.21693723987E+03  0.41800000000E+01 0.  1.
</event>
<event>
11    1  0.8453735E-009  0.2071852E+03  0.7561462E-02  0.1049556E+00
         22   -1    0    0    0    0  0.00000000000E+00  0.00000000000E+00  0.10375372542E+04  0.10375372542E+04  0.00000000000E+00 0. -1.
         22   -1    0    0    0    0 -0.00000000000E+00 -0.00000000000E+00 -0.41039054344E+03  0.41039054344E+03  0.00000000000E+00 0.  1.
        -24    2    1    2    0    0  0.24553740564E+02 -0.17414771668E+02 -0.28457264429E+03  0.29700018472E+03  0.79506977057E+02 0.  0.
         25    2    1    2    0    0  0.11276380378E+03 -0.78402159751E+02 -0.32490711812E+02  0.18858870821E+03  0.12508988934E+03 0.  0.
         24    2    1    2    0    0 -0.13731754434E+03  0.95816931419E+02  0.94421006690E+03  0.96233890475E+03  0.80786910062E+02 0.  0.
        -11    1    5    5    0    0 -0.47359175664E+02 -0.23101798865E+00  0.14996123439E+03  0.15726193662E+03  0.00000000000E+00 0.  1.
         12    1    5    5    0    0 -0.89958368677E+02  0.96047949408E+02  0.79424883251E+03  0.80507696813E+03  0.00000000000E+00 0. -1.
         11    1    3    3    0    0  0.49558166068E+02  0.44209282800E+01 -0.13743238746E+03  0.14616161450E+03  0.00000000000E+00 0. -1.
        -12    1    3    3    0    0 -0.25004425505E+02 -0.21835699948E+02 -0.14714025682E+03  0.15083857022E+03  0.00000000000E+00 0.  1.
          5    1    4    4  501    0  0.65266668193E+02  0.69866233136E+01 -0.57807709982E+02  0.87565715983E+02  0.41800000000E+01 0.  1.
         -5    1    4    4    0  501  0.47497135585E+02 -0.85388783065E+02  0.25316998169E+02  0.10102299223E+03  0.41800000000E+01 0.  1.
</event>
<event>
11    1  0.8453735E-009  0.1307408E+03  0.7561462E-02  0.1118362E+00
         22   -1    0    0    0    0  0.00000000000E+00  0.00000000000E+00  0.78063614165E+03  0.78063614165E+03  0.00000000000E+00 0. -1.
         22   -1    0    0    0    0 -0.00000000000E+00 -0.00000000000E+00 -0.59866655264E+03  0.59866655264E+03  0.00000000000E+00 0.  1.
        -24    2    1    2    0    0 -0.17719834131E+02  0.10770477951E+02 -0.52555655221E+03  0.53055371733E+03  0.69624433097E+02 0.  0.
         25    2    1    2    0    0  0.66206717130E+01  0.26132743388E+02 -0.82565772728E+01  0.12822804860E+03  0.12508999884E+03 0.  0.
         24    2    1    2    0    0  0.11099162418E+02 -0.36903221340E+02  0.71578271849E+03  0.72052092835E+03  0.72941544745E+02 0.  0.
        -11    1    5    5    0    0  0.32619818736E+02 -0.39314585995E+02  0.31171047099E+03  0.31586881292E+03  0.00000000000E+00 0.  1.
         12    1    5    5    0    0 -0.21520656318E+02  0.24113646554E+01  0.40407224750E+03  0.40465211543E+03  0.00000000000E+00 0. -1.
         11    1    3    3    0    0 -0.19965608989E+02 -0.54529071094E+01 -0.43024242002E+02  0.47743535040E+02  0.00000000000E+00 0. -1.
        -12    1    3    3    0    0  0.22457748583E+01  0.16223385061E+02 -0.48253231021E+03  0.48281018229E+03  0.00000000000E+00 0.  1.
          5    1    4    4  501    0 -0.26154642063E+02  0.24837983637E+02  0.49670765856E+02  0.61527620735E+02  0.41800000000E+01 0.  1.
         -5    1    4    4    0  501  0.32775313776E+02  0.12947597515E+01 -0.57927343129E+02  0.66700427869E+02  0.41800000000E+01 0.  1.
</event>
<event>
11    1  0.8453735E-009  0.1799512E+03  0.7561462E-02  0.1069682E+00
         22   -1    0    0    0    0  0.00000000000E+00  0.00000000000E+00  0.12848989984E+04  0.12848989984E+04  0.00000000000E+00 0. -1.
         22   -1    0    0    0    0 -0.00000000000E+00 -0.00000000000E+00 -0.23374058315E+04  0.23374058315E+04  0.00000000000E+00 0.  1.
        -24    2    1    2    0    0 -0.11433780745E+03 -0.56584749832E+02 -0.21583298039E+04  0.21637298947E+04  0.84050857751E+02 0.  0.
         25    2    1    2    0    0  0.16003843270E+03  0.65902888453E+02 -0.10936950451E+03  0.23992547127E+03  0.12508817930E+03 0.  0.
         24    2    1    2    0    0 -0.45700625256E+02 -0.93181386205E+01  0.12151924753E+04  0.12186494639E+04  0.78983472492E+02 0.  0.
        -11    1    5    5    0    0 -0.99995330767E+00 -0.22655314836E+02  0.10245762312E+03  0.10493725617E+03  0.00000000000E+00 0.  1.
         12    1    5    5    0    0 -0.44700671948E+02  0.13337176215E+02  0.11127348522E+04  0.11137122077E+04  0.00000000000E+00 0. -1.
         13    1    3    3    0    0 -0.16557238704E+02 -0.51308768299E+02 -0.65570281554E+03  0.65791558286E+03  0.00000000000E+00 0. -1.
        -14    1    3    3    0    0 -0.97780568744E+02 -0.52759815328E+01 -0.15026269884E+04  0.15058143118E+04  0.00000000000E+00 0.  1.
          5    1    4    4  501    0  0.11637035560E+03  0.91664876597E+02 -0.11656602189E+03  0.18854606631E+03  0.41800000000E+01 0.  1.
         -5    1    4    4    0  501  0.43668077108E+02 -0.25761988145E+02  0.71965173812E+01  0.51379404958E+02  0.41800000000E+01 0.  1.
</event>
<event>
11    1  0.8453735E-009  0.1612678E+03  0.7561462E-02  0.1085891E+00
         22   -1    0    0    0    0  0.00000000000E+00  0.00000000000E+00  0.12994859087E+03  0.12994859087E+03  0.00000000000E+00 0. -1.
         22   -1    0    0    0    0 -0.00000000000E+00 -0.00000000000E+00 -0.88924187668E+03  0.88924187668E+03  0.00000000000E+00 0. -1.
         24    2    1    2    0    0 -0.67582896723E+02  0.69004822301E+02 -0.40358900147E+03  0.42288610613E+03  0.81360083724E+02 0.  0.
         25    2    1    2    0    0  0.38709572298E+02 -0.11038269536E+03 -0.43856822440E+03  0.47081787715E+03  0.12507843769E+03 0.  0.
        -24    2    1    2    0    0  0.28873324425E+02  0.41377873059E+02  0.82863940058E+02  0.12548648426E+03  0.79590375852E+02 0.  0.
        -13    1    3    3    0    0 -0.19439066032E+02  0.10009889292E+02 -0.14085210813E+02  0.26009004892E+02  0.00000000000E+00 0.  1.
         14    1    3    3    0    0 -0.48143830692E+02  0.58994933009E+02 -0.38950379065E+03  0.39687710124E+03  0.00000000000E+00 0. -1.
         11    1    5    5    0    0  0.46564438420E+02  0.54012832712E+02  0.71381209340E+02  0.10090049588E+03  0.00000000000E+00 0. -1.
        -12    1    5    5    0    0 -0.17691113994E+02 -0.12634959652E+02  0.11482730719E+02  0.24585988378E+02  0.00000000000E+00 0.  1.
          5    1    4    4  501    0  0.32371550234E+01 -0.46493254328E+02 -0.36155252464E+03  0.36456796670E+03  0.41800000000E+01 0.  1.
         -5    1    4    4    0  501  0.35472417275E+02 -0.63889441033E+02 -0.77015699761E+02  0.10624991046E+03  0.41800000000E+01 0.  1.
</event>
<event>
11    1  0.8453735E-009  0.1673694E+03  0.7561462E-02  0.1080344E+00
         22   -1    0    0    0    0  0.00000000000E+00  0.00000000000E+00  0.22093099670E+03  0.22093099670E+03  0.00000000000E+00 0.  1.
         22   -1    0    0    0    0 -0.00000000000E+00 -0.00000000000E+00 -0.85006781889E+03  0.85006781889E+03  0.00000000000E+00 0.  1.
        -24    2    1    2    0    0 -0.57540197717E+02  0.80209637849E+02 -0.43516674683E+03  0.45329425056E+03  0.79756627875E+02 0.  0.
         25    2    1    2    0    0  0.82480945178E+02 -0.11632619077E+03 -0.37188488954E+03  0.41746885048E+03  0.12508789343E+03 0.  0.
         24    2    1    2    0    0 -0.24940747461E+02  0.36116552922E+02  0.17791481417E+03  0.20023571455E+03  0.80710680838E+02 0.  0.
        -11    1    5    5    0    0 -0.46176684377E+02  0.47213254892E+02  0.14674617570E+03  0.16092177509E+03  0.00000000000E+00 0.  1.
         12    1    5    5    0    0  0.21235936916E+02 -0.11096701970E+02  0.31168638471E+02  0.39313939454E+02  0.00000000000E+00 0. -1.
         11    1    3    3    0    0 -0.15962944401E+02  0.50958617059E+02 -0.91937388392E+02  0.10632064536E+03  0.00000000000E+00 0. -1.
        -12    1    3    3    0    0 -0.41577253316E+02  0.29251020790E+02 -0.34322935843E+03  0.34697360519E+03  0.00000000000E+00 0.  1.
          5    1    4    4  501    0  0.11300859519E+02 -0.10576168694E+03 -0.14826746336E+03  0.18252111369E+03  0.41800000000E+01 0. -1.
         -5    1    4    4    0  501  0.71180085659E+02 -0.10564503828E+02 -0.22361742617E+03  0.23494773679E+03  0.41800000000E+01 0. -1.
</event>
<event>
11    1  0.8453735E-009  0.1389686E+03  0.7561462E-02  0.1108716E+00
         22   -1    0    0    0    0  0.00000000000E+00  0.00000000000E+00  0.28225323333E+03  0.28225323333E+03  0.00000000000E+00 0. -1.
         22   -1    0    0    0    0 -0.00000000000E+00 -0.00000000000E+00 -0.43683236653E+03  0.43683236653E+03  0.00000000000E+00 0. -1.
         24    2    1    2    0    0  0.80949715124E+02  0.66910866871E+01 -0.37004439073E+03  0.38751205436E+03  0.81456209970E+02 0.  0.
         25    2    1    2    0    0  0.10698694831E+02 -0.20037924185E+02  0.83997415534E+02  0.15237338008E+03  0.12508437418E+03 0.  0.
        -24    2    1    2    0    0 -0.91648409955E+02  0.13346837498E+02  0.13146784199E+03  0.17920016541E+03  0.79065395007E+02 0.  0.
        -13    1    3    3    0    0 -0.70714270457E+01 -0.12993546671E+02 -0.14533042280E+02  0.20737566238E+02  0.00000000000E+00 0.  1.
         14    1    3    3    0    0  0.88021142170E+02  0.19684633358E+02 -0.35551134845E+03  0.36677448812E+03  0.00000000000E+00 0. -1.
         13    1    5    5    0    0  0.13325292028E+02 -0.63145505572E+01  0.12540063668E+02  0.19356914867E+02  0.00000000000E+00 0. -1.
        -14    1    5    5    0    0 -0.10497370198E+03  0.19661388055E+02  0.11892777833E+03  0.15984325055E+03  0.00000000000E+00 0.  1.
          5    1    4    4  501    0  0.61074094284E+02 -0.28540058893E+02  0.73924765962E+02  0.10013452640E+03  0.41800000000E+01 0.  1.
         -5    1    4    4    0  501 -0.50375399453E+02  0.85021347080E+01  0.10072649572E+02  0.52238853682E+02  0.41800000000E+01 0.  1.
</event>
<event>
11    1  0.8453735E-009  0.1500393E+03  0.7561462E-02  0.1096839E+00
         22   -1    0    0    0    0  0.00000000000E+00  0.00000000000E+00  0.12809104510E+04  0.12809104510E+04  0.00000000000E+00 0.  1.
         22   -1    0    0    0    0 -0.00000000000E+00 -0.00000000000E+00 -0.34318331382E+03  0.34318331382E+03  0.00000000000E+00 0.  1.
        -24    2    1    2    0    0  0.18030667678E+02 -0.70552680872E+01 -0.32336285039E+03  0.33357519258E+03  0.79586395220E+02 0.  0.
         25    2    1    2    0    0  0.23330459243E+02  0.79631529245E+02  0.56005525952E+03  0.57982254577E+03  0.12508716997E+03 0.  0.
         24    2    1    2    0    0 -0.41361126921E+02 -0.72576261157E+02  0.70103472807E+03  0.71069602650E+03  0.81615535385E+02 0.  0.
        -11    1    5    5    0    0 -0.30582610642E+02 -0.24410288321E+02  0.55827759649E+03  0.55964723978E+03  0.00000000000E+00 0.  1.
         12    1    5    5    0    0 -0.10778516280E+02 -0.48165972836E+02  0.14275713158E+03  0.15104878672E+03  0.00000000000E+00 0. -1.
         11    1    3    3    0    0  0.38110534856E+02 -0.31826540217E+02 -0.18117463462E+03  0.18785523618E+03  0.00000000000E+00 0. -1.
        -12    1    3    3    0    0 -0.20079867178E+02  0.24771272130E+02 -0.14218821577E+03  0.14571995640E+03  0.00000000000E+00 0.  1.
          5    1    4    4  501    0  0.33138159632E+02 -0.28858128850E+01  0.37996236312E+03  0.38143850792E+03  0.41800000000E+01 0. -1.
         -5    1    4    4    0  501 -0.98077003884E+01  0.82517342130E+02  0.18009289640E+03  0.19838403785E+03  0.41800000000E+01 0. -1.
</event>
<event>
11    1  0.8453735E-009  0.1317406E+03  0.7561462E-02  0.1117149E+00
         22   -1    0    0    0    0  0.00000000000E+00  0.00000000000E+00  0.36589356631E+03  0.36589356631E+03  0.00000000000E+00 0.  1.
         22   -1    0    0    0    0 -0.00000000000E+00 -0.00000000000E+00 -0.12358511258E+04  0.12358511258E+04  0.00000000000E+00 0. -1.
         24    2    1    2    0    0 -0.53692778625E+01  0.22438254841E+02 -0.79351911241E+03  0.79795181653E+03  0.80760233448E+02 0.  0.
         25    2    1    2    0    0 -0.34718229560E+02 -0.11832058518E+02 -0.42459349511E+03  0.44415403682E+03  0.12509124374E+03 0.  0.
        -24    2    1    2    0    0  0.40087507423E+02 -0.10606196324E+02  0.34815504802E+03  0.35963883877E+03  0.80054089467E+02 0.  0.
        -11    1    3    3    0    0 -0.26164316354E+02 -0.91336314411E+01 -0.60740617951E+03  0.60803804287E+03  0.00000000000E+00 0.  1.
         12    1    3    3    0    0  0.20795038492E+02  0.31571886282E+02 -0.18611293290E+03  0.18991377365E+03  0.00000000000E+00 0. -1.
         13    1    5    5    0    0  0.28796199107E+02  0.24634349445E+02  0.75425143049E+02  0.84409859966E+02  0.00000000000E+00 0. -1.
        -14    1    5    5    0    0  0.11291308316E+02 -0.35240545768E+02  0.27272990497E+03  0.27522897881E+03  0.00000000000E+00 0.  1.
          5    1    4    4  501    0 -0.47810367669E+02 -0.31492740703E+02 -0.78598077797E+02  0.97328075122E+02  0.41800000000E+01 0. -1.
         -5    1    4    4    0  501  0.13092138109E+02  0.19660682186E+02 -0.34599541731E+03  0.34682596170E+03  0.41800000000E+01 0. -1.
</event>
<event>
11    1  0.8453735E-009  0.1731980E+03  0.7561462E-02  0.1075282E+00
         22   -1    0    0    0    0  0.00000000000E+00  0.00000000000E+00  0.34623217186E+03  0.34623217186E+03  0.00000000000E+00 0. -1.
         22   -1    0    0    0    0 -0.00000000000E+00 -0.00000000000E+00 -0.11993155614E+04  0.11993155614E+04  0.00000000000E+00 0. -1.
         24    2    1    2    0    0  0.11480923313E+03 -0.37766934709E+02 -0.10489265924E+04  0.10590387976E+04  0.81906514886E+02 0.  0.
         25    2    1    2    0    0 -0.10897785717E+03  0.17929656075E+02 -0.89562181887E+02  0.18938440363E+03  0.12508965583E+03 0.  0.
        -24    2    1    2    0    0 -0.58313759572E+01  0.19837278634E+02  0.28540538473E+03  0.29712453206E+03  0.79995195795E+02 0.  0.
        -13    1    3    3    0    0  0.35478428064E+02 -0.50822458330E+02 -0.34367262509E+03  0.34921700182E+03  0.00000000000E+00 0.  1.
         14    1    3    3    0    0  0.79330805065E+02  0.13055523620E+02 -0.70525396732E+03  0.70982179577E+03  0.00000000000E+00 0. -1.
         13    1    5    5    0    0  0.32029630781E+02 -0.10161126270E+02  0.98318987267E+02  0.10390269001E+03  0.00000000000E+00 0. -1.
        -14    1    5    5    0    0 -0.37861006738E+02  0.29998404904E+02  0.18708639746E+03  0.19322184204E+03  0.00000000000E+00 0.  1.
          5    1    4    4  501    0  0.46058940130E+01 -0.12341478028E+02  0.22836536597E+02  0.26692810705E+02  0.41800000000E+01 0.  1.
         -5    1    4    4    0  501 -0.11358375118E+03  0.30271134103E+02 -0.11239871848E+03  0.16269159293E+03  0.41800000000E+01 0.  1.
</event>
<event>
11    1  0.8453735E-009  0.1441766E+03  0.7561462E-02  0.1102982E+00
         22   -1    0    0    0    0  0.00000000000E+00  0.00000000000E+00  0.79461048408E+03  0.79461048408E+03  0.00000000000E+00 0. -1.
         22   -1    0    0    0    0 -0.00000000000E+00 -0.00000000000E+00 -0.15521666544E+04  0.15521666544E+04  0.00000000000E+00 0. -1.
        -24    2    1    2    0    0  0.65022785457E+02 -0.30763512799E+02 -0.14894837373E+04  0.14933960364E+04  0.80595046257E+02 0.  0.
         25    2    1    2    0    0 -0.56743182024E+02  0.23228693236E+02  0.24895853857E+02  0.14151683713E+03  0.12509136963E+03 0.  0.
         24    2    1    2    0    0 -0.82796034331E+01  0.75348195625E+01  0.70703171317E+03  0.71186426492E+03  0.82046102247E+02 0.  0.
        -13    1    5    5    0    0 -0.23914581137E+02  0.37071955869E+02  0.27236927785E+03  0.27591893849E+03  0.00000000000E+00 0.  1.
         14    1    5    5    0    0  0.15634977704E+02 -0.29537136307E+02  0.43466243532E+03  0.43594532642E+03  0.00000000000E+00 0. -1.
         13    1    3    3    0    0  0.25826004737E+02 -0.80934896506E+01 -0.12072290258E+04  0.12075323631E+04  0.00000000000E+00 0. -1.
        -14    1    3    3    0    0  0.39196780720E+02 -0.22670023148E+02 -0.28225471146E+03  0.28586367330E+03  0.00000000000E+00 0.  1.
          5    1    4    4  501    0 -0.53062311719E+02  0.25466758092E+02  0.72533421150E+02  0.93502589678E+02  0.41800000000E+01 0.  1.
         -5    1    4    4    0  501 -0.36808703049E+01 -0.22380648554E+01 -0.47637567293E+02  0.48014247449E+02  0.41800000000E+01 0.  1.
</event>
<event>
11    1  0.8453735E-009  0.1450077E+03  0.7561462E-02  0.1102092E+00
         22   -1    0    0    0    0  0.00000000000E+00  0.00000000000E+00  0.16755909744E+03  0.16755909744E+03  0.00000000000E+00 0.  1.
         22   -1    0    0    0    0 -0.00000000000E+00 -0.00000000000E+00 -0.16089640948E+04  0.16089640948E+04  0.00000000000E+00 0. -1.
         24    2    1    2    0    0 -0.67032641642E+02  0.28400989161E+02 -0.14934996511E+04  0.14974591620E+04  0.80887222243E+02 0.  0.
         25    2    1    2    0    0  0.67559281102E+02 -0.90173903829E+02  0.92466446593E+01  0.16860770902E+03  0.12508984654E+03 0.  0.
        -24    2    1    2    0    0 -0.52663945997E+00  0.61772914669E+02  0.42848009093E+02  0.11045632123E+03  0.80922658642E+02 0.  0.
        -13    1    3    3    0    0 -0.17680918084E+02 -0.10566063898E+02 -0.81583557401E+02  0.84143528621E+02  0.00000000000E+00 0.  1.
         14    1    3    3    0    0 -0.49351723559E+02  0.38967053059E+02 -0.14119160937E+04  0.14133156334E+04  0.00000000000E+00 0. -1.
         13    1    5    5    0    0  0.38891705378E+02  0.35832282067E+02  0.32743285307E+02  0.62198391603E+02  0.00000000000E+00 0. -1.
        -14    1    5    5    0    0 -0.39418344838E+02  0.25940632602E+02  0.10104723786E+02  0.48257929632E+02  0.00000000000E+00 0.  1.
          5    1    4    4  501    0 -0.27541654799E+02 -0.52844795256E+02 -0.18719397267E+02  0.62601943810E+02  0.41800000000E+01 0. -1.
         -5    1    4    4    0  501  0.95100935902E+02 -0.37329108573E+02  0.27966041926E+02  0.10600576521E+03  0.41800000000E+01 0. -1.
</event>
<event>
11    1  0.8453735E-009  0.3006186E+03  0.7561462E-02  0.9999298E-01
         22   -1    0    0    0    0  0.00000000000E+00  0.00000000000E+00  0.30480133324E+03  0.30480133324E+03  0.00000000000E+00 0.  1.
         22   -1    0    0    0    0 -0.00000000000E+00 -0.00000000000E+00 -0.22205343724E+03  0.22205343724E+03  0.00000000000E+00 0. -1.
         24    2    1    2    0    0 -0.24755038751E+02  0.12440211951E+03 -0.14568891296E+02  0.15114273861E+03  0.80889897751E+02 0.  0.
         25    2    1    2    0    0 -0.20556494301E+02  0.72227905482E+02  0.35764662866E+02  0.15022215417E+03  0.12509254456E+03 0.  0.
        -24    2    1    2    0    0  0.45311533052E+02 -0.19663002499E+03  0.61552124428E+02  0.22548987771E+03  0.79627377033E+02 0.  0.
        -13    1    3    3    0    0 -0.75364041801E+01  0.24515549198E+02  0.30810203889E+02  0.40088379914E+02  0.00000000000E+00 0.  1.
         14    1    3    3    0    0 -0.17218634571E+02  0.99886570309E+02 -0.45379095185E+02  0.11105435869E+03  0.00000000000E+00 0. -1.
         11    1    5    5    0    0 -0.11787299276E+02 -0.11461425966E+03  0.18576272559E+02  0.11670667010E+03  0.00000000000E+00 0. -1.
        -12    1    5    5    0    0  0.57098832328E+02 -0.82015765325E+02  0.42975851869E+02  0.10878320761E+03  0.00000000000E+00 0.  1.
          5    1    4    4  501    0  0.33599479368E+02  0.34564706875E+02 -0.30040999028E+02  0.56952418717E+02  0.41800000000E+01 0. -1.
         -5    1    4    4    0  501 -0.54155973670E+02  0.37663198607E+02  0.65805661894E+02  0.93269735449E+02  0.41800000000E+01 0. -1.
</event>
<event>
11    1  0.8453735E-009  0.2077510E+03  0.7561462E-02  0.1049174E+00
         22   -1    0    0    0    0  0.00000000000E+00  0.00000000000E+00  0.51081025798E+03  0.51081025798E+03  0.00000000000E+00 0.  1.
         22   -1    0    0    0    0 -0.00000000000E+00 -0.00000000000E+00 -0.23919968480E+03  0.23919968480E+03  0.00000000000E+00 0.  1.
         24    2    1    2    0    0  0.15392455339E+03 -0.37273455667E+02 -0.89143996811E+02  0.19805831472E+03  0.78729697251E+02 0.  0.
         25    2    1    2    0    0 -0.16902563171E+03  0.85403914522E+02  0.57214688694E+02  0.23406251228E+03  0.12509295049E+03 0.  0.
        -24    2    1    2    0    0  0.15101078320E+02 -0.48130458855E+02  0.30353988130E+03  0.31788911578E+03  0.79827606513E+02 0.  0.
        -11    1    3    3    0    0  0.15615403128E+03 -0.17756345050E+02 -0.77616243772E+02  0.17528163216E+03  0.00000000000E+00 0.  1.
         12    1    3    3    0    0 -0.22294778903E+01 -0.19517110617E+02 -0.11527753039E+02  0.22776682564E+02  0.00000000000E+00 0. -1.
         13    1    5    5    0    0  0.62672411178E+01  0.77164744350E+01  0.86509907670E+00  0.99785111789E+01  0.00000000000E+00 0. -1.
        -14    1    5    5    0    0  0.88338372022E+01 -0.55846933290E+02  0.30267478222E+03  0.30791060461E+03  0.00000000000E+00 0.  1.
          5    1    4    4  501    0 -0.18720684006E+03  0.62495723451E+02  0.50553613935E+02  0.20377746857E+03  0.41800000000E+01 0.  1.
         -5    1    4    4    0  501  0.18181208356E+02  0.22908191072E+02  0.66610747594E+01  0.30285043709E+02  0.41800000000E+01 0.  1.
</event>
<event>
11    1  0.8453735E-009  0.1364220E+03  0.7561462E-02  0.1111621E+00
         22   -1    0    0    0    0  0.00000000000E+00  0.00000000000E+00  0.61206205737E+03  0.61206205737E+03  0.00000000000E+00 0. -1.
         22   -1    0    0    0    0 -0.00000000000E+00 -0.00000000000E+00 -0.35552436611E+03  0.35552436611E+03  0.00000000000E+00 0.  1.
        -24    2    1    2    0    0 -0.44268558815E+02  0.31403655111E+02 -0.31580875732E+03  0.33045507455E+03  0.80743360355E+02 0.  0.
         25    2    1    2    0    0  0.68127609660E+02 -0.35924896032E+01  0.15395658518E+03  0.20977560926E+03  0.12509555923E+03 0.  0.
         24    2    1    2    0    0 -0.23859050844E+02 -0.27811165507E+02  0.41838986339E+03  0.42735573968E+03  0.78994526459E+02 0.  0.
        -13    1    5    5    0    0 -0.15381295730E+02  0.26874269225E+02  0.12383322971E+03  0.12764591410E+03  0.00000000000E+00 0.  1.
         14    1    5    5    0    0 -0.84777551145E+01 -0.54685434732E+02  0.29455663368E+03  0.29970982558E+03  0.00000000000E+00 0. -1.
         13    1    3    3    0    0 -0.54453849363E+01 -0.20813003792E+02 -0.27608809273E+02  0.35001138459E+02  0.00000000000E+00 0. -1.
        -14    1    3    3    0    0 -0.38823173879E+02  0.52216658902E+02 -0.28819994805E+03  0.29545393609E+03  0.00000000000E+00 0.  1.
          5    1    4    4  501    0  0.10380085050E+02 -0.16998985802E+02 -0.18415086398E+02  0.27446301955E+02  0.41800000000E+01 0. -1.
         -5    1    4    4    0  501  0.57747524610E+02  0.13406496199E+02  0.17237167158E+03  0.18232930730E+03  0.41800000000E+01 0. -1.
</event>
<event>
11    1  0.8453735E-009  0.1942755E+03  0.7561462E-02  0.1058647E+00
         22   -1    0    0    0    0  0.00000000000E+00  0.00000000000E+00  0.19815457886E+04  0.19815457886E+04  0.00000000000E+00 0.  1.
         22   -1    0    0    0    0 -0.00000000000E+00 -0.00000000000E+00 -0.13788386086E+04  0.13788386086E+04  0.00000000000E+00 0.  1.
         24    2    1    2    0    0 -0.13355618024E+03  0.55892474756E+02 -0.98162088093E+03  0.99572778528E+03  0.83264917507E+02 0.  0.
         25    2    1    2    0    0  0.14827287188E+03 -0.69368329902E+02 -0.36203280215E+03  0.41654733032E+03  0.12508844406E+03 0.  0.
        -24    2    1    2    0    0 -0.14716691639E+02  0.13475855146E+02  0.19463608631E+04  0.19481092816E+04  0.80068621934E+02 0.  0.
        -13    1    3    3    0    0 -0.69428625399E+00 -0.32407542473E+01 -0.23783550895E+03  0.23785860052E+03  0.00000000000E+00 0.  1.
         14    1    3    3    0    0 -0.13286189398E+03  0.59133229003E+02 -0.74378537198E+03  0.75786918476E+03  0.00000000000E+00 0. -1.
         13    1    5    5    0    0 -0.42292847638E+02 -0.11237130995E+02  0.85326332294E+03  0.85438472385E+03  0.00000000000E+00 0. -1.
        -14    1    5    5    0    0  0.27576155998E+02  0.24712986141E+02  0.10930975401E+04  0.10937245578E+04  0.00000000000E+00 0.  1.
          5    1    4    4  501    0  0.15240691096E+02  0.25141678706E+02 -0.15515494492E+02  0.33505009216E+02  0.41800000000E+01 0. -1.
         -5    1    4    4    0  501  0.13303218078E+03 -0.94510008608E+02 -0.34651730766E+03  0.38304232110E+03  0.41800000000E+01 0. -1.
</event>
<event>
11    1  0.8453735E-009  0.1396998E+03  0.7561462E-02  0.1107894E+00
         22   -1    0    0    0    0  0.00000000000E+00  0.00000000000E+00  0.34841856253E+03  0.34841856253E+03  0.00000000000E+00 0. -1.
         22   -1    0    0    0    0 -0.00000000000E+00 -0.00000000000E+00 -0.73672876067E+03  0.73672876067E+03  0.00000000000E+00 0. -1.
        -24    2    1    2    0    0 -0.51906998897E+02  0.35481253062E+02 -0.61834302066E+03  0.62644707124E+03  0.78323598017E+02 0.  0.
         25    2    1    2    0    0  0.48307747113E+02 -0.26943974248E+02 -0.65686049669E+02  0.15172587203E+03  0.12508583830E+03 0.  0.
         24    2    1    2    0    0  0.35992517841E+01 -0.85372788135E+01  0.29571887219E+03  0.30697437993E+03  0.81839958567E+02 0.  0.
        -11    1    5    5    0    0  0.20047488695E+01 -0.32720538785E+02  0.48316807182E+02  0.58388068411E+02  0.00000000000E+00 0.  1.
         12    1    5    5    0    0  0.15945029145E+01  0.24183259972E+02  0.24740206501E+03  0.24858631152E+03  0.00000000000E+00 0. -1.
         13    1    3    3    0    0 -0.72670372269E+02  0.25826391993E+02 -0.49938749168E+03  0.50530768090E+03  0.00000000000E+00 0. -1.
        -14    1    3    3    0    0  0.20763373371E+02  0.96548610687E+01 -0.11895552898E+03  0.12113939033E+03  0.00000000000E+00 0.  1.
          5    1    4    4  501    0 -0.10866349305E+02  0.39847266113E+02 -0.42551576482E+02  0.59447381986E+02  0.41800000000E+01 0.  1.
         -5    1    4    4    0  501  0.59174096418E+02 -0.66791240361E+02 -0.23134473187E+02  0.92278490048E+02  0.41800000000E+01 0.  1.
</event>
<event>
11    1  0.8453735E-009  0.1593992E+03  0.7561462E-02  0.1087644E+00
         22   -1    0    0    0    0  0.00000000000E+00  0.00000000000E+00  0.23865554976E+03  0.23865554976E+03  0.00000000000E+00 0. -1.
         22   -1    0    0    0    0 -0.00000000000E+00 -0.00000000000E+00 -0.10628835053E+04  0.10628835053E+04  0.00000000000E+00 0.  1.
         24    2    1    2    0    0  0.73157795828E+02 -0.19179093851E+02 -0.95095001556E+03  0.95736711529E+03  0.80783417956E+02 0.  0.
         25    2    1    2    0    0 -0.14076065038E+03 -0.34141313024E+02  0.31440341407E+02  0.19394547228E+03  0.12508861338E+03 0.  0.
        -24    2    1    2    0    0  0.67602854554E+02  0.53320406874E+02  0.95281718589E+02  0.15022646751E+03  0.77949816612E+02 0.  0.
        -11    1    3    3    0    0  0.52142489709E+02  0.69816617224E+01 -0.83509253689E+03  0.83674794771E+03  0.00000000000E+00 0.  1.
         12    1    3    3    0    0  0.21015306119E+02 -0.26160755573E+02 -0.11585747867E+03  0.12061916758E+03  0.00000000000E+00 0. -1.
         11    1    5    5    0    0  0.65271881156E+02  0.67208406571E+02  0.98331456520E+02  0.13581775924E+03  0.00000000000E+00 0. -1.
        -12    1    5    5    0    0  0.23309733982E+01 -0.13887999697E+02 -0.30497379309E+01  0.14408708270E+02  0.00000000000E+00 0.  1.
          5    1    4    4  501    0 -0.11443382994E+03 -0.20907940062E+02  0.76971739643E+02  0.13955058043E+03  0.41800000000E+01 0. -1.
         -5    1    4    4    0  501 -0.26326820438E+02 -0.13233372962E+02 -0.45531398236E+02  0.54394891852E+02  0.41800000000E+01 0. -1.
</event>
<event>
11    1  0.8453735E-009  0.2254691E+03  0.7561462E-02  0.1037845E+00
         22   -1    0    0    0    0  0.00000000000E+00  0.00000000000E+00  0.16237705332E+03  0.16237705332E+03  0.00000000000E+00 0. -1.
         22   -1    0    0    0    0 -0.00000000000E+00 -0.00000000000E+00 -0.90956167267E+03  0.90956167267E+03  0.00000000000E+00 0. -1.
        -24    2    1    2    0    0 -0.15703794900E+03 -0.12597409570E+03 -0.50045214945E+03  0.54522625325E+03  0.79302730861E+02 0.  0.
         25    2    1    2    0    0  0.20820321973E+03 -0.64425527547E+02 -0.14144074976E+03  0.28834270362E+03  0.12504719002E+03 0.  0.
         24    2    1    2    0    0 -0.51165270723E+02  0.19039962325E+03 -0.10529172014E+03  0.23836976913E+03  0.82848651416E+02 0.  0.
        -11    1    5    5    0    0 -0.60019399483E+02  0.10416412644E+03 -0.30872619344E+02  0.12411934650E+03  0.00000000000E+00 0.  1.
         12    1    5    5    0    0  0.88541287593E+01  0.86235496811E+02 -0.74419100800E+02  0.11425042263E+03  0.00000000000E+00 0. -1.
         11    1    3    3    0    0 -0.12198483609E+03 -0.95803112714E+02 -0.28112661551E+03  0.32107742149E+03  0.00000000000E+00 0. -1.
        -12    1    3    3    0    0 -0.35053112914E+02 -0.30170982990E+02 -0.21932553394E+03  0.22414883176E+03  0.00000000000E+00 0.  1.
          5    1    4    4  501    0  0.38248454139E+02 -0.43212670984E+02  0.11141793404E+02  0.58922755688E+02  0.41800000000E+01 0. -1.
         -5    1    4    4    0  501  0.16995476559E+03 -0.21212856563E+02 -0.15258254316E+03  0.22941994793E+03  0.41800000000E+01 0. -1.
</event>
<event>
11    1  0.8453735E-009  0.2948796E+03  0.7561462E-02  0.1002382E+00
         22   -1    0    0    0    0  0.00000000000E+00  0.00000000000E+00  0.29776219715E+04  0.29776219715E+04  0.00000000000E+00 0. -1.
         22   -1    0    0    0    0 -0.00000000000E+00 -0.00000000000E+00 -0.17742969811E+04  0.17742969811E+04  0.00000000000E+00 0.  1.
        -24    2    1    2    0    0 -0.59559910797E+02  0.46745490975E+02 -0.16628792914E+04  0.16666223281E+04  0.82036107357E+02 0.  0.
         25    2    1    2    0    0 -0.39832761964E+02 -0.29306955713E+03  0.14908867483E+03  0.35405986151E+03  0.12511809753E+03 0.  0.
         24    2    1    2    0    0  0.99392672761E+02  0.24632406615E+03  0.27171156071E+04  0.27312367629E+04  0.79891076658E+02 0.  0.
        -11    1    5    5    0    0  0.60092715400E+02  0.54745204309E+02  0.87576759904E+03  0.87953229580E+03  0.00000000000E+00 0.  1.
         12    1    5    5    0    0  0.39299957362E+02  0.19157886184E+03  0.18413480080E+04  0.18517044671E+04  0.00000000000E+00 0. -1.
         13    1    3    3    0    0 -0.24469151002E+01  0.82663560482E+01 -0.14971176333E+02  0.17275883671E+02  0.00000000000E+00 0. -1.
        -14    1    3    3    0    0 -0.57112995697E+02  0.38479134927E+02 -0.16479081151E+04  0.16493464445E+04  0.00000000000E+00 0.  1.
          5    1    4    4  501    0 -0.15779851530E+02 -0.26214739949E+03  0.16650405324E+03  0.31098446090E+03  0.41800000000E+01 0. -1.
         -5    1    4    4    0  501 -0.24052910435E+02 -0.30922157633E+02 -0.17415378405E+02  0.43075400614E+02  0.41800000000E+01 0. -1.
</event>
<event>
11    1  0.8453735E-009  0.1531600E+03  0.7561462E-02  0.1093693E+00
         22   -1    0    0    0    0  0.00000000000E+00  0.00000000000E+00  0.19132187198E+03  0.19132187198E+03  0.00000000000E+00 0. -1.
         22   -1    0    0    0    0 -0.00000000000E+00 -0.00000000000E+00 -0.12841852382E+04  0.12841852382E+04  0.00000000000E+00 0. -1.
        -24    2    1    2    0    0  0.26151147417E+01  0.64843763489E+02 -0.11722419246E+04  0.11784220960E+04  0.10156748510E+03 0.  0.
         25    2    1    2    0    0  0.84605107648E+02 -0.24167949403E+02  0.89218898230E+01  0.15320482786E+03  0.12509998058E+03 0.  0.
         24    2    1    2    0    0 -0.87220222390E+02 -0.40675814086E+02  0.70456668522E+02  0.14388018637E+03  0.80470347614E+02 0.  0.
        -11    1    5    5    0    0  0.13376756776E+02 -0.11887951034E+02  0.29286658945E+00  0.17898233781E+02  0.00000000000E+00 0.  1.
         12    1    5    5    0    0 -0.10059697917E+03 -0.28787863052E+02  0.70163801932E+02  0.12598195259E+03  0.00000000000E+00 0. -1.
         13    1    3    3    0    0 -0.49277267094E+01  0.62119629456E+02 -0.11673836124E+04  0.11690456062E+04  0.00000000000E+00 0. -1.
        -14    1    3    3    0    0  0.75428414511E+01  0.27241340331E+01 -0.48583121928E+01  0.93764897883E+01  0.00000000000E+00 0.  1.
          5    1    4    4  501    0 -0.88548644428E+01  0.32695805593E+02 -0.20534882407E+02  0.39831873207E+02  0.41800000000E+01 0.  1.
         -5    1    4    4    0  501  0.93459972091E+02 -0.56863754996E+02  0.29456772231E+02  0.11337295465E+03  0.41800000000E+01 0.  1.
</event>
<event>
11    1  0.9368600E-009  0.1655126E+03  0.7561462E-02  0.1082004E+00
         22   -1    0    0    0    0  0.00000000000E+00  0.00000000000E+00  0.84344554212E+03  0.84344554212E+03  0.00000000000E+00 0.  1.
         22   -1    0    0    0    0 -0.00000000000E+00 -0.00000000000E+00 -0.41102476840E+03  0.41102476840E+03  0.00000000000E+00 0. -1.
        -24    2    1    2    0    0 -0.76067005918E+02 -0.64636093739E+02 -0.13389617253E+03  0.18562791123E+03  0.81027911276E+02 0.  0.
         25    2    1    2    0    0  0.17692783975E+03  0.97994667658E+02 -0.18783160116E+03  0.30304244336E+03  0.12509035420E+03 0.  0.
         24    2    1    2    0    0 -0.10086083384E+03 -0.33358573919E+02  0.75414854741E+03  0.76579995593E+03  0.80148853271E+02 0.  0.
        -13    1    5    5    0    0 -0.86058868332E+02 -0.39782506383E+02  0.73346329884E+03  0.73956553961E+03  0.00000000000E+00 0.  1.
         14    1    5    5    0    0 -0.14801965503E+02  0.64239324634E+01  0.20685248566E+02  0.26234416313E+02  0.00000000000E+00 0. -1.
         13    1    3    3    0    0 -0.49203458810E+02 -0.58506337829E+02 -0.13801050443E+03  0.15776841020E+03  0.00000000000E+00 0. -1.
        -14    1    3    3    0    0 -0.26863547108E+02 -0.61297559101E+01  0.41143318935E+01  0.27859501031E+02  0.00000000000E+00 0.  1.
          5    1    4    4  501    0  0.44009056940E+02  0.56582251585E+02 -0.13717823284E+03  0.15483438976E+03  0.41800000000E+01 0. -1.
         -5    1    4    4    0  501  0.13291878281E+03  0.41412416073E+02 -0.50653368318E+02  0.14820805360E+03  0.41800000000E+01 0. -1.
</event>
<event>
11    1  0.8453735E-009  0.1715718E+03  0.7561462E-02  0.1076672E+00
         22   -1    0    0    0    0  0.00000000000E+00  0.00000000000E+00  0.85796764020E+02  0.85796764020E+02  0.00000000000E+00 0.  1.
         22   -1    0    0    0    0 -0.00000000000E+00 -0.00000000000E+00 -0.11521662399E+04  0.11521662399E+04  0.00000000000E+00 0. -1.
        -24    2    1    2    0    0 -0.76379268985E+02  0.82204158953E+02 -0.86224846500E+03  0.87325498329E+03  0.80687879922E+02 0.  0.
         25    2    1    2    0    0  0.11704382304E+03 -0.11736446646E+03 -0.16060542682E+03  0.26252043041E+03  0.12509675759E+03 0.  0.
         24    2    1    2    0    0 -0.40664554060E+02  0.35160307510E+02 -0.43515584047E+02  0.10218759020E+03  0.75225290665E+02 0.  0.
        -11    1    5    5    0    0 -0.51773443357E+02  0.17567963652E+02 -0.80507752243E+00  0.54678797845E+02  0.00000000000E+00 0.  1.
         12    1    5    5    0    0  0.11108889297E+02  0.17592343858E+02 -0.42710506524E+02  0.47508792359E+02  0.00000000000E+00 0. -1.
         13    1    3    3    0    0 -0.69399803590E+01  0.18489286890E+02 -0.44744692452E+03  0.44788253741E+03  0.00000000000E+00 0. -1.
        -14    1    3    3    0    0 -0.69439288626E+02  0.63714872063E+02 -0.41480154048E+03  0.42537244587E+03  0.00000000000E+00 0.  1.
          5    1    4    4  501    0  0.13310189376E+03 -0.12793704140E+03 -0.15727950139E+03  0.24256610366E+03  0.41800000000E+01 0.  1.
         -5    1    4    4    0  501 -0.16058070720E+02  0.10572574941E+02 -0.33259254265E+01  0.19954326751E+02  0.41800000000E+01 0.  1.
</event>
<event>
11    1  0.8453735E-009  0.2364564E+03  0.7561462E-02  0.1031372E+00
         22   -1    0    0    0    0  0.00000000000E+00  0.00000000000E+00  0.68070232264E+03  0.68070232264E+03  0.00000000000E+00 0. -1.
         22   -1    0    0    0    0 -0.00000000000E+00 -0.00000000000E+00 -0.43296264550E+03  0.43296264550E+03  0.00000000000E+00 0. -1.
        -24    2    1    2    0    0  0.10848224281E+01  0.12939461658E+02 -0.32067323766E+03  0.33141506170E+03  0.82680174552E+02 0.  0.
         25    2    1    2    0    0 -0.20151341060E+03 -0.13806908206E+02  0.83259301549E+02  0.25172412027E+03  0.12503853832E+03 0.  0.
         24    2    1    2    0    0  0.20042858818E+03  0.86744654744E+00  0.48515361324E+03  0.53052578617E+03  0.76884393230E+02 0.  0.
        -13    1    5    5    0    0  0.10194044572E+03 -0.17184101937E+02  0.16164056398E+03  0.19187188370E+03  0.00000000000E+00 0.  1.
         14    1    5    5    0    0  0.98488142452E+02  0.18051548485E+02  0.32351304927E+03  0.33865390246E+03  0.00000000000E+00 0. -1.
         13    1    3    3    0    0 -0.31051180967E+02  0.39351744516E+01 -0.26241268976E+03  0.26427274015E+03  0.00000000000E+00 0. -1.
        -14    1    3    3    0    0  0.32136003395E+02  0.90042872067E+01 -0.58260547899E+02  0.67142321555E+02  0.00000000000E+00 0.  1.
          5    1    4    4  501    0 -0.38968339074E+02  0.28321911527E+02 -0.22396667026E+02  0.53289259862E+02  0.41800000000E+01 0.  1.
         -5    1    4    4    0  501 -0.16254507153E+03 -0.42128819733E+02  0.10565596857E+03  0.19843486041E+03  0.41800000000E+01 0.  1.
</event>
<event>
11    1  0.8453735E-009  0.1981613E+03  0.7561462E-02  0.1055832E+00
         22   -1    0    0    0    0  0.00000000000E+00  0.00000000000E+00  0.25285484782E+04  0.25285484782E+04  0.00000000000E+00 0.  1.
         22   -1    0    0    0    0 -0.00000000000E+00 -0.00000000000E+00 -0.22700328950E+03  0.22700328950E+03  0.00000000000E+00 0.  1.
        -24    2    1    2    0    0 -0.13986986866E+03 -0.61199365233E+02 -0.18083310694E+03  0.24945319280E+03  0.78850113321E+02 0.  0.
         25    2    1    2    0    0  0.16711749993E+03  0.10305834720E+03  0.13624369602E+04  0.13821831810E+04  0.12508634515E+03 0.  0.
         24    2    1    2    0    0 -0.27247631271E+02 -0.41858981967E+02  0.11199413354E+04  0.11239153938E+04  0.80141187509E+02 0.  0.
        -13    1    5    5    0    0 -0.51748238549E+02 -0.93480128332E+01  0.54333735539E+03  0.54587612817E+03  0.00000000000E+00 0.  1.
         14    1    5    5    0    0  0.24500607279E+02 -0.32510969133E+02  0.57660398003E+03  0.57803926568E+03  0.00000000000E+00 0. -1.
         11    1    3    3    0    0  0.76635771254E+01 -0.31663232071E+01  0.83810729873E+00  0.83341730755E+01  0.00000000000E+00 0. -1.
        -12    1    3    3    0    0 -0.14753344578E+03 -0.58033042026E+02 -0.18167121424E+03  0.24111901973E+03  0.00000000000E+00 0.  1.
          5    1    4    4  501    0 -0.11038698446E+02 -0.59719125362E+01  0.22842997051E+02  0.26396808841E+02  0.41800000000E+01 0. -1.
         -5    1    4    4    0  501  0.17815619837E+03  0.10903025974E+03  0.13395939631E+04  0.13557863722E+04  0.41800000000E+01 0. -1.
</event>
<event>
11    1  0.8453735E-009  0.1760535E+03  0.7561462E-02  0.1072881E+00
         22   -1    0    0    0    0  0.00000000000E+00  0.00000000000E+00  0.24248766288E+03  0.24248766288E+03  0.00000000000E+00 0. -1.
         22   -1    0    0    0    0 -0.00000000000E+00 -0.00000000000E+00 -0.74674622615E+03  0.74674622615E+03  0.00000000000E+00 0. -1.
        -24    2    1    2    0    0  0.67346648119E+02 -0.10283438980E+03 -0.58871528720E+03  0.60667549166E+03  0.79743213231E+02 0.  0.
         25    2    1    2    0    0 -0.70752787748E+02  0.10916421990E+03 -0.81788390417E+02  0.19814165970E+03  0.12509193667E+03 0.  0.
         24    2    1    2    0    0  0.34061396292E+01 -0.63298301080E+01  0.16624511436E+03  0.18441673767E+03  0.79501110368E+02 0.  0.
        -11    1    5    5    0    0  0.15523820480E+02 -0.67761749667E+01 -0.77597405216E+00  0.16956051581E+02  0.00000000000E+00 0.  1.
         12    1    5    5    0    0 -0.12117680851E+02  0.44634485866E+00  0.16702108841E+03  0.16746068609E+03  0.00000000000E+00 0. -1.
         11    1    3    3    0    0  0.50205829008E+02 -0.11458335691E+03 -0.52295342317E+03  0.53770833521E+03  0.00000000000E+00 0. -1.
        -12    1    3    3    0    0  0.17140819110E+02  0.11748967112E+02 -0.65761864032E+02  0.68967156451E+02  0.00000000000E+00 0.  1.
          5    1    4    4  501    0  0.14575670967E+02  0.28580741917E+02 -0.73622822773E+02  0.80418290368E+02  0.41800000000E+01 0. -1.
         -5    1    4    4    0  501 -0.85328458715E+02  0.80583477988E+02 -0.81655676441E+01  0.11772336933E+03  0.41800000000E+01 0. -1.
</event>
<event>
11    1  0.8453735E-009  0.1548368E+03  0.7561462E-02  0.1092036E+00
         22   -1    0    0    0    0  0.00000000000E+00  0.00000000000E+00  0.78016651549E+03  0.78016651549E+03  0.00000000000E+00 0. -1.
         22   -1    0    0    0    0 -0.00000000000E+00 -0.00000000000E+00 -0.12519291885E+03  0.12519291885E+03  0.00000000000E+00 0.  1.
         24    2    1    2    0    0 -0.86358009848E+02  0.14551770514E+02 -0.52637028510E+02  0.13037671907E+03  0.80981307813E+02 0.  0.
         25    2    1    2    0    0  0.12152005620E+03  0.26882986593E+02  0.24202823157E+03  0.29952455737E+03  0.12508987394E+03 0.  0.
        -24    2    1    2    0    0 -0.35162046355E+02 -0.41434757107E+02  0.46558239359E+03  0.47545815790E+03  0.79625913467E+02 0.  0.
        -11    1    3    3    0    0 -0.97019001385E+02 -0.43889650392E+00 -0.30728969070E+02  0.10177007812E+03  0.00000000000E+00 0.  1.
         12    1    3    3    0    0  0.10660991537E+02  0.14990667018E+02 -0.21908059440E+02  0.28606640953E+02  0.00000000000E+00 0. -1.
         11    1    5    5    0    0 -0.14245863573E+02 -0.44015472420E+02  0.43948749330E+03  0.44191578746E+03  0.00000000000E+00 0. -1.
        -12    1    5    5    0    0 -0.20916182782E+02  0.25807153129E+01  0.26094900291E+02  0.33542370442E+02  0.00000000000E+00 0.  1.
          5    1    4    4  501    0  0.49161695831E+02 -0.40600510934E+02  0.42406206628E+02  0.76687890737E+02  0.41800000000E+01 0. -1.
         -5    1    4    4    0  501  0.72358360371E+02  0.67483497527E+02  0.19962202494E+03  0.22283666663E+03  0.41800000000E+01 0. -1.
</event>
<event>
11    1  0.8453735E-009  0.1345956E+03  0.7561462E-02  0.1113748E+00
         22   -1    0    0    0    0  0.00000000000E+00  0.00000000000E+00  0.32410282783E+03  0.32410282783E+03  0.00000000000E+00 0.  1.
         22   -1    0    0    0    0 -0.00000000000E+00 -0.00000000000E+00 -0.62789057938E+03  0.62789057938E+03  0.00000000000E+00 0.  1.
        -24    2    1    2    0    0 -0.18617751266E+02 -0.47602090296E+02 -0.50967900107E+03  0.51838602395E+03  0.79616619050E+02 0.  0.
         25    2    1    2    0    0  0.42974596186E+02  0.20736451186E+02 -0.65085461431E+02  0.14886260777E+03  0.12508853815E+03 0.  0.
         24    2    1    2    0    0 -0.24356844919E+02  0.26865639110E+02  0.27097671095E+03  0.28474477549E+03  0.79600193670E+02 0.  0.
        -11    1    5    5    0    0  0.11767264991E+02  0.45081700429E+02  0.13101239655E+03  0.13905062491E+03  0.00000000000E+00 0.  1.
         12    1    5    5    0    0 -0.36124109910E+02 -0.18216061319E+02  0.13996431441E+03  0.14569415058E+03  0.00000000000E+00 0. -1.
         11    1    3    3    0    0 -0.12852433200E+02 -0.20295852998E+02 -0.32619864383E+02  0.40511260662E+02  0.00000000000E+00 0. -1.
        -12    1    3    3    0    0 -0.57653180663E+01 -0.27306237298E+02 -0.47705913669E+03  0.47787476329E+03  0.00000000000E+00 0.  1.
          5    1    4    4  501    0  0.82709999952E+02 -0.98162449794E+01 -0.44392885110E+02  0.94474882408E+02  0.41800000000E+01 0. -1.
         -5    1    4    4    0  501 -0.39735403766E+02  0.30552696165E+02 -0.20692576321E+02  0.54387725364E+02  0.41800000000E+01 0. -1.
</event>
<event>
11    1  0.8453735E-009  0.1453718E+03  0.7561462E-02  0.1101704E+00
         22   -1    0    0    0    0  0.00000000000E+00  0.00000000000E+00  0.10324129697E+04  0.10324129697E+04  0.00000000000E+00 0. -1.
         22   -1    0    0    0    0 -0.00000000000E+00 -0.00000000000E+00 -0.86054078701E+02  0.86054078701E+02  0.00000000000E+00 0.  1.
        -24    2    1    2    0    0 -0.67941705410E+02  0.17672427187E+02  0.10273726298E+02  0.10691510054E+03  0.79980617999E+02 0.  0.
         25    2    1    2    0    0  0.61214157793E+02 -0.82275604031E+02  0.15612025250E+03  0.22480862538E+03  0.12509571005E+03 0.  0.
         24    2    1    2    0    0  0.67275476168E+01  0.64603176844E+02  0.77996491216E+03  0.78674332243E+03  0.80006005014E+02 0.  0.
        -11    1    5    5    0    0 -0.99532106444E+01  0.70085528765E+02  0.38927439491E+03  0.39565844143E+03  0.00000000000E+00 0.  1.
         12    1    5    5    0    0  0.16680758261E+02 -0.54823519207E+01  0.39069051725E+03  0.39108488100E+03  0.00000000000E+00 0. -1.
         13    1    3    3    0    0 -0.37040841734E+02  0.28149298768E+02  0.41062991159E+02  0.62053011373E+02  0.00000000000E+00 0. -1.
        -14    1    3    3    0    0 -0.30900863676E+02 -0.10476871582E+02 -0.30789264861E+02  0.44862089170E+02  0.00000000000E+00 0.  1.
          5    1    4    4  501    0  0.40170978155E+02 -0.11526625159E+03  0.11239912020E+03  0.16598509229E+03  0.41800000000E+01 0.  1.
         -5    1    4    4    0  501  0.21043179637E+02  0.32990647559E+02  0.43721132295E+02  0.58823533086E+02  0.41800000000E+01 0.  1.
</event>
<event>
11    1  0.8453735E-009  0.1461719E+03  0.7561462E-02  0.1100856E+00
         22   -1    0    0    0    0  0.00000000000E+00  0.00000000000E+00  0.19619239623E+04  0.19619239623E+04  0.00000000000E+00 0.  1.
         22   -1    0    0    0    0 -0.00000000000E+00 -0.00000000000E+00 -0.24852908739E+03  0.24852908739E+03  0.00000000000E+00 0. -1.
        -24    2    1    2    0    0 -0.39245926488E+02  0.28073240165E+02 -0.21387248730E+03  0.23398394439E+03  0.81723288280E+02 0.  0.
         25    2    1    2    0    0 -0.10355681401E+02  0.33449407143E+02  0.16227718360E+03  0.20786520087E+03  0.12509178406E+03 0.  0.
         24    2    1    2    0    0  0.49601607889E+02 -0.61522647307E+02  0.17649901786E+04  0.17686039045E+04  0.80771805412E+02 0.  0.
        -13    1    5    5    0    0  0.57983946035E+02 -0.76229591517E+02  0.15425920682E+04  0.15455624793E+04  0.00000000000E+00 0.  1.
         14    1    5    5    0    0 -0.83823381463E+01  0.14706944210E+02  0.22239811046E+03  0.22304142515E+03  0.00000000000E+00 0. -1.
         11    1    3    3    0    0 -0.10098558827E+02  0.53577720004E+02 -0.10297578154E+03  0.11651851593E+03  0.00000000000E+00 0. -1.
        -12    1    3    3    0    0 -0.29147367661E+02 -0.25504479839E+02 -0.11089670576E+03  0.11746542846E+03  0.00000000000E+00 0.  1.
          5    1    4    4  501    0  0.94042192088E+01  0.22782743932E+01  0.16966750345E+03  0.16999459992E+03  0.41800000000E+01 0.  1.
         -5    1    4    4    0  501 -0.19759900610E+02  0.31171132749E+02 -0.73903198521E+01  0.37870600952E+02  0.41800000000E+01 0.  1.
</event>
<event>
11    1  0.8453735E-009  0.5744258E+03  0.7561462E-02  0.9241048E-01
         22   -1    0    0    0    0  0.00000000000E+00  0.00000000000E+00  0.25928165555E+03  0.25928165555E+03  0.00000000000E+00 0.  1.
         22   -1    0    0    0    0 -0.00000000000E+00 -0.00000000000E+00 -0.18569894605E+04  0.18569894605E+04  0.00000000000E+00 0.  1.
        -24    2    1    2    0    0 -0.33515091946E+02 -0.55722553003E+03 -0.11976517245E+04  0.13237947267E+04  0.80245078820E+02 0.  0.
         25    2    1    2    0    0  0.92128138476E+02  0.56152553843E+03 -0.35429350422E+03  0.68188882702E+03  0.12509980450E+03 0.  0.
         24    2    1    2    0    0 -0.58613046530E+02 -0.43000083961E+01 -0.45762576251E+02  0.11058756230E+03  0.81739930599E+02 0.  0.
        -11    1    5    5    0    0 -0.30251635962E+02 -0.42880373582E+02 -0.19563963823E+02  0.56005683617E+02  0.00000000000E+00 0.  1.
         12    1    5    5    0    0 -0.28361410568E+02  0.38580365186E+02 -0.26198612428E+02  0.54581878682E+02  0.00000000000E+00 0. -1.
         11    1    3    3    0    0 -0.57313553112E+02 -0.28612425041E+03 -0.61431627805E+03  0.68010030107E+03  0.00000000000E+00 0. -1.
        -12    1    3    3    0    0  0.23798461166E+02 -0.27110127962E+03 -0.58333544643E+03  0.64369442566E+03  0.00000000000E+00 0.  1.
          5    1    4    4  501    0  0.24543569511E+02  0.21343334873E+02 -0.45232025364E+02  0.55868893549E+02  0.41800000000E+01 0. -1.
         -5    1    4    4    0  501  0.67584568965E+02  0.54018220355E+03 -0.30906147885E+03  0.62601993347E+03  0.41800000000E+01 0. -1.
</event>
<event>
11    1  0.8453735E-009  0.3613829E+03  0.7561462E-02  0.9771117E-01
         22   -1    0    0    0    0  0.00000000000E+00  0.00000000000E+00  0.66748310603E+03  0.66748310603E+03  0.00000000000E+00 0. -1.
         22   -1    0    0    0    0 -0.00000000000E+00 -0.00000000000E+00 -0.13260550855E+04  0.13260550855E+04  0.00000000000E+00 0. -1.
        -24    2    1    2    0    0  0.20481798978E+02 -0.75583656225E+02 -0.35481417054E+03  0.37220137951E+03  0.80674519608E+02 0.  0.
         25    2    1    2    0    0 -0.84576562123E+02  0.40447375009E+03 -0.86268281593E+03  0.96468735058E+03  0.12509130303E+03 0.  0.
         24    2    1    2    0    0  0.64094763145E+02 -0.32889009386E+03  0.55892500697E+03  0.65664946148E+03  0.80712572435E+02 0.  0.
        -13    1    5    5    0    0  0.56498212680E+01 -0.49960014140E+02  0.38585231401E+02  0.63377784558E+02  0.00000000000E+00 0.  1.
         14    1    5    5    0    0  0.58444941877E+02 -0.27893007972E+03  0.52033977557E+03  0.59327167692E+03  0.00000000000E+00 0. -1.
         11    1    3    3    0    0  0.44892311840E+01 -0.75811555243E+02 -0.34538235426E+03  0.35363330689E+03  0.00000000000E+00 0. -1.
        -12    1    3    3    0    0  0.15992567794E+02  0.22789901861E+00 -0.94318162830E+01  0.18568072625E+02  0.00000000000E+00 0.  1.
          5    1    4    4  501    0 -0.69519029457E+02  0.12989262546E+03 -0.40184990590E+03  0.42802547691E+03  0.41800000000E+01 0.  1.
         -5    1    4    4    0  501 -0.15057532666E+02  0.27458112462E+03 -0.46083291003E+03  0.53666187367E+03  0.41800000000E+01 0.  1.
</event>
<event>
11    1  0.8453735E-009  0.1532592E+03  0.7561462E-02  0.1093594E+00
         22   -1    0    0    0    0  0.00000000000E+00  0.00000000000E+00  0.14521081527E+03  0.14521081527E+03  0.00000000000E+00 0. -1.
         22   -1    0    0    0    0 -0.00000000000E+00 -0.00000000000E+00 -0.10478467616E+04  0.10478467616E+04  0.00000000000E+00 0.  1.
        -24    2    1    2    0    0 -0.79924904845E+02 -0.20858358775E+02 -0.54796439353E+03  0.56030890120E+03  0.82813203302E+02 0.  0.
         25    2    1    2    0    0  0.89876749011E+02  0.53500715228E+02 -0.46442611919E+03  0.49221830436E+03  0.12508829847E+03 0.  0.
         24    2    1    2    0    0 -0.99518441664E+01 -0.32642356453E+02  0.10975456644E+03  0.14053037127E+03  0.80858875572E+02 0.  0.
        -11    1    5    5    0    0 -0.42066491917E+02 -0.30068882361E+02  0.46488919299E+02  0.69533783489E+02  0.00000000000E+00 0.  1.
         12    1    5    5    0    0  0.32114647750E+02 -0.25734740921E+01  0.63265647140E+02  0.70996587785E+02  0.00000000000E+00 0. -1.
         13    1    3    3    0    0 -0.32149912301E+02  0.24316525284E+02 -0.10465231189E+03  0.11214729888E+03  0.00000000000E+00 0. -1.
        -14    1    3    3    0    0 -0.47774992543E+02 -0.45174884059E+02 -0.44331208165E+03  0.44816160232E+03  0.00000000000E+00 0.  1.
          5    1    4    4  501    0  0.11380667680E+03  0.12222175198E+02 -0.34636509882E+03  0.36481172587E+03  0.41800000000E+01 0.  1.
         -5    1    4    4    0  501 -0.23929927790E+02  0.41278540030E+02 -0.11806102037E+03  0.12740657849E+03  0.41800000000E+01 0.  1.
</event>
<event>
11    1  0.8453735E-009  0.4895853E+03  0.7561462E-02  0.9417099E-01
         22   -1    0    0    0    0  0.00000000000E+00  0.00000000000E+00  0.28074518147E+04  0.28074518147E+04  0.00000000000E+00 0. -1.
         22   -1    0    0    0    0 -0.00000000000E+00 -0.00000000000E+00 -0.20751510504E+03  0.20751510504E+03  0.00000000000E+00 0. -1.
         24    2    1    2    0    0  0.10765770502E+03 -0.15395200842E+03  0.35267728424E+03  0.40721857227E+03  0.78449324024E+02 0.  0.
         25    2    1    2    0    0 -0.26372199227E+02  0.49891926006E+03  0.24067938275E+03  0.56849792594E+03  0.12508959016E+03 0.  0.
        -24    2    1    2    0    0 -0.81285505796E+02 -0.34496725164E+03  0.20065800427E+04  0.20392504216E+04  0.81049836058E+02 0.  0.
        -13    1    3    3    0    0 -0.12466386490E+02 -0.93077894302E+01  0.26301536935E+02  0.30558412612E+02  0.00000000000E+00 0.  1.
         14    1    3    3    0    0  0.12012409151E+03 -0.14464421899E+03  0.32637574730E+03  0.37666015966E+03  0.00000000000E+00 0. -1.
         13    1    5    5    0    0 -0.54033195737E+02 -0.31226993015E+03  0.16517995085E+04  0.16819255964E+04  0.00000000000E+00 0. -1.
        -14    1    5    5    0    0 -0.27252310059E+02 -0.32697321496E+02  0.35478053424E+03  0.35732482521E+03  0.00000000000E+00 0.  1.
          5    1    4    4  501    0 -0.26671781385E+02  0.29509145097E+03  0.74671528369E+02  0.30558739814E+03  0.41800000000E+01 0. -1.
         -5    1    4    4    0  501  0.29958215836E+00  0.20382780910E+03  0.16600785438E+03  0.26291052780E+03  0.41800000000E+01 0. -1.
</event>
<event>
11    1  0.8453735E-009  0.1325785E+03  0.7561462E-02  0.1116141E+00
         22   -1    0    0    0    0  0.00000000000E+00  0.00000000000E+00  0.20327618582E+04  0.20327618582E+04  0.00000000000E+00 0.  1.
         22   -1    0    0    0    0 -0.00000000000E+00 -0.00000000000E+00 -0.32239429859E+02  0.32239429859E+02  0.00000000000E+00 0. -1.
        -24    2    1    2    0    0 -0.52220948852E+01  0.50043063854E+02  0.76412079009E+02  0.12202015999E+03  0.80737445529E+02 0.  0.
         25    2    1    2    0    0 -0.64050400930E+01 -0.12903312104E+02  0.48418488317E+03  0.50028923258E+03  0.12508715020E+03 0.  0.
         24    2    1    2    0    0  0.11627134978E+02 -0.37139751750E+02  0.14399254662E+04  0.14426918955E+04  0.80374161109E+02 0.  0.
        -13    1    5    5    0    0  0.42950421582E+02 -0.11898011524E+02  0.97912614321E+03  0.98013994190E+03  0.00000000000E+00 0.  1.
         14    1    5    5    0    0 -0.31323286604E+02 -0.25241740226E+02  0.46079932300E+03  0.46255195363E+03  0.00000000000E+00 0. -1.
         11    1    3    3    0    0  0.45148380627E+01  0.24531254645E+02 -0.13283663149E+02  0.28259899573E+02  0.00000000000E+00 0. -1.
        -12    1    3    3    0    0 -0.97369329479E+01  0.25511809209E+02  0.89695742158E+02  0.93760260417E+02  0.00000000000E+00 0.  1.
          5    1    4    4  501    0 -0.38278715829E+02 -0.42260388264E+02  0.41233266632E+03  0.41627743227E+03  0.41800000000E+01 0.  1.
         -5    1    4    4    0  501  0.31873675736E+02  0.29357076159E+02  0.71852216848E+02  0.84011800311E+02  0.41800000000E+01 0.  1.
</event>
<event>
11    1  0.8453735E-009  0.1431831E+03  0.7561462E-02  0.1104055E+00
         22   -1    0    0    0    0  0.00000000000E+00  0.00000000000E+00  0.14451419418E+04  0.14451419418E+04  0.00000000000E+00 0.  1.
         22   -1    0    0    0    0 -0.00000000000E+00 -0.00000000000E+00 -0.49646518619E+03  0.49646518619E+03  0.00000000000E+00 0.  1.
         24    2    1    2    0    0  0.26226953766E+02 -0.64434978725E+02 -0.47851689110E+03  0.49077358425E+03  0.83908142321E+02 0.  0.
         25    2    1    2    0    0 -0.91427011106E+02  0.54870254178E+02  0.87134485148E+03  0.88671180443E+03  0.12508529398E+03 0.  0.
        -24    2    1    2    0    0  0.65200057339E+02  0.95647245461E+01  0.55584879521E+03  0.56412173928E+03  0.70163538657E+02 0.  0.
        -11    1    3    3    0    0 -0.19276775128E+01 -0.72103227969E+02 -0.41008472890E+03  0.41637972609E+03  0.00000000000E+00 0.  1.
         12    1    3    3    0    0  0.28154631279E+02  0.76682492442E+01 -0.68432162200E+02  0.74393858162E+02  0.00000000000E+00 0. -1.
         11    1    5    5    0    0  0.35830514292E+01 -0.43601695864E+01  0.10527695321E+01  0.57408762445E+01  0.00000000000E+00 0. -1.
        -12    1    5    5    0    0  0.61617005910E+02  0.13924894133E+02  0.55479602568E+03  0.55838086303E+03  0.00000000000E+00 0.  1.
          5    1    4    4  501    0 -0.11651239228E+02  0.23849317401E+02  0.27221260067E+02  0.38249323075E+02  0.41800000000E+01 0. -1.
         -5    1    4    4    0  501 -0.79775771878E+02  0.31020936777E+02  0.84412359141E+03  0.84846248136E+03  0.41800000000E+01 0. -1.
</event>
<event>
11    1  0.8453735E-009  0.1475292E+03  0.7561462E-02  0.1099431E+00
         22   -1    0    0    0    0  0.00000000000E+00  0.00000000000E+00  0.23846677213E+03  0.23846677213E+03  0.00000000000E+00 0.  1.
         22   -1    0    0    0    0 -0.00000000000E+00 -0.00000000000E+00 -0.16309773704E+04  0.16309773704E+04  0.00000000000E+00 0. -1.
         24    2    1    2    0    0 -0.68723534727E+02  0.44598378781E+02 -0.14376774899E+04  0.14421864040E+04  0.79203024894E+02 0.  0.
         25    2    1    2    0    0  0.52881683225E+02  0.19830122148E+02 -0.15147078399E+03  0.20440380825E+03  0.12509121577E+03 0.  0.
        -24    2    1    2    0    0  0.15841851502E+02 -0.64428500929E+02  0.19663767567E+03  0.22285393029E+03  0.81212700742E+02 0.  0.
        -13    1    3    3    0    0  0.10177148253E+02  0.32578014109E+02 -0.42182716969E+03  0.42320569755E+03  0.00000000000E+00 0.  1.
         14    1    3    3    0    0 -0.78900682979E+02  0.12020364672E+02 -0.10158503203E+04  0.10189807064E+04  0.00000000000E+00 0. -1.
         11    1    5    5    0    0  0.27142524829E+01 -0.68553829580E+01 -0.73981183915E+01  0.10444883809E+02  0.00000000000E+00 0. -1.
        -12    1    5    5    0    0  0.13127599019E+02 -0.57573117971E+02  0.20403579406E+03  0.21240904648E+03  0.00000000000E+00 0.  1.
          5    1    4    4  501    0  0.31471573883E+02  0.45566327434E+02 -0.69165942059E+01  0.55964826757E+02  0.41800000000E+01 0.  1.
         -5    1    4    4    0  501  0.21410109342E+02 -0.25736205286E+02 -0.14455418978E+03  0.14843898150E+03  0.41800000000E+01 0.  1.
</event>
<event>
11    1  0.8453735E-009  0.2365925E+03  0.7561462E-02  0.1031294E+00
         22   -1    0    0    0    0  0.00000000000E+00  0.00000000000E+00  0.81737798247E+02  0.81737798247E+02  0.00000000000E+00 0. -1.
         22   -1    0    0    0    0 -0.00000000000E+00 -0.00000000000E+00 -0.19780793208E+04  0.19780793208E+04  0.00000000000E+00 0.  1.
        -24    2    1    2    0    0 -0.61697422871E+02 -0.10106719892E+03 -0.78587746595E+03  0.79871894057E+03  0.79544980107E+02 0.  0.
         25    2    1    2    0    0  0.22055694502E+03 -0.24053884909E+02 -0.96718898288E+03  0.10001625701E+04  0.12508670025E+03 0.  0.
         24    2    1    2    0    0 -0.15885952215E+03  0.12512108382E+03 -0.14327507370E+03  0.26093560838E+03  0.81657893587E+02 0.  0.
        -11    1    5    5    0    0 -0.34545161617E+02  0.29644697419E+02  0.42042566257E+01  0.45714899649E+02  0.00000000000E+00 0.  1.
         12    1    5    5    0    0 -0.12431436053E+03  0.95476386405E+02 -0.14747933033E+03  0.21522070873E+03  0.00000000000E+00 0. -1.
         13    1    3    3    0    0 -0.25813271182E+02 -0.66116527850E+02 -0.23284488393E+03  0.24342239050E+03  0.00000000000E+00 0. -1.
        -14    1    3    3    0    0 -0.35884151688E+02 -0.34950671065E+02 -0.55303258202E+03  0.55529655008E+03  0.00000000000E+00 0.  1.
          5    1    4    4  501    0  0.52799748135E+02 -0.13566627253E+02 -0.51203921809E+03  0.51494999761E+03  0.41800000000E+01 0.  1.
         -5    1    4    4    0  501  0.16775719688E+03 -0.10487257656E+02 -0.45514976479E+03  0.48521257246E+03  0.41800000000E+01 0.  1.
</event>
<event>
11    1  0.8453735E-009  0.1309919E+03  0.7561462E-02  0.1118056E+00
         22   -1    0    0    0    0  0.00000000000E+00  0.00000000000E+00  0.72323495235E+03  0.72323495235E+03  0.00000000000E+00 0. -1.
         22   -1    0    0    0    0 -0.00000000000E+00 -0.00000000000E+00 -0.66712003435E+03  0.66712003435E+03  0.00000000000E+00 0.  1.
         24    2    1    2    0    0  0.10234051326E+02 -0.12087313646E+02 -0.44323570606E+03  0.45020168413E+03  0.77284062475E+02 0.  0.
         25    2    1    2    0    0  0.16746002882E+02 -0.16172750522E+02 -0.19914102542E+03  0.23631840769E+03  0.12508898967E+03 0.  0.
        -24    2    1    2    0    0 -0.26980054208E+02  0.28260064169E+02  0.69849164948E+03  0.70383489488E+03  0.77242606851E+02 0.  0.
        -13    1    3    3    0    0  0.83949811613E+00 -0.44217915468E+02 -0.28992404359E+03  0.29327782027E+03  0.00000000000E+00 0.  1.
         14    1    3    3    0    0  0.93945532102E+01  0.32130601822E+02 -0.15331166246E+03  0.15692386387E+03  0.00000000000E+00 0. -1.
         11    1    5    5    0    0 -0.36855072613E+02 -0.11018612935E+02  0.19765780571E+03  0.20136612021E+03  0.00000000000E+00 0. -1.
        -12    1    5    5    0    0  0.98750184041E+01  0.39278677104E+02  0.50083384376E+03  0.50246877467E+03  0.00000000000E+00 0.  1.
          5    1    4    4  501    0 -0.52872857745E+02 -0.24165910299E+01 -0.11130982578E+03  0.12332367458E+03  0.41800000000E+01 0.  1.
         -5    1    4    4    0  501  0.69618860628E+02 -0.13756159492E+02 -0.87831199640E+02  0.11299473310E+03  0.41800000000E+01 0.  1.
</event>
<event>
11    1  0.8453735E-009  0.1577794E+03  0.7561462E-02  0.1089185E+00
         22   -1    0    0    0    0  0.00000000000E+00  0.00000000000E+00  0.15928598732E+04  0.15928598732E+04  0.00000000000E+00 0.  1.
         22   -1    0    0    0    0 -0.00000000000E+00 -0.00000000000E+00 -0.42869646373E+03  0.42869646373E+03  0.00000000000E+00 0.  1.
         24    2    1    2    0    0 -0.36764412771E+02  0.25553084593E+02 -0.37564766229E+03  0.38679871047E+03  0.80607034834E+02 0.  0.
         25    2    1    2    0    0  0.13064126193E+03 -0.18432810425E+02  0.13993998946E+03  0.22943095847E+03  0.12509378976E+03 0.  0.
        -24    2    1    2    0    0 -0.93876849158E+02 -0.71202741683E+01  0.13998710823E+04  0.14053266680E+04  0.80252324633E+02 0.  0.
        -11    1    3    3    0    0 -0.38510121529E+02  0.35150938021E+02 -0.37308716663E+03  0.37671295679E+03  0.00000000000E+00 0.  1.
         12    1    3    3    0    0  0.17457087578E+01 -0.95978534273E+01 -0.25604956535E+01  0.10085753689E+02  0.00000000000E+00 0. -1.
         13    1    5    5    0    0 -0.22039500219E+02  0.21822499436E+02  0.15638025567E+03  0.15942630089E+03  0.00000000000E+00 0. -1.
        -14    1    5    5    0    0 -0.71837348939E+02 -0.28942773604E+02  0.12434908266E+04  0.12459003671E+04  0.00000000000E+00 0.  1.
          5    1    4    4  501    0  0.14661782615E+03 -0.14383070606E+02  0.81178907659E+02  0.16825916651E+03  0.41800000000E+01 0.  1.
         -5    1    4    4    0  501 -0.15976564225E+02 -0.40497398196E+01  0.58761081799E+02  0.61171791957E+02  0.41800000000E+01 0.  1.
</event>
<event>
11    1  0.8453735E-009  0.4503436E+03  0.7561462E-02  0.9511883E-01
         22   -1    0    0    0    0  0.00000000000E+00  0.00000000000E+00  0.77091876759E+03  0.77091876759E+03  0.00000000000E+00 0. -1.
         22   -1    0    0    0    0 -0.00000000000E+00 -0.00000000000E+00 -0.19125124417E+04  0.19125124417E+04  0.00000000000E+00 0.  1.
        -24    2    1    2    0    0 -0.28687696876E+03 -0.29081545386E+03 -0.14056481207E+04  0.14660062562E+04  0.80347248868E+02 0.  0.
         25    2    1    2    0    0  0.33439473729E+03  0.54376569424E+03 -0.20004656525E+03  0.68056720658E+03  0.12510844830E+03 0.  0.
         24    2    1    2    0    0 -0.47517768533E+02 -0.25295024038E+03  0.46410101185E+03  0.53685774656E+03  0.81146339469E+02 0.  0.
        -11    1    5    5    0    0 -0.90677525953E+01 -0.53078722952E+02  0.42153155218E+02  0.68384672714E+02  0.00000000000E+00 0.  1.
         12    1    5    5    0    0 -0.38450015937E+02 -0.19987151743E+03  0.42194785663E+03  0.46847307385E+03  0.00000000000E+00 0. -1.
         13    1    3    3    0    0 -0.31145559905E+02 -0.72733434905E+02 -0.22804679486E+03  0.24138255758E+03  0.00000000000E+00 0. -1.
        -14    1    3    3    0    0 -0.25573140886E+03 -0.21808201896E+03 -0.11776013259E+04  0.12246236986E+04  0.00000000000E+00 0.  1.
          5    1    4    4  501    0  0.15794759423E+03  0.34649155804E+03 -0.15909789381E+03  0.41271473748E+03  0.41800000000E+01 0.  1.
         -5    1    4    4    0  501  0.17644714306E+03  0.19727413620E+03 -0.40948671438E+02  0.26785246910E+03  0.41800000000E+01 0.  1.
</event>
<event>
11    1  0.8453735E-009  0.2841689E+03  0.7561462E-02  0.1007123E+00
         22   -1    0    0    0    0  0.00000000000E+00  0.00000000000E+00  0.16630468140E+03  0.16630468140E+03  0.00000000000E+00 0.  1.
         22   -1    0    0    0    0 -0.00000000000E+00 -0.00000000000E+00 -0.22811085871E+04  0.22811085871E+04  0.00000000000E+00 0.  1.
        -24    2    1    2    0    0  0.21392726380E+03 -0.13561592236E+03 -0.19839821556E+04  0.20016614172E+04  0.79414625280E+02 0.  0.
         25    2    1    2    0    0 -0.26673275899E+03  0.10640409408E+03 -0.58948155700E+02  0.31873024806E+03  0.12508353213E+03 0.  0.
         24    2    1    2    0    0  0.52805495189E+02  0.29211828287E+02 -0.71873594420E+02  0.12702160327E+03  0.85597446739E+02 0.  0.
        -11    1    5    5    0    0  0.39897239398E+02 -0.24560829558E+02 -0.19144362445E+02  0.50611566598E+02  0.00000000000E+00 0.  1.
         12    1    5    5    0    0  0.12908255791E+02  0.53772657845E+02 -0.52729231975E+02  0.76410036671E+02  0.00000000000E+00 0. -1.
         11    1    3    3    0    0  0.60403493924E+02 -0.71604782677E+02 -0.53223012918E+03  0.54041163699E+03  0.00000000000E+00 0. -1.
        -12    1    3    3    0    0  0.15352376988E+03 -0.64011139686E+02 -0.14517520264E+04  0.14612497802E+04  0.00000000000E+00 0.  1.
          5    1    4    4  501    0 -0.18929208371E+03  0.75797383945E+02 -0.98456854140E+02  0.22646845452E+03  0.41800000000E+01 0. -1.
         -5    1    4    4    0  501 -0.77440675286E+02  0.30606710131E+02  0.39508698440E+02  0.92261793534E+02  0.41800000000E+01 0. -1.
</event>
<event>
11    1  0.8453735E-009  0.1285738E+03  0.7561462E-02  0.1121034E+00
         22   -1    0    0    0    0  0.00000000000E+00  0.00000000000E+00  0.35868460495E+03  0.35868460495E+03  0.00000000000E+00 0.  1.
         22   -1    0    0    0    0 -0.00000000000E+00 -0.00000000000E+00 -0.28993875488E+04  0.28993875488E+04  0.00000000000E+00 0. -1.
         24    2    1    2    0    0 -0.28311515919E+02 -0.88580558289E+01 -0.28494898825E+04  0.28508657382E+04  0.83443752714E+02 0.  0.
         25    2    1    2    0    0  0.32780322891E+02  0.32829901843E+02  0.63473481886E+02  0.14774314526E+03  0.12508717778E+03 0.  0.
        -24    2    1    2    0    0 -0.44688069730E+01 -0.23971846014E+02  0.24531345679E+03  0.25946327023E+03  0.80918952538E+02 0.  0.
        -11    1    3    3    0    0 -0.25180916306E+02  0.33154202773E+02 -0.95436082869E+03  0.95526848113E+03  0.00000000000E+00 0.  1.
         12    1    3    3    0    0 -0.31305996121E+01 -0.42012258602E+02 -0.18951290538E+04  0.18955972571E+04  0.00000000000E+00 0. -1.
         13    1    5    5    0    0  0.48671096804E+01 -0.36399501224E+02  0.42974027225E+02  0.56527687569E+02  0.00000000000E+00 0. -1.
        -14    1    5    5    0    0 -0.93359166533E+01  0.12427655210E+02  0.20233942957E+03  0.20293558266E+03  0.00000000000E+00 0.  1.
          5    1    4    4  501    0  0.16206398026E+02  0.32386564869E+01 -0.37473460143E+02  0.41168784873E+02  0.41800000000E+01 0. -1.
         -5    1    4    4    0  501  0.16573924865E+02  0.29591245356E+02  0.10094694203E+03  0.10657436039E+03  0.41800000000E+01 0. -1.
</event>
<event>
11    1  0.8974663E-009  0.1733937E+03  0.7561462E-02  0.1075115E+00
         22   -1    0    0    0    0  0.00000000000E+00  0.00000000000E+00  0.73849162893E+03  0.73849162893E+03  0.00000000000E+00 0. -1.
         22   -1    0    0    0    0 -0.00000000000E+00 -0.00000000000E+00 -0.74097326384E+03  0.74097326384E+03  0.00000000000E+00 0.  1.
        -24    2    1    2    0    0  0.49284836755E+02 -0.46449024319E+01 -0.64033916130E+03  0.64726367134E+03  0.80408012555E+02 0.  0.
         25    2    1    2    0    0 -0.38102944824E+02  0.12411875992E+03  0.18940052736E+01  0.18030568220E+03  0.12509696562E+03 0.  0.
         24    2    1    2    0    0 -0.11181891932E+02 -0.11947385748E+03  0.63596352112E+03  0.65189553924E+03  0.78225037918E+02 0.  0.
        -11    1    5    5    0    0  0.33308557833E+02 -0.52556066605E+02  0.24686750997E+03  0.25458823155E+03  0.00000000000E+00 0.  1.
         12    1    5    5    0    0 -0.44490449765E+02 -0.66917790879E+02  0.38909601115E+03  0.39730730770E+03  0.00000000000E+00 0. -1.
         11    1    3    3    0    0 -0.16690646147E+02  0.76824696446E+00 -0.40910936617E+02  0.44191318231E+02  0.00000000000E+00 0. -1.
        -12    1    3    3    0    0  0.65975482902E+02 -0.54131493963E+01 -0.59942822469E+03  0.60307235311E+03  0.00000000000E+00 0.  1.
          5    1    4    4  501    0 -0.79132424359E+02  0.46829073769E+02 -0.66493757038E+01  0.92285369004E+02  0.41800000000E+01 0.  1.
         -5    1    4    4    0  501  0.41029479535E+02  0.77289686147E+02  0.85433809774E+01  0.88020313191E+02  0.41800000000E+01 0.  1.
</event>
<event>
11    1  0.8453735E-009  0.2254601E+03  0.7561462E-02  0.1037850E+00
         22   -1    0    0    0    0  0.00000000000E+00  0.00000000000E+00  0.53977348852E+03  0.53977348852E+03  0.00000000000E+00 0. -1.
         22   -1    0    0    0    0 -0.00000000000E+00 -0.00000000000E+00 -0.40029224119E+03  0.40029224119E+03  0.00000000000E+00 0. -1.
         24    2    1    2    0    0 -0.12269711856E+02  0.14495573363E+02 -0.12239303651E+03  0.14824489264E+03  0.81460575323E+02 0.  0.
         25    2    1    2    0    0 -0.17615248735E+03 -0.51945117100E+01 -0.19485663825E+03  0.29098686077E+03  0.12509021512E+03 0.  0.
        -24    2    1    2    0    0  0.18842219920E+03 -0.93010616530E+01  0.45673092208E+03  0.50083397630E+03  0.81499090355E+02 0.  0.
        -13    1    3    3    0    0 -0.52108843512E+01  0.43358580942E+02 -0.35083202789E+02  0.56017416711E+02  0.00000000000E+00 0.  1.
         14    1    3    3    0    0 -0.70588275051E+01 -0.28863007578E+02 -0.87309833718E+02  0.92227475929E+02  0.00000000000E+00 0. -1.
         13    1    5    5    0    0  0.18073806360E+03 -0.23590525971E+02  0.36839260033E+03  0.41101808784E+03  0.00000000000E+00 0. -1.
        -14    1    5    5    0    0  0.76841356019E+01  0.14289464318E+02  0.88338321754E+02  0.89815888465E+02  0.00000000000E+00 0.  1.
          5    1    4    4  501    0 -0.18017598519E+03  0.28023843879E+02 -0.16430425933E+03  0.24548336705E+03  0.41800000000E+01 0. -1.
         -5    1    4    4    0  501  0.40234978397E+01 -0.33218355589E+02 -0.30552378924E+02  0.45503493721E+02  0.41800000000E+01 0. -1.
</event>
<event>
11    1  0.8453735E-009  0.2145312E+03  0.7561462E-02  0.1044698E+00
         22   -1    0    0    0    0  0.00000000000E+00  0.00000000000E+00  0.18862092440E+03  0.18862092440E+03  0.00000000000E+00 0.  1.
         22   -1    0    0    0    0 -0.00000000000E+00 -0.00000000000E+00 -0.10329865312E+04  0.10329865312E+04  0.00000000000E+00 0. -1.
         24    2    1    2    0    0  0.17635095695E+02  0.79997878250E+02 -0.52660726160E+03  0.53937108508E+03  0.83037957140E+02 0.  0.
         25    2    1    2    0    0  0.16257842526E+02 -0.24172905397E+03 -0.39750095691E+03  0.48202865394E+03  0.12508940603E+03 0.  0.
        -24    2    1    2    0    0 -0.33892938221E+02  0.16173117572E+03  0.79742611733E+02  0.20020771655E+03  0.80115798573E+02 0.  0.
        -11    1    3    3    0    0  0.39604470460E+02  0.69043052537E+01 -0.19342769313E+03  0.19756127146E+03  0.00000000000E+00 0.  1.
         12    1    3    3    0    0 -0.21969374765E+02  0.73093572996E+02 -0.33317956847E+03  0.34180981362E+03  0.00000000000E+00 0. -1.
         11    1    5    5    0    0 -0.73118300125E+01  0.13852315202E+03  0.34702696694E+02  0.14299092160E+03  0.00000000000E+00 0. -1.
        -12    1    5    5    0    0 -0.26581108208E+02  0.23208023700E+02  0.45039915038E+02  0.57216794950E+02  0.00000000000E+00 0.  1.
          5    1    4    4  501    0 -0.49921731228E+02 -0.15833728043E+03 -0.24644897625E+03  0.29718250944E+03  0.41800000000E+01 0. -1.
         -5    1    4    4    0  501  0.66179573754E+02 -0.83391773541E+02 -0.15105198066E+03  0.18484614450E+03  0.41800000000E+01 0. -1.
</event>
<event>
11    1  0.8453735E-009  0.1856049E+03  0.7561462E-02  0.1065197E+00
         22   -1    0    0    0    0  0.00000000000E+00  0.00000000000E+00  0.16942314193E+04  0.16942314193E+04  0.00000000000E+00 0. -1.
         22   -1    0    0    0    0 -0.00000000000E+00 -0.00000000000E+00 -0.10904692486E+04  0.10904692486E+04  0.00000000000E+00 0. -1.
        -24    2    1    2    0    0 -0.90984103859E+02  0.10055689961E+03 -0.10350977020E+04  0.10469297989E+04  0.79025021676E+02 0.  0.
         25    2    1    2    0    0  0.13489554851E+03 -0.21985839566E+03  0.41209181388E+03  0.50199823342E+03  0.12509212663E+03 0.  0.
         24    2    1    2    0    0 -0.43911444650E+02  0.11930149605E+03  0.12267680588E+04  0.12357726356E+04  0.77544019291E+02 0.  0.
        -11    1    5    5    0    0 -0.91471767309E+01 -0.44515564233E+01  0.29549362119E+03  0.29566867835E+03  0.00000000000E+00 0.  1.
         12    1    5    5    0    0 -0.34764267919E+02  0.12375305247E+03  0.93127443759E+03  0.94010395724E+03  0.00000000000E+00 0. -1.
         11    1    3    3    0    0 -0.66132106945E+02  0.67947613953E+02 -0.91756865683E+03  0.92245464593E+03  0.00000000000E+00 0. -1.
        -12    1    3    3    0    0 -0.24851996914E+02  0.32609285660E+02 -0.11752904515E+03  0.12447515301E+03  0.00000000000E+00 0.  1.
          5    1    4    4  501    0  0.58971685471E+02 -0.18868050717E+03  0.23751686273E+03  0.30904647863E+03  0.41800000000E+01 0. -1.
         -5    1    4    4    0  501  0.75923863038E+02 -0.31177888495E+02  0.17457495114E+03  0.19295175479E+03  0.41800000000E+01 0. -1.
</event>
<event>
11    1  0.8453735E-009  0.1488011E+03  0.7561462E-02  0.1098110E+00
         22   -1    0    0    0    0  0.00000000000E+00  0.00000000000E+00  0.19148106264E+04  0.19148106264E+04  0.00000000000E+00 0.  1.
         22   -1    0    0    0    0 -0.00000000000E+00 -0.00000000000E+00 -0.56038396510E+02  0.56038396510E+02  0.00000000000E+00 0. -1.
        -24    2    1    2    0    0 -0.19766351102E+01  0.70838461364E+02  0.63838152788E+02  0.12526078844E+03  0.81197048433E+02 0.  0.
         25    2    1    2    0    0 -0.21006416143E+02 -0.11072350705E+03  0.27149872655E+03  0.31946825226E+03  0.12508973239E+03 0.  0.
         24    2    1    2    0    0  0.22983051253E+02  0.39885045691E+02  0.15234353505E+04  0.15261199822E+04  0.77896696176E+02 0.  0.
        -11    1    5    5    0    0  0.46311001964E+02  0.33615451907E+02  0.13225614687E+04  0.13237989069E+04  0.00000000000E+00 0.  1.
         12    1    5    5    0    0 -0.23327950711E+02  0.62695937838E+01  0.20087388183E+03  0.20232107525E+03  0.00000000000E+00 0. -1.
         11    1    3    3    0    0 -0.54672565250E+01  0.69106854801E+02  0.81603173404E+02  0.10707346162E+03  0.00000000000E+00 0. -1.
        -12    1    3    3    0    0  0.34906214148E+01  0.17316065624E+01 -0.17765020617E+02  0.18187326815E+02  0.00000000000E+00 0.  1.
          5    1    4    4  501    0 -0.36641868879E+02 -0.92889067323E+02  0.27724507834E+03  0.29470885845E+03  0.41800000000E+01 0. -1.
         -5    1    4    4    0  501  0.15635452736E+02 -0.17834439732E+02 -0.57463517950E+01  0.24759393809E+02  0.41800000000E+01 0. -1.
</event>
<event>
11    1  0.8453735E-009  0.1707584E+03  0.7561462E-02  0.1077374E+00
         22   -1    0    0    0    0  0.00000000000E+00  0.00000000000E+00  0.15744759635E+04  0.15744759635E+04  0.00000000000E+00 0. -1.
         22   -1    0    0    0    0 -0.00000000000E+00 -0.00000000000E+00 -0.68432214383E+03  0.68432214383E+03  0.00000000000E+00 0.  1.
        -24    2    1    2    0    0 -0.25283428411E+02 -0.13590236047E+01 -0.52117387398E+03  0.52831223559E+03  0.82767823835E+02 0.  0.
         25    2    1    2    0    0  0.10900116220E+03  0.81435308081E+02 -0.10164358230E+03  0.21092603589E+03  0.12508162147E+03 0.  0.
         24    2    1    2    0    0 -0.83717733792E+02 -0.80076284476E+02  0.15129712760E+04  0.15195598359E+04  0.80988533646E+02 0.  0.
        -11    1    5    5    0    0 -0.37932744374E+02  0.63272661599E+01  0.63418352126E+03  0.63534846032E+03  0.00000000000E+00 0.  1.
         12    1    5    5    0    0 -0.45784989417E+02 -0.86403550636E+02  0.87878775472E+03  0.88421137556E+03  0.00000000000E+00 0. -1.
         13    1    3    3    0    0  0.26619598803E+02  0.14050391502E+02 -0.24839495596E+03  0.25021205145E+03  0.00000000000E+00 0. -1.
        -14    1    3    3    0    0 -0.51903027215E+02 -0.15409415107E+02 -0.27277891801E+03  0.27810018414E+03  0.00000000000E+00 0.  1.
          5    1    4    4  501    0  0.78654497341E+02  0.13559999183E+02  0.58721708017E+01  0.80139617666E+02  0.41800000000E+01 0.  1.
         -5    1    4    4    0  501  0.30346664863E+02  0.67875308898E+02 -0.10751575311E+03  0.13078641822E+03  0.41800000000E+01 0.  1.
</event>
<event>
11    1  0.8453735E-009  0.1515070E+03  0.7561462E-02  0.1095349E+00
         22   -1    0    0    0    0  0.00000000000E+00  0.00000000000E+00  0.50019223675E+03  0.50019223675E+03  0.00000000000E+00 0.  1.
         22   -1    0    0    0    0 -0.00000000000E+00 -0.00000000000E+00 -0.45752770180E+03  0.45752770180E+03  0.00000000000E+00 0.  1.
         24    2    1    2    0    0  0.17650524375E+02 -0.85294932753E+02 -0.42042522966E+03  0.43705191703E+03  0.81671524273E+02 0.  0.
         25    2    1    2    0    0 -0.77285855402E+01  0.44921129165E+02  0.18239040561E+03  0.22581433549E+03  0.12509282622E+03 0.  0.
        -24    2    1    2    0    0 -0.99219388346E+01  0.40373803589E+02  0.28069935900E+03  0.29485368603E+03  0.80112902445E+02 0.  0.
        -11    1    3    3    0    0  0.44421181600E+02 -0.20226082267E+02 -0.15892763388E+03  0.16625380775E+03  0.00000000000E+00 0.  1.
         12    1    3    3    0    0 -0.26770657226E+02 -0.65068850486E+02 -0.26149759578E+03  0.27079810928E+03  0.00000000000E+00 0. -1.
         11    1    5    5    0    0 -0.66701917803E+01  0.14871585443E+02  0.37644354251E+01  0.16728015006E+02  0.00000000000E+00 0. -1.
        -12    1    5    5    0    0 -0.32517470543E+01  0.25502218146E+02  0.27693492357E+03  0.27812567102E+03  0.00000000000E+00 0.  1.
          5    1    4    4  501    0 -0.11875755866E+02  0.38871871115E+02 -0.23062121118E+01  0.40924894083E+02  0.41800000000E+01 0. -1.
         -5    1    4    4    0  501  0.41471703261E+01  0.60492580498E+01  0.18469661772E+03  0.18488944141E+03  0.41800000000E+01 0. -1.
</event>
<event>
11    1  0.8453735E-009  0.2581896E+03  0.7561462E-02  0.1019625E+00
         22   -1    0    0    0    0  0.00000000000E+00  0.00000000000E+00  0.90777428095E+03  0.90777428095E+03  0.00000000000E+00 0. -1.
         22   -1    0    0    0    0 -0.00000000000E+00 -0.00000000000E+00 -0.23646769303E+03  0.23646769303E+03  0.00000000000E+00 0. -1.
         24    2    1    2    0    0 -0.19229051053E+02 -0.20120260275E+02 -0.10323774000E+03  0.13447101015E+03  0.81546553151E+02 0.  0.
         25    2    1    2    0    0 -0.18518077997E+03 -0.86022910014E+02  0.49111043788E+02  0.24444095801E+03  0.12509046733E+03 0.  0.
        -24    2    1    2    0    0  0.20440983102E+03  0.10614317029E+03  0.72543328413E+03  0.76533000582E+03  0.80167427752E+02 0.  0.
        -11    1    3    3    0    0 -0.33375080833E+02 -0.45036952841E+02 -0.56083624371E+02  0.79294363383E+02  0.00000000000E+00 0.  1.
         12    1    3    3    0    0  0.14146029779E+02  0.24916692566E+02 -0.47154115633E+02  0.55176646764E+02  0.00000000000E+00 0. -1.
         13    1    5    5    0    0  0.74853918991E+02  0.65433863022E+02  0.41044022133E+03  0.42231016433E+03  0.00000000000E+00 0. -1.
        -14    1    5    5    0    0  0.12955591203E+03  0.40709307267E+02  0.31499306280E+03  0.34301984149E+03  0.00000000000E+00 0.  1.
          5    1    4    4  501    0 -0.15559372312E+03 -0.10380493704E+03  0.74510409855E+02  0.20138059789E+03  0.41800000000E+01 0.  1.
         -5    1    4    4    0  501 -0.29587056844E+02  0.17782027024E+02 -0.25399366067E+02  0.43060360128E+02  0.41800000000E+01 0.  1.
</event>
<event>
11    1  0.8453735E-009  0.2399031E+03  0.7561462E-02  0.1029420E+00
         22   -1    0    0    0    0  0.00000000000E+00  0.00000000000E+00  0.11180142053E+04  0.11180142053E+04  0.00000000000E+00 0.  1.
         22   -1    0    0    0    0 -0.00000000000E+00 -0.00000000000E+00 -0.20145394944E+04  0.20145394944E+04  0.00000000000E+00 0. -1.
         24    2    1    2    0    0  0.77731723273E+02 -0.18844997589E+03 -0.19266248141E+04  0.19390637677E+04  0.80805364316E+02 0.  0.
         25    2    1    2    0    0 -0.27734796083E+03  0.17688574766E+03  0.42883394745E+03  0.55476799001E+03  0.12513396481E+03 0.  0.
        -24    2    1    2    0    0  0.19961623755E+03  0.11564228234E+02  0.60126557745E+03  0.63872194194E+03  0.80405539746E+02 0.  0.
        -13    1    3    3    0    0  0.16848606608E+02 -0.14270404648E+02 -0.72683718558E+02  0.75963431576E+02  0.00000000000E+00 0.  1.
         14    1    3    3    0    0  0.60883116665E+02 -0.17417957125E+03 -0.18539410955E+04  0.18631003361E+04  0.00000000000E+00 0. -1.
         11    1    5    5    0    0  0.36969123267E+02  0.28705052746E+02  0.20006557733E+03  0.20546759199E+03  0.00000000000E+00 0. -1.
        -12    1    5    5    0    0  0.16264711429E+03 -0.17140824513E+02  0.40120000012E+03  0.43325434995E+03  0.00000000000E+00 0.  1.
          5    1    4    4  501    0 -0.18764952673E+03  0.76543153737E+02  0.33170678128E+03  0.38873906468E+03  0.41800000000E+01 0.  1.
         -5    1    4    4    0  501 -0.89698434098E+02  0.10034259392E+03  0.97127166174E+02  0.16602892532E+03  0.41800000000E+01 0.  1.
</event>
<event>
11    1  0.8453735E-009  0.1328694E+03  0.7561462E-02  0.1115793E+00
         22   -1    0    0    0    0  0.00000000000E+00  0.00000000000E+00  0.34789264926E+03  0.34789264926E+03  0.00000000000E+00 0. -1.
         22   -1    0    0    0    0 -0.00000000000E+00 -0.00000000000E+00 -0.10875357343E+04  0.10875357343E+04  0.00000000000E+00 0. -1.
        -24    2    1    2    0    0  0.35267726292E+02 -0.91106967069E+01 -0.95982469276E+03  0.96391132346E+03  0.80837994377E+02 0.  0.
         25    2    1    2    0    0 -0.53107104653E+02  0.48868382583E+02 -0.75295457169E+02  0.16286707991E+03  0.12509115264E+03 0.  0.
         24    2    1    2    0    0  0.17839378361E+02 -0.39757685876E+02  0.29547706487E+03  0.30864998021E+03  0.77840846684E+02 0.  0.
        -11    1    5    5    0    0  0.79509911353E+01  0.17460167336E+02  0.22516068106E+02  0.29581227601E+02  0.00000000000E+00 0.  1.
         12    1    5    5    0    0  0.98883872259E+01 -0.57217853212E+02  0.27296099677E+03  0.27906875261E+03  0.00000000000E+00 0. -1.
         13    1    3    3    0    0  0.59433570902E+02  0.21734369430E+01 -0.75844015478E+03  0.76076838891E+03  0.00000000000E+00 0. -1.
        -14    1    3    3    0    0 -0.24165844610E+02 -0.11284133650E+02 -0.20138453798E+03  0.20314293455E+03  0.00000000000E+00 0.  1.
          5    1    4    4  501    0 -0.25763275975E+02  0.52429119752E+02  0.21304944589E+02  0.62321200654E+02  0.41800000000E+01 0.  1.
         -5    1    4    4    0  501 -0.27343828679E+02 -0.35607371694E+01 -0.96600401758E+02  0.10054587926E+03  0.41800000000E+01 0.  1.
</event>
<event>
11    1  0.8453735E-009  0.1331134E+03  0.7561462E-02  0.1115502E+00
         22   -1    0    0    0    0  0.00000000000E+00  0.00000000000E+00  0.23153652019E+04  0.23153652019E+04  0.00000000000E+00 0. -1.
         22   -1    0    0    0    0 -0.00000000000E+00 -0.00000000000E+00 -0.12242861370E+03  0.12242861370E+03  0.00000000000E+00 0.  1.
         24    2    1    2    0    0  0.96004077283E+00  0.45221583760E+02 -0.91974996687E+02  0.13030388163E+03  0.80459854816E+02 0.  0.
         25    2    1    2    0    0  0.25884707394E+02 -0.52669335289E+02  0.44924325672E+03  0.47001138376E+03  0.12508844953E+03 0.  0.
        -24    2    1    2    0    0 -0.26844748167E+02  0.74477515286E+01  0.18356683282E+04  0.18374785502E+04  0.76636165863E+02 0.  0.
        -11    1    3    3    0    0 -0.68462505685E+01  0.60764716021E+02 -0.94671522656E+02  0.11270279083E+03  0.00000000000E+00 0.  1.
         12    1    3    3    0    0  0.78062913414E+01 -0.15543132261E+02  0.26965259692E+01  0.17601090798E+02  0.00000000000E+00 0. -1.
         11    1    5    5    0    0  0.21491620314E+02 -0.16918257994E+02  0.65006275484E+03  0.65063791960E+03  0.00000000000E+00 0. -1.
        -12    1    5    5    0    0 -0.48336368481E+02  0.24366009523E+02  0.11856055734E+04  0.11868406306E+04  0.00000000000E+00 0.  1.
          5    1    4    4  501    0  0.37578567542E+02 -0.78515494461E+02  0.42040955714E+03  0.42934659629E+03  0.41800000000E+01 0.  1.
         -5    1    4    4    0  501 -0.11693860148E+02  0.25846159172E+02  0.28833699572E+02  0.40664787471E+02  0.41800000000E+01 0.  1.
</event>
<event>
11    1  0.1347009E-008  0.1855683E+03  0.7561462E-02  0.1065226E+00
         22   -1    0    0    0    0  0.00000000000E+00  0.00000000000E+00  0.92435742217E+03  0.92435742217E+03  0.00000000000E+00 0.  1.
         22   -1    0    0    0    0 -0.00000000000E+00 -0.00000000000E+00 -0.50728261438E+03  0.50728261438E+03  0.00000000000E+00 0.  1.
        -24    2    1    2    0    0  0.20470840939E+02  0.11425882201E+01 -0.37447709751E+03  0.38359226856E+03  0.80557874215E+02 0.  0.
         25    2    1    2    0    0 -0.84540398903E+02  0.11944832831E+03 -0.43842779218E+02  0.19744630631E+03  0.12509145616E+03 0.  0.
         24    2    1    2    0    0  0.64069557964E+02 -0.12059091653E+03  0.83539468452E+03  0.85060146168E+03  0.83615131869E+02 0.  0.
        -13    1    5    5    0    0  0.23175358964E+02 -0.11567114287E+03  0.65762631777E+03  0.66812370440E+03  0.00000000000E+00 0.  1.
         14    1    5    5    0    0  0.40894199000E+02 -0.49197736609E+01  0.17776836675E+03  0.18247775728E+03  0.00000000000E+00 0. -1.
         13    1    3    3    0    0  0.34826282337E+02 -0.13562386256E+00 -0.64680148861E+02  0.73460261311E+02  0.00000000000E+00 0. -1.
        -14    1    3    3    0    0 -0.14355441398E+02  0.12782120827E+01 -0.30979694865E+03  0.31013200725E+03  0.00000000000E+00 0.  1.
          5    1    4    4  501    0  0.69107695852E+01  0.85932723889E+02 -0.50026860334E+02  0.99761470148E+02  0.41800000000E+01 0. -1.
         -5    1    4    4    0  501 -0.91451168488E+02  0.33515604424E+02  0.61840811154E+01  0.97684836167E+02  0.41800000000E+01 0. -1.
</event>
<event>
11    1  0.8453735E-009  0.1325232E+03  0.7561462E-02  0.1116207E+00
         22   -1    0    0    0    0  0.00000000000E+00  0.00000000000E+00  0.38552904856E+03  0.38552904856E+03  0.00000000000E+00 0.  1.
         22   -1    0    0    0    0 -0.00000000000E+00 -0.00000000000E+00 -0.94024657132E+03  0.94024657132E+03  0.00000000000E+00 0. -1.
         24    2    1    2    0    0  0.72084054794E+01  0.45386538624E+02 -0.82217033678E+03  0.82732841632E+03  0.79977164074E+02 0.  0.
         25    2    1    2    0    0  0.24469670931E+02 -0.14914690758E+02 -0.71982754149E+02  0.14714691845E+03  0.12509790533E+03 0.  0.
        -24    2    1    2    0    0 -0.31678076410E+02 -0.30471847865E+02  0.33943556817E+03  0.35130028511E+03  0.79141337775E+02 0.  0.
        -11    1    3    3    0    0  0.84666673742E+01 -0.21152454630E+02 -0.13150427822E+03  0.13346342564E+03  0.00000000000E+00 0.  1.
         12    1    3    3    0    0 -0.12582618948E+01  0.66538993254E+02 -0.69066605856E+03  0.69386499068E+03  0.00000000000E+00 0. -1.
         13    1    5    5    0    0 -0.37433311556E+02  0.21056179561E+00  0.64327019070E+02  0.74426222078E+02  0.00000000000E+00 0. -1.
        -14    1    5    5    0    0  0.57552351461E+01 -0.30682409661E+02  0.27510854910E+03  0.27687406304E+03  0.00000000000E+00 0.  1.
          5    1    4    4  501    0  0.55505567948E+02  0.27479418585E+02 -0.71164324549E+02  0.94434209943E+02  0.41800000000E+01 0.  1.
         -5    1    4    4    0  501 -0.31035897017E+02 -0.42394109343E+02 -0.81842959954E+00  0.52712708502E+02  0.41800000000E+01 0.  1.
</event>
<event>
11    1  0.8453735E-009  0.1688773E+03  0.7561462E-02  0.1079013E+00
         22   -1    0    0    0    0  0.00000000000E+00  0.00000000000E+00  0.15126859426E+04  0.15126859426E+04  0.00000000000E+00 0.  1.
         22   -1    0    0    0    0 -0.00000000000E+00 -0.00000000000E+00 -0.14853505831E+03  0.14853505831E+03  0.00000000000E+00 0. -1.
         24    2    1    2    0    0  0.28319343942E+02  0.21565796956E+02 -0.95839547891E+02  0.12484735217E+03  0.71655938790E+02 0.  0.
         25    2    1    2    0    0 -0.12964051424E+03 -0.64494118207E+02  0.23116741690E+03  0.30010562956E+03  0.12513536688E+03 0.  0.
        -24    2    1    2    0    0  0.10132117030E+03  0.42928321250E+02  0.12288230153E+04  0.12362680192E+04  0.79017669188E+02 0.  0.
        -13    1    3    3    0    0 -0.82883860991E+01  0.24969919676E+02 -0.49066983990E+01  0.26763219573E+02  0.00000000000E+00 0.  1.
         14    1    3    3    0    0  0.36607730042E+02 -0.34041227191E+01 -0.90932849492E+02  0.98084132596E+02  0.00000000000E+00 0. -1.
         13    1    5    5    0    0  0.24661411014E+02  0.26675205038E+02  0.76574813613E+03  0.76660939190E+03  0.00000000000E+00 0. -1.
        -14    1    5    5    0    0  0.76659759286E+02  0.16253116213E+02  0.46307487918E+03  0.46965862731E+03  0.00000000000E+00 0.  1.
          5    1    4    4  501    0 -0.14672082151E+03 -0.26335514362E+02  0.17400524568E+03  0.22916338430E+03  0.41800000000E+01 0. -1.
         -5    1    4    4    0  501  0.17080307270E+02 -0.38158603845E+02  0.57162171221E+02  0.70942245260E+02  0.41800000000E+01 0. -1.
</event>
<event>
11    1  0.8453735E-009  0.1748928E+03  0.7561462E-02  0.1073851E+00
         22   -1    0    0    0    0  0.00000000000E+00  0.00000000000E+00  0.18042581241E+04  0.18042581241E+04  0.00000000000E+00 0.  1.
         22   -1    0    0    0    0 -0.00000000000E+00 -0.00000000000E+00 -0.11310608775E+04  0.11310608775E+04  0.00000000000E+00 0.  1.
         24    2    1    2    0    0 -0.11139766125E+03  0.30620394866E+02 -0.63225169058E+03  0.64788658479E+03  0.81656469451E+02 0.  0.
         25    2    1    2    0    0  0.12530794799E+03 -0.60130512656E+02 -0.47199949861E+03  0.50768921410E+03  0.12508817305E+03 0.  0.
        -24    2    1    2    0    0 -0.13910286742E+02  0.29510117790E+02  0.17774484357E+04  0.17797432027E+04  0.84253087924E+02 0.  0.
        -11    1    3    3    0    0 -0.10020228346E+03  0.20436366718E+02 -0.62010386698E+03  0.62847987123E+03  0.00000000000E+00 0.  1.
         12    1    3    3    0    0 -0.11195377794E+02  0.10184028149E+02 -0.12147823598E+02  0.19406713567E+02  0.00000000000E+00 0. -1.
         11    1    5    5    0    0  0.80598206171E+00  0.18550230499E+02  0.77408610603E+02  0.79604357005E+02  0.00000000000E+00 0. -1.
        -12    1    5    5    0    0 -0.14716268804E+02  0.10959887291E+02  0.17000398251E+04  0.17001388457E+04  0.00000000000E+00 0.  1.
          5    1    4    4  501    0  0.26484199607E+02  0.40236521750E+01 -0.28725721147E+03  0.28853384645E+03  0.41800000000E+01 0.  1.
         -5    1    4    4    0  501  0.98823748384E+02 -0.64154164831E+02 -0.18474228714E+03  0.21915536765E+03  0.41800000000E+01 0.  1.
</event>
<event>
11    1  0.8453735E-009  0.3660012E+03  0.7561462E-02  0.9755767E-01
         22   -1    0    0    0    0  0.00000000000E+00  0.00000000000E+00  0.10205484142E+04  0.10205484142E+04  0.00000000000E+00 0.  1.
         22   -1    0    0    0    0 -0.00000000000E+00 -0.00000000000E+00 -0.36991769286E+03  0.36991769286E+03  0.00000000000E+00 0.  1.
         24    2    1    2    0    0 -0.29125737707E+03  0.19856816622E+03 -0.18171625901E+03  0.40460358760E+03  0.80144169968E+02 0.  0.
         25    2    1    2    0    0  0.30776164989E+03 -0.94153233791E+02  0.37571813101E+03  0.51028801977E+03  0.12509070535E+03 0.  0.
        -24    2    1    2    0    0 -0.16504272826E+02 -0.10441493243E+03  0.45662884937E+03  0.47557449972E+03  0.80537752483E+02 0.  0.
        -13    1    3    3    0    0 -0.23613139710E+03  0.15603557071E+03 -0.10727845211E+03  0.30267772021E+03  0.00000000000E+00 0.  1.
         14    1    3    3    0    0 -0.55125979966E+02  0.42532595508E+02 -0.74437806896E+02  0.10192586739E+03  0.00000000000E+00 0. -1.
         11    1    5    5    0    0 -0.98447975747E+01  0.77970935104E+01  0.13617923280E+02  0.18524646851E+02  0.00000000000E+00 0. -1.
        -12    1    5    5    0    0 -0.66594752509E+01 -0.11221202594E+03  0.44301092609E+03  0.45704985287E+03  0.00000000000E+00 0.  1.
          5    1    4    4  501    0  0.29658819200E+03 -0.81361778059E+02  0.38310978433E+03  0.49129916936E+03  0.41800000000E+01 0. -1.
         -5    1    4    4    0  501  0.11173457898E+02 -0.12791455732E+02 -0.73916533165E+01  0.18988850410E+02  0.41800000000E+01 0. -1.
</event>
<event>
11    1  0.8453735E-009  0.1730862E+03  0.7561462E-02  0.1075377E+00
         22   -1    0    0    0    0  0.00000000000E+00  0.00000000000E+00  0.94617804101E+03  0.94617804101E+03  0.00000000000E+00 0. -1.
         22   -1    0    0    0    0 -0.00000000000E+00 -0.00000000000E+00 -0.12724969332E+03  0.12724969332E+03  0.00000000000E+00 0.  1.
         24    2    1    2    0    0  0.12001661981E+03  0.35883476790E+02  0.12452235150E+01  0.14973025444E+03  0.82012106267E+02 0.  0.
         25    2    1    2    0    0 -0.81000401461E+02 -0.88507693599E+02  0.10324356377E+03  0.20174496893E+03  0.12508845736E+03 0.  0.
        -24    2    1    2    0    0 -0.39016218353E+02  0.52624216809E+02  0.71443956041E+03  0.72195251097E+03  0.80622386081E+02 0.  0.
        -13    1    3    3    0    0  0.83170929649E+02  0.60827748240E+02 -0.10876953434E+02  0.10361335151E+03  0.00000000000E+00 0.  1.
         14    1    3    3    0    0  0.36845690165E+02 -0.24944271450E+02  0.12122176949E+02  0.46116902930E+02  0.00000000000E+00 0. -1.
         11    1    5    5    0    0 -0.30089723301E+02 -0.90109165762E+00  0.49458055472E+03  0.49549584108E+03  0.00000000000E+00 0. -1.
        -12    1    5    5    0    0 -0.89264950515E+01  0.53525308467E+02  0.21985900568E+03  0.22645666990E+03  0.00000000000E+00 0.  1.
          5    1    4    4  501    0  0.29509119072E+02 -0.44287417873E+02  0.22955080210E+02  0.58108274778E+02  0.41800000000E+01 0. -1.
         -5    1    4    4    0  501 -0.11050952053E+03 -0.44220275726E+02  0.80288483557E+02  0.14363669415E+03  0.41800000000E+01 0. -1.
</event>
<event>
11    1  0.8453735E-009  0.1337402E+03  0.7561462E-02  0.1114757E+00
         22   -1    0    0    0    0  0.00000000000E+00  0.00000000000E+00  0.69373549483E+03  0.69373549483E+03  0.00000000000E+00 0.  1.
         22   -1    0    0    0    0 -0.00000000000E+00 -0.00000000000E+00 -0.31156928658E+03  0.31156928658E+03  0.00000000000E+00 0.  1.
         24    2    1    2    0    0  0.46414162134E+02  0.14387803454E+02 -0.28226655300E+03  0.29857606334E+03  0.84332528268E+02 0.  0.
         25    2    1    2    0    0 -0.21878749367E+01 -0.20707755171E+02  0.23167627520E+03  0.26411285635E+03  0.12509239178E+03 0.  0.
        -24    2    1    2    0    0 -0.44226287197E+02  0.63199517167E+01  0.43275648606E+03  0.44261586172E+03  0.81453781713E+02 0.  0.
        -13    1    3    3    0    0  0.70559584279E+02  0.74686354514E+01 -0.22785728502E+03  0.23864906827E+03  0.00000000000E+00 0.  1.
         14    1    3    3    0    0 -0.24145422145E+02  0.69191680030E+01 -0.54409267977E+02  0.59926995071E+02  0.00000000000E+00 0. -1.
         13    1    5    5    0    0  0.16177689512E+02 -0.17134313034E+02  0.63805273881E+02  0.68017757212E+02  0.00000000000E+00 0. -1.
        -14    1    5    5    0    0 -0.60403976709E+02  0.23454264751E+02  0.36895121218E+03  0.37459810451E+03  0.00000000000E+00 0.  1.
          5    1    4    4  501    0 -0.20030296753E+02  0.12548726269E+02  0.22411414431E+03  0.22539588594E+03  0.41800000000E+01 0.  1.
         -5    1    4    4    0  501  0.17842421816E+02 -0.33256481440E+02  0.75621308813E+01  0.38716970407E+02  0.41800000000E+01 0.  1.
</event>
<event>
11    1  0.8453735E-009  0.2556527E+03  0.7561462E-02  0.1020930E+00
         22   -1    0    0    0    0  0.00000000000E+00  0.00000000000E+00  0.23936296639E+04  0.23936296639E+04  0.00000000000E+00 0.  1.
         22   -1    0    0    0    0 -0.00000000000E+00 -0.00000000000E+00 -0.16654316798E+03  0.16654316798E+03  0.00000000000E+00 0.  1.
         24    2    1    2    0    0 -0.79137096974E+02  0.20377164520E+03 -0.33536847586E+02  0.23531644411E+03  0.80396176647E+02 0.  0.
         25    2    1    2    0    0  0.15720277459E+03 -0.20886381180E+03  0.66532374633E+03  0.72569887583E+03  0.12508543771E+03 0.  0.
        -24    2    1    2    0    0 -0.78065677617E+02  0.50921666041E+01  0.15952995972E+04  0.15991575120E+04  0.78763970494E+02 0.  0.
        -13    1    3    3    0    0 -0.84077977498E+02  0.20905729471E+03 -0.34703283216E+02  0.22798766773E+03  0.00000000000E+00 0.  1.
         14    1    3    3    0    0  0.49408805236E+01 -0.52856495142E+01  0.11664356300E+01  0.73287763791E+01  0.00000000000E+00 0. -1.
         11    1    5    5    0    0 -0.54479553598E+02 -0.16482101558E+01  0.41033850368E+03  0.41394253944E+03  0.00000000000E+00 0. -1.
        -12    1    5    5    0    0 -0.23586124019E+02  0.67403767598E+01  0.11849610935E+04  0.11852149725E+04  0.00000000000E+00 0.  1.
          5    1    4    4  501    0  0.90466402215E+02 -0.10153281801E+03  0.49627110472E+03  0.51458290376E+03  0.41800000000E+01 0.  1.
         -5    1    4    4    0  501  0.66736372376E+02 -0.10733099379E+03  0.16905264161E+03  0.21111597206E+03  0.41800000000E+01 0.  1.
</event>
<event>
11    1  0.8453735E-009  0.1802842E+03  0.7561462E-02  0.1069413E+00
         22   -1    0    0    0    0  0.00000000000E+00  0.00000000000E+00  0.34960164856E+03  0.34960164856E+03  0.00000000000E+00 0.  1.
         22   -1    0    0    0    0 -0.00000000000E+00 -0.00000000000E+00 -0.72291152893E+03  0.72291152893E+03  0.00000000000E+00 0. -1.
        -24    2    1    2    0    0  0.97196228047E+02 -0.78901463007E+02 -0.57760050075E+03  0.59756702320E+03  0.88269253672E+02 0.  0.
         25    2    1    2    0    0 -0.13843582368E+03  0.10095037355E+03 -0.37470820391E+02  0.21542370293E+03  0.12509138343E+03 0.  0.
         24    2    1    2    0    0  0.41239595633E+02 -0.22048910541E+02  0.24176144077E+03  0.25952245136E+03  0.81953949318E+02 0.  0.
        -13    1    5    5    0    0  0.47337092751E+01 -0.27480409794E+02  0.20684307580E+03  0.20871425187E+03  0.00000000000E+00 0.  1.
         14    1    5    5    0    0  0.36505886358E+02  0.54314992533E+01  0.34918364974E+02  0.50808199489E+02  0.00000000000E+00 0. -1.
         13    1    3    3    0    0  0.97787505098E+02 -0.81689384150E+02 -0.58000630773E+03  0.59383740927E+03  0.00000000000E+00 0. -1.
        -14    1    3    3    0    0 -0.59127705119E+00  0.27879211433E+01  0.24058069850E+01  0.37296139347E+01  0.00000000000E+00 0.  1.
          5    1    4    4  501    0 -0.15154607708E+02 -0.50038203877E+01 -0.49688136538E+02  0.52355359476E+02  0.41800000000E+01 0.  1.
         -5    1    4    4    0  501 -0.12328121597E+03  0.10595419394E+03  0.12217316147E+02  0.16306834346E+03  0.41800000000E+01 0.  1.
</event>
<event>
11    1  0.8453735E-009  0.1280376E+03  0.7561462E-02  0.1121704E+00
         22   -1    0    0    0    0  0.00000000000E+00  0.00000000000E+00  0.57186223446E+03  0.57186223446E+03  0.00000000000E+00 0. -1.
         22   -1    0    0    0    0 -0.00000000000E+00 -0.00000000000E+00 -0.13000107055E+03  0.13000107055E+03  0.00000000000E+00 0.  1.
        -24    2    1    2    0    0  0.99025319446E+01 -0.25207392976E+02 -0.56908163823E+02  0.10127535201E+03  0.79276005289E+02 0.  0.
         25    2    1    2    0    0  0.68764538804E+01  0.31737343132E+02  0.40899890188E+02  0.13555454156E+03  0.12509071969E+03 0.  0.
         24    2    1    2    0    0 -0.16778985825E+02 -0.65299501557E+01  0.45786943754E+03  0.46503341143E+03  0.79293614490E+02 0.  0.
        -11    1    5    5    0    0 -0.28518900173E+02  0.28290500616E+02  0.16271180831E+03  0.16759717377E+03  0.00000000000E+00 0.  1.
         12    1    5    5    0    0  0.11739914348E+02 -0.34820450771E+02  0.29515762924E+03  0.29743623767E+03  0.00000000000E+00 0. -1.
         11    1    3    3    0    0  0.37252260784E+02  0.96236428628E+01 -0.34339018855E+02  0.51570472670E+02  0.00000000000E+00 0. -1.
        -12    1    3    3    0    0 -0.27349728839E+02 -0.34831035839E+02 -0.22569144968E+02  0.49704879336E+02  0.00000000000E+00 0.  1.
          5    1    4    4  501    0 -0.29187922816E+02 -0.20811742026E+02  0.59004617095E+02  0.69167049112E+02  0.41800000000E+01 0.  1.
         -5    1    4    4    0  501  0.36064376696E+02  0.52549085158E+02 -0.18104726907E+02  0.66387492450E+02  0.41800000000E+01 0.  1.
</event>
<event>
11    1  0.8453735E-009  0.1311175E+03  0.7561462E-02  0.1117904E+00
         22   -1    0    0    0    0  0.00000000000E+00  0.00000000000E+00  0.71970209402E+03  0.71970209402E+03  0.00000000000E+00 0. -1.
         22   -1    0    0    0    0 -0.00000000000E+00 -0.00000000000E+00 -0.10414324359E+04  0.10414324359E+04  0.00000000000E+00 0. -1.
        -24    2    1    2    0    0  0.55227547799E+00 -0.25593660180E+00 -0.10186764886E+04  0.10216571902E+04  0.77982404396E+02 0.  0.
         25    2    1    2    0    0  0.89548424047E+01  0.38366466639E+02  0.23204166617E+03  0.26653852958E+03  0.12508908004E+03 0.  0.
         24    2    1    2    0    0 -0.95071178827E+01 -0.38110530037E+02  0.46490448048E+03  0.47293881018E+03  0.77408942739E+02 0.  0.
        -11    1    5    5    0    0 -0.32273026284E+02  0.34084538264E+01  0.10411829160E+03  0.10905862840E+03  0.00000000000E+00 0.  1.
         12    1    5    5    0    0  0.22765908401E+02 -0.41518983863E+02  0.36078618888E+03  0.36388018178E+03  0.00000000000E+00 0. -1.
         13    1    3    3    0    0  0.13015103287E+02 -0.52814860037E+01 -0.98877684134E+03  0.98887659947E+03  0.00000000000E+00 0. -1.
        -14    1    3    3    0    0 -0.12462827809E+02  0.50255494019E+01 -0.29899647247E+02  0.32780590740E+02  0.00000000000E+00 0.  1.
          5    1    4    4  501    0 -0.37726558766E+02  0.11378914833E+02  0.14215815699E+02  0.42099106346E+02  0.41800000000E+01 0.  1.
         -5    1    4    4    0  501  0.46681401171E+02  0.26987551806E+02  0.21782585047E+03  0.22443942324E+03  0.41800000000E+01 0.  1.
</event>
<event>
11    1  0.8453735E-009  0.1524828E+03  0.7561462E-02  0.1094369E+00
         22   -1    0    0    0    0  0.00000000000E+00  0.00000000000E+00  0.11988512847E+03  0.11988512847E+03  0.00000000000E+00 0. -1.
         22   -1    0    0    0    0 -0.00000000000E+00 -0.00000000000E+00 -0.10794686733E+04  0.10794686733E+04  0.00000000000E+00 0.  1.
         24    2    1    2    0    0 -0.39168254207E+02 -0.72636194940E+02 -0.69829584531E+03  0.70666311487E+03  0.70324258830E+02 0.  0.
         25    2    1    2    0    0 -0.37951910418E+01  0.12591030921E+03 -0.32401583862E+03  0.36946125111E+03  0.12509013932E+03 0.  0.
        -24    2    1    2    0    0  0.42963445248E+02 -0.53274114273E+02  0.62728139140E+02  0.12322943576E+03  0.81035088199E+02 0.  0.
        -11    1    3    3    0    0 -0.38988474556E+02 -0.80109508131E+02 -0.68899044155E+03  0.69472689813E+03  0.00000000000E+00 0.  1.
         12    1    3    3    0    0 -0.17977965111E+00  0.74733131906E+01 -0.93054037641E+01  0.11936216737E+02  0.00000000000E+00 0. -1.
         11    1    5    5    0    0 -0.80422871056E+01 -0.50066481760E+01  0.51196329354E+02  0.52065430442E+02  0.00000000000E+00 0. -1.
        -12    1    5    5    0    0  0.51005732354E+02 -0.48267466097E+02  0.11531809786E+02  0.71164005321E+02  0.00000000000E+00 0.  1.
          5    1    4    4  501    0 -0.51962836261E+02  0.22773253924E+02 -0.15966009104E+03  0.16949210754E+03  0.41800000000E+01 0.  1.
         -5    1    4    4    0  501  0.48167645219E+02  0.10313705529E+03 -0.16435574758E+03  0.19996914358E+03  0.41800000000E+01 0.  1.
</event>
<event>
11    1  0.8453735E-009  0.1310265E+03  0.7561462E-02  0.1118014E+00
         22   -1    0    0    0    0  0.00000000000E+00  0.00000000000E+00  0.39507415782E+03  0.39507415782E+03  0.00000000000E+00 0. -1.
         22   -1    0    0    0    0 -0.00000000000E+00 -0.00000000000E+00 -0.37814399703E+03  0.37814399703E+03  0.00000000000E+00 0.  1.
         24    2    1    2    0    0  0.17438925943E+02  0.52629362098E+01 -0.33273573252E+03  0.34156588564E+03  0.74982477287E+02 0.  0.
         25    2    1    2    0    0 -0.36201993980E+02 -0.36435611927E+02  0.10403569015E+03  0.17061463548E+03  0.12509113010E+03 0.  0.
        -24    2    1    2    0    0  0.18763068037E+02  0.31172675717E+02  0.24563020316E+03  0.26103763373E+03  0.80514974281E+02 0.  0.
        -11    1    3    3    0    0  0.60610383451E+01  0.38771872517E+02 -0.13106426080E+03  0.13681313805E+03  0.00000000000E+00 0.  1.
         12    1    3    3    0    0  0.11377887598E+02 -0.33508936307E+02 -0.20167147172E+03  0.20475274759E+03  0.00000000000E+00 0. -1.
         11    1    5    5    0    0  0.17949304878E+02 -0.42564109096E+01  0.20991514504E+03  0.21072413885E+03  0.00000000000E+00 0. -1.
        -12    1    5    5    0    0  0.81376315829E+00  0.35429086627E+02  0.35715058125E+02  0.50313494875E+02  0.00000000000E+00 0.  1.
          5    1    4    4  501    0  0.29440944283E+02 -0.43319205323E+02  0.67456798387E+01  0.52974516010E+02  0.41800000000E+01 0.  1.
         -5    1    4    4    0  501 -0.65642938263E+02  0.68835933957E+01  0.97290010310E+02  0.11764011947E+03  0.41800000000E+01 0.  1.
</event>
<event>
11    1  0.8453735E-009  0.1901167E+03  0.7561462E-02  0.1061741E+00
         22   -1    0    0    0    0  0.00000000000E+00  0.00000000000E+00  0.32368979014E+04  0.32368979014E+04  0.00000000000E+00 0. -1.
         22   -1    0    0    0    0 -0.00000000000E+00 -0.00000000000E+00 -0.30132220651E+03  0.30132220651E+03  0.00000000000E+00 0.  1.
        -24    2    1    2    0    0 -0.22908802330E+02 -0.38898455127E+02 -0.18609145767E+03  0.20741184136E+03  0.79697793474E+02 0.  0.
         25    2    1    2    0    0  0.15951831679E+03  0.79399897854E+02  0.13272536960E+02  0.21811500576E+03  0.12509020078E+03 0.  0.
         24    2    1    2    0    0 -0.13660951446E+03 -0.40501442727E+02  0.31083946156E+04  0.31126932608E+04  0.80247885411E+02 0.  0.
        -13    1    5    5    0    0 -0.11240791912E+03 -0.53628435527E+02  0.19510133544E+04  0.19549845674E+04  0.00000000000E+00 0.  1.
         14    1    5    5    0    0 -0.24201595334E+02  0.13126992800E+02  0.11573812612E+04  0.11577086935E+04  0.00000000000E+00 0. -1.
         13    1    3    3    0    0 -0.40476325143E+02 -0.20580082715E+02 -0.44549643741E+02  0.63612447359E+02  0.00000000000E+00 0. -1.
        -14    1    3    3    0    0  0.17567522813E+02 -0.18318372413E+02 -0.14154181393E+03  0.14379939400E+03  0.00000000000E+00 0.  1.
          5    1    4    4  501    0  0.13285670868E+03  0.50392695343E+02  0.62192494372E+02  0.15516348650E+03  0.41800000000E+01 0.  1.
         -5    1    4    4    0  501  0.26661608103E+02  0.29007202511E+02 -0.48919957413E+02  0.62951519262E+02  0.41800000000E+01 0.  1.
</event>
<event>
11    1  0.8453735E-009  0.1271978E+03  0.7561462E-02  0.1122761E+00
         22   -1    0    0    0    0  0.00000000000E+00  0.00000000000E+00  0.52810124449E+03  0.52810124449E+03  0.00000000000E+00 0.  1.
         22   -1    0    0    0    0 -0.00000000000E+00 -0.00000000000E+00 -0.18005785374E+04  0.18005785374E+04  0.00000000000E+00 0. -1.
         24    2    1    2    0    0 -0.64362417033E-01 -0.90839103515E+01 -0.17712991450E+04  0.17731676378E+04  0.80872052413E+02 0.  0.
         25    2    1    2    0    0 -0.21720216754E+02 -0.16473426030E+00  0.15025586789E+03  0.19671286836E+03  0.12508929528E+03 0.  0.
        -24    2    1    2    0    0  0.21784579171E+02  0.92486446118E+01  0.34856598424E+03  0.35879927575E+03  0.81722515815E+02 0.  0.
        -11    1    3    3    0    0 -0.18614274176E+02  0.75949160374E+01 -0.11943938946E+03  0.12111953479E+03  0.00000000000E+00 0.  1.
         12    1    3    3    0    0  0.18549911759E+02 -0.16678826389E+02 -0.16518597556E+04  0.16520481030E+04  0.00000000000E+00 0. -1.
         13    1    5    5    0    0  0.12156300645E+02  0.25703954962E+02  0.37062614509E+02  0.46713021100E+02  0.00000000000E+00 0. -1.
        -14    1    5    5    0    0  0.96282785254E+01 -0.16455310351E+02  0.31150336973E+03  0.31208625465E+03  0.00000000000E+00 0.  1.
          5    1    4    4  501    0  0.34579444284E+02 -0.21639165198E+02  0.74745511966E+01  0.41681323792E+02  0.41800000000E+01 0.  1.
         -5    1    4    4    0  501 -0.56299661038E+02  0.21474430938E+02  0.14278131669E+03  0.15503154457E+03  0.41800000000E+01 0.  1.
</event>
<event>
11    1  0.8453735E-009  0.1360122E+03  0.7561462E-02  0.1112095E+00
         22   -1    0    0    0    0  0.00000000000E+00  0.00000000000E+00  0.20681772953E+03  0.20681772953E+03  0.00000000000E+00 0.  1.
         22   -1    0    0    0    0 -0.00000000000E+00 -0.00000000000E+00 -0.62704730285E+03  0.62704730285E+03  0.00000000000E+00 0. -1.
        -24    2    1    2    0    0  0.17029620561E+02 -0.55167357334E+02 -0.43552968008E+03  0.44663084438E+03  0.80371410538E+02 0.  0.
         25    2    1    2    0    0  0.24670586808E+01  0.36609701845E+02 -0.15185399550E+03  0.20013365969E+03  0.12508992423E+03 0.  0.
         24    2    1    2    0    0 -0.19496679242E+02  0.18557655490E+02  0.16715410226E+03  0.18710052830E+03  0.79634205652E+02 0.  0.
        -13    1    5    5    0    0 -0.17490113968E+02  0.49552842952E+02  0.11418582493E+03  0.12569721932E+03  0.00000000000E+00 0.  1.
         14    1    5    5    0    0 -0.20065652737E+01 -0.30995187462E+02  0.52968277331E+02  0.61403308978E+02  0.00000000000E+00 0. -1.
         11    1    3    3    0    0  0.18382326420E+02 -0.66402394515E+02 -0.42683492493E+03  0.43236008264E+03  0.00000000000E+00 0. -1.
        -12    1    3    3    0    0 -0.13527058591E+01  0.11235037181E+02 -0.86947551538E+01  0.14270761745E+02  0.00000000000E+00 0.  1.
          5    1    4    4  501    0 -0.24475460068E+02  0.75083520085E+02 -0.69728244803E+02  0.10543283956E+03  0.41800000000E+01 0.  1.
         -5    1    4    4    0  501  0.26942518749E+02 -0.38473818240E+02 -0.82125750693E+02  0.94700820131E+02  0.41800000000E+01 0.  1.
</event>
<event>
11    1  0.8453735E-009  0.1381722E+03  0.7561462E-02  0.1109617E+00
         22   -1    0    0    0    0  0.00000000000E+00  0.00000000000E+00  0.32849839225E+03  0.32849839225E+03  0.00000000000E+00 0.  1.
         22   -1    0    0    0    0 -0.00000000000E+00 -0.00000000000E+00 -0.58156151099E+03  0.58156151099E+03  0.00000000000E+00 0.  1.
         24    2    1    2    0    0 -0.20876733112E+02  0.25487399411E+02 -0.32780497761E+03  0.33796314482E+03  0.75349441918E+02 0.  0.
         25    2    1    2    0    0 -0.29891399182E+02  0.59552898255E+01 -0.22324075345E+03  0.25770630511E+03  0.12508854653E+03 0.  0.
        -24    2    1    2    0    0  0.50768132294E+02 -0.31442689237E+02  0.29798261232E+03  0.31439045330E+03  0.80508843735E+02 0.  0.
        -13    1    3    3    0    0 -0.43617367870E+02  0.13819902855E+02 -0.28038493147E+03  0.28409360128E+03  0.00000000000E+00 0.  1.
         14    1    3    3    0    0  0.22740634758E+02  0.11667496556E+02 -0.47420046144E+02  0.53869543542E+02  0.00000000000E+00 0. -1.
         11    1    5    5    0    0  0.59541972778E+02  0.65613483826E+01  0.15465958779E+03  0.16585501473E+03  0.00000000000E+00 0. -1.
        -12    1    5    5    0    0 -0.87738404840E+01 -0.38004037619E+02  0.14332302453E+03  0.14853543858E+03  0.00000000000E+00 0.  1.
          5    1    4    4  501    0  0.46529590977E+02 -0.15029028502E+02 -0.94162575721E+02  0.10618350908E+03  0.41800000000E+01 0.  1.
         -5    1    4    4    0  501 -0.76420990158E+02  0.20984318327E+02 -0.12907817773E+03  0.15152279603E+03  0.41800000000E+01 0.  1.
</event>
<event>
11    1  0.8453735E-009  0.1532944E+03  0.7561462E-02  0.1093559E+00
         22   -1    0    0    0    0  0.00000000000E+00  0.00000000000E+00  0.27738798765E+03  0.27738798765E+03  0.00000000000E+00 0.  1.
         22   -1    0    0    0    0 -0.00000000000E+00 -0.00000000000E+00 -0.28689445011E+03  0.28689445011E+03  0.00000000000E+00 0. -1.
         24    2    1    2    0    0 -0.46857687155E+02 -0.80586102364E+02 -0.21996205092E+03  0.25239875474E+03  0.81437490195E+02 0.  0.
         25    2    1    2    0    0  0.23452981171E+02  0.47705217498E+02  0.88232303368E+02  0.16204447901E+03  0.12509054208E+03 0.  0.
        -24    2    1    2    0    0  0.23404705984E+02  0.32880884866E+02  0.12222328509E+03  0.14983920402E+03  0.76709339666E+02 0.  0.
        -11    1    3    3    0    0 -0.45366912238E+02 -0.44831017627E+01 -0.10561432293E+03  0.11503321318E+03  0.00000000000E+00 0.  1.
         12    1    3    3    0    0 -0.14907749166E+01 -0.76103000601E+02 -0.11434772799E+03  0.13736554156E+03  0.00000000000E+00 0. -1.
         11    1    5    5    0    0  0.31397380578E+02  0.16219796467E+02  0.10885003718E+02  0.36977839452E+02  0.00000000000E+00 0. -1.
        -12    1    5    5    0    0 -0.79926745941E+01  0.16661088399E+02  0.11133828137E+03  0.11286136457E+03  0.00000000000E+00 0.  1.
          5    1    4    4  501    0 -0.40840683309E+02 -0.57827336796E+01  0.15021714967E+01  0.41486507941E+02  0.41800000000E+01 0. -1.
         -5    1    4    4    0  501  0.64293664480E+02  0.53487951177E+02  0.86730131871E+02  0.12055797107E+03  0.41800000000E+01 0. -1.
</event>
<event>
11    1  0.8453735E-009  0.1391004E+03  0.7561462E-02  0.1108567E+00
         22   -1    0    0    0    0  0.00000000000E+00  0.00000000000E+00  0.62561007341E+03  0.62561007341E+03  0.00000000000E+00 0. -1.
         22   -1    0    0    0    0 -0.00000000000E+00 -0.00000000000E+00 -0.54679529034E+03  0.54679529034E+03  0.00000000000E+00 0. -1.
        -24    2    1    2    0    0  0.21882675295E+02  0.28291680922E+02 -0.49294316566E+03  0.50086908082E+03  0.81225617077E+02 0.  0.
         25    2    1    2    0    0 -0.74473690560E+02  0.28759588797E+00  0.80396938824E+02  0.16630247983E+03  0.12508570553E+03 0.  0.
         24    2    1    2    0    0  0.52591015265E+02 -0.28579276810E+02  0.49136100990E+03  0.50523380310E+03  0.10120752834E+03 0.  0.
        -11    1    5    5    0    0  0.26959487516E+02 -0.35642319950E+02  0.70093392717E+02  0.83128049665E+02  0.00000000000E+00 0.  1.
         12    1    5    5    0    0  0.25631527750E+02  0.70630431399E+01  0.42126761719E+03  0.42210575344E+03  0.00000000000E+00 0. -1.
         13    1    3    3    0    0 -0.21764704753E+02 -0.11303977516E+02 -0.23516865904E+03  0.23644403244E+03  0.00000000000E+00 0. -1.
        -14    1    3    3    0    0  0.43647380048E+02  0.39595658438E+02 -0.25777450661E+03  0.26442504838E+03  0.00000000000E+00 0.  1.
          5    1    4    4  501    0 -0.10470010018E+03  0.60065074744E+01  0.33711009953E+02  0.11023653524E+03  0.41800000000E+01 0. -1.
         -5    1    4    4    0  501  0.30226409618E+02 -0.57189115864E+01  0.46685928870E+02  0.56065944588E+02  0.41800000000E+01 0. -1.
</event>
<event>
11    1  0.8453735E-009  0.2997950E+03  0.7561462E-02  0.1000278E+00
         22   -1    0    0    0    0  0.00000000000E+00  0.00000000000E+00  0.12365553918E+04  0.12365553918E+04  0.00000000000E+00 0.  1.
         22   -1    0    0    0    0 -0.00000000000E+00 -0.00000000000E+00 -0.11876691498E+03  0.11876691498E+03  0.00000000000E+00 0.  1.
         24    2    1    2    0    0 -0.45273760537E+02  0.19634182942E+02  0.78787858195E+01  0.95931640412E+02  0.81887665941E+02 0.  0.
         25    2    1    2    0    0  0.29313969762E+03  0.46029443817E+02  0.54020858584E+03  0.62890556926E+03  0.12508919544E+03 0.  0.
        -24    2    1    2    0    0 -0.24786593708E+03 -0.65663626759E+02  0.56970110513E+03  0.63048509709E+03  0.84869746162E+02 0.  0.
        -13    1    3    3    0    0  0.15704788343E+02  0.23369159380E+02  0.18820205285E+02  0.33866770055E+02  0.00000000000E+00 0.  1.
         14    1    3    3    0    0 -0.60978548880E+02 -0.37349764379E+01 -0.10941419465E+02  0.62064870357E+02  0.00000000000E+00 0. -1.
         11    1    5    5    0    0 -0.86367991158E+02 -0.22666595731E+02  0.30177808855E+03  0.31471132676E+03  0.00000000000E+00 0. -1.
        -12    1    5    5    0    0 -0.16149794592E+03 -0.42997031028E+02  0.26792301658E+03  0.31577377033E+03  0.00000000000E+00 0.  1.
          5    1    4    4  501    0  0.17064775722E+03 -0.14043552444E+02  0.20601888653E+03  0.26791627875E+03  0.41800000000E+01 0. -1.
         -5    1    4    4    0  501  0.12249194039E+03  0.60072996261E+02  0.33418969931E+03  0.36098929051E+03  0.41800000000E+01 0. -1.
</event>
<event>
11    1  0.8453735E-009  0.1516849E+03  0.7561462E-02  0.1095169E+00
         22   -1    0    0    0    0  0.00000000000E+00  0.00000000000E+00  0.26699186756E+03  0.26699186756E+03  0.00000000000E+00 0. -1.
         22   -1    0    0    0    0 -0.00000000000E+00 -0.00000000000E+00 -0.11484061148E+04  0.11484061148E+04  0.00000000000E+00 0.  1.
         24    2    1    2    0    0  0.23190423885E+02  0.49089323379E+02 -0.10371968794E+04  0.10414415360E+04  0.76652128965E+02 0.  0.
         25    2    1    2    0    0 -0.58158935878E+02 -0.11777426511E+03 -0.14891919629E+01  0.18136068058E+03  0.12504494962E+03 0.  0.
        -24    2    1    2    0    0  0.34968511993E+02  0.68684941728E+02  0.15727182411E+03  0.19259576578E+03  0.80114195296E+02 0.  0.
        -13    1    3    3    0    0  0.51295058882E+02  0.28942236221E+02 -0.70162576116E+03  0.70409342052E+03  0.00000000000E+00 0.  1.
         14    1    3    3    0    0 -0.28104634997E+02  0.20147087158E+02 -0.33557111820E+03  0.33734811545E+03  0.00000000000E+00 0. -1.
         11    1    5    5    0    0  0.43743538948E+02  0.54339013176E+02  0.16091845889E+03  0.17538807246E+03  0.00000000000E+00 0. -1.
        -12    1    5    5    0    0 -0.87750269547E+01  0.14345928552E+02 -0.36466347791E+01  0.17207693317E+02  0.00000000000E+00 0.  1.
          5    1    4    4  501    0 -0.92164005540E+02 -0.59543003166E+02 -0.19304910829E+02  0.11148867712E+03  0.41800000000E+01 0. -1.
         -5    1    4    4    0  501  0.34005069662E+02 -0.58231261940E+02  0.17815718866E+02  0.69872003468E+02  0.41800000000E+01 0. -1.
</event>
<event>
11    1  0.8453735E-009  0.1586292E+03  0.7561462E-02  0.1088374E+00
         22   -1    0    0    0    0  0.00000000000E+00  0.00000000000E+00  0.12111482890E+04  0.12111482890E+04  0.00000000000E+00 0. -1.
         22   -1    0    0    0    0 -0.00000000000E+00 -0.00000000000E+00 -0.23899718988E+03  0.23899718988E+03  0.00000000000E+00 0.  1.
         24    2    1    2    0    0 -0.64595332044E+02 -0.46690255039E+02 -0.15494465908E+03  0.19156684972E+03  0.79608251439E+02 0.  0.
         25    2    1    2    0    0  0.10316991715E+03  0.13198369378E+03  0.11417699137E+03  0.23821623786E+03  0.12508742300E+03 0.  0.
        -24    2    1    2    0    0 -0.38574585104E+02 -0.85293438738E+02  0.10129187668E+04  0.10203623913E+04  0.79824884090E+02 0.  0.
        -11    1    3    3    0    0 -0.44758939243E+02 -0.54330563889E+02 -0.54848911972E+02  0.89238870226E+02  0.00000000000E+00 0.  1.
         12    1    3    3    0    0 -0.19836392801E+02  0.76403088503E+01 -0.10009574710E+03  0.10232797949E+03  0.00000000000E+00 0. -1.
         13    1    5    5    0    0 -0.38949304342E+02 -0.97717031517E+02  0.96978557766E+03  0.97547410688E+03  0.00000000000E+00 0. -1.
        -14    1    5    5    0    0  0.37471923728E+00  0.12423592779E+02  0.43133189151E+02  0.44888284423E+02  0.00000000000E+00 0.  1.
          5    1    4    4  501    0  0.81692479697E+02  0.32594131196E+02  0.38772354185E+01  0.88139344121E+02  0.41800000000E+01 0. -1.
         -5    1    4    4    0  501  0.21477437451E+02  0.99389562580E+02  0.11029975596E+03  0.15007689374E+03  0.41800000000E+01 0. -1.
</event>
<event>
11    1  0.8453735E-009  0.2447195E+03  0.7561462E-02  0.1026750E+00
         22   -1    0    0    0    0  0.00000000000E+00  0.00000000000E+00  0.86357819496E+03  0.86357819496E+03  0.00000000000E+00 0. -1.
         22   -1    0    0    0    0 -0.00000000000E+00 -0.00000000000E+00 -0.20738029254E+03  0.20738029254E+03  0.00000000000E+00 0.  1.
         24    2    1    2    0    0  0.18648179821E+02  0.56742408168E+02 -0.11997724533E+03  0.15618938718E+03  0.80206793816E+02 0.  0.
         25    2    1    2    0    0  0.17798329063E+03 -0.12646989998E+03  0.32124390109E+03  0.40806602471E+03  0.12509016427E+03 0.  0.
        -24    2    1    2    0    0 -0.19663147045E+03  0.69727491816E+02  0.45493124666E+03  0.50670307561E+03  0.79118325029E+02 0.  0.
        -11    1    3    3    0    0  0.25035364197E+02  0.41600529012E+01 -0.93670582444E+02  0.97047686814E+02  0.00000000000E+00 0.  1.
         12    1    3    3    0    0 -0.63871843753E+01  0.52582355267E+02 -0.26306662889E+02  0.59141700364E+02  0.00000000000E+00 0. -1.
         11    1    5    5    0    0 -0.19344073179E+03  0.72895945835E+02  0.45712966418E+03  0.50169778304E+03  0.00000000000E+00 0. -1.
        -12    1    5    5    0    0 -0.31907386605E+01 -0.31684540188E+01 -0.21984175209E+01  0.50052925654E+01  0.00000000000E+00 0.  1.
          5    1    4    4  501    0  0.17028957281E+03 -0.13767577842E+03  0.23730425231E+03  0.32293023881E+03  0.41800000000E+01 0. -1.
         -5    1    4    4    0  501  0.76937178167E+01  0.11205878436E+02  0.83939648774E+02  0.85135785905E+02  0.41800000000E+01 0. -1.
</event>
<event>
11    1  0.8453735E-009  0.1414739E+03  0.7561462E-02  0.1105924E+00
         22   -1    0    0    0    0  0.00000000000E+00  0.00000000000E+00  0.52742506525E+03  0.52742506525E+03  0.00000000000E+00 0.  1.
         22   -1    0    0    0    0 -0.00000000000E+00 -0.00000000000E+00 -0.58058522973E+03  0.58058522973E+03  0.00000000000E+00 0.  1.
         24    2    1    2    0    0  0.56761615540E+02 -0.30489187091E+02 -0.51580499675E+03  0.52630091856E+03  0.82379552561E+02 0.  0.
         25    2    1    2    0    0 -0.78557453427E+02  0.83313123556E+02  0.82472712813E+02  0.18857523210E+03  0.12508604942E+03 0.  0.
        -24    2    1    2    0    0  0.21795837887E+02 -0.52823936465E+02  0.38017211946E+03  0.39313414432E+03  0.82208200315E+02 0.  0.
        -11    1    3    3    0    0  0.56209343429E+02 -0.42933235499E+00 -0.45510538417E+03  0.45856361098E+03  0.00000000000E+00 0.  1.
         12    1    3    3    0    0  0.55227211048E+00 -0.30059854736E+02 -0.60699612581E+02  0.67737307583E+02  0.00000000000E+00 0. -1.
         13    1    5    5    0    0 -0.12007338036E+02  0.16321564315E+02  0.46895000895E+02  0.51085328005E+02  0.00000000000E+00 0. -1.
        -14    1    5    5    0    0  0.33803175923E+02 -0.69145500780E+02  0.33327711857E+03  0.34204881631E+03  0.00000000000E+00 0.  1.
          5    1    4    4  501    0 -0.10864930005E+03  0.78148023544E+02  0.47773930368E+02  0.14216752375E+03  0.41800000000E+01 0. -1.
         -5    1    4    4    0  501  0.30091846627E+02  0.51651000121E+01  0.34698782445E+02  0.46407708355E+02  0.41800000000E+01 0. -1.
</event>
<event>
11    1  0.8453735E-009  0.1456885E+03  0.7561462E-02  0.1101367E+00
         22   -1    0    0    0    0  0.00000000000E+00  0.00000000000E+00  0.14860221588E+04  0.14860221588E+04  0.00000000000E+00 0.  1.
         22   -1    0    0    0    0 -0.00000000000E+00 -0.00000000000E+00 -0.66753548978E+02  0.66753548978E+02  0.00000000000E+00 0. -1.
        -24    2    1    2    0    0  0.51127941071E+01  0.21830834898E+02 -0.23598731885E+02  0.85115787575E+02  0.78645223199E+02 0.  0.
         25    2    1    2    0    0  0.71042912736E+02 -0.13123993873E+02  0.58751317696E+03  0.60501089458E+03  0.12508842789E+03 0.  0.
         24    2    1    2    0    0 -0.76155706843E+02 -0.87068410250E+01  0.85535416472E+03  0.86264902560E+03  0.81591013581E+02 0.  0.
        -11    1    5    5    0    0 -0.52379987245E+02  0.74322968776E+01  0.78317668061E+03  0.78496153738E+03  0.00000000000E+00 0.  1.
         12    1    5    5    0    0 -0.23775719598E+02 -0.16139137903E+02  0.72177484109E+02  0.77687488227E+02  0.00000000000E+00 0. -1.
         13    1    3    3    0    0  0.41665153680E+02  0.12765053315E+02 -0.17527936395E+02  0.46969779344E+02  0.00000000000E+00 0. -1.
        -14    1    3    3    0    0 -0.36552359573E+02  0.90657815831E+01 -0.60707954897E+01  0.38146008231E+02  0.00000000000E+00 0.  1.
          5    1    4    4  501    0 -0.99240599791E+01  0.30332487338E+02  0.32991391852E+03  0.33148033544E+03  0.41800000000E+01 0.  1.
         -5    1    4    4    0  501  0.80966972715E+02 -0.43456481211E+02  0.25759925845E+03  0.27353055914E+03  0.41800000000E+01 0.  1.
</event>
<event>
11    1  0.8453735E-009  0.3970045E+03  0.7561462E-02  0.9658638E-01
         22   -1    0    0    0    0  0.00000000000E+00  0.00000000000E+00  0.10110024723E+04  0.10110024723E+04  0.00000000000E+00 0.  1.
         22   -1    0    0    0    0 -0.00000000000E+00 -0.00000000000E+00 -0.21451235680E+03  0.21451235680E+03  0.00000000000E+00 0. -1.
         24    2    1    2    0    0 -0.38159150355E+03 -0.24062990039E+02  0.15887415777E+03  0.42173643042E+03  0.80184260687E+02 0.  0.
         25    2    1    2    0    0  0.36668182741E+03  0.19316236433E+02  0.42606938586E+03  0.57620306847E+03  0.12508467134E+03 0.  0.
        -24    2    1    2    0    0  0.14909676137E+02  0.47467536067E+01  0.21154657191E+03  0.22757533025E+03  0.82424199978E+02 0.  0.
        -11    1    3    3    0    0 -0.10801777010E+03  0.27448202563E+02  0.33106460930E+02  0.11626383890E+03  0.00000000000E+00 0.  1.
         12    1    3    3    0    0 -0.27357373345E+03 -0.51511192602E+02  0.12576769684E+03  0.30547259152E+03  0.00000000000E+00 0. -1.
         13    1    5    5    0    0 -0.33420682687E+02 -0.98967384083E+00  0.10997574295E+03  0.11494601134E+03  0.00000000000E+00 0. -1.
        -14    1    5    5    0    0  0.48330358824E+02  0.57364274475E+01  0.10157082896E+03  0.11262931892E+03  0.00000000000E+00 0.  1.
          5    1    4    4  501    0  0.98994274501E+02 -0.84722314399E+01  0.20518501204E+03  0.22801317211E+03  0.41800000000E+01 0. -1.
         -5    1    4    4    0  501  0.26768755291E+03  0.27788467873E+02  0.22088437382E+03  0.34818989637E+03  0.41800000000E+01 0. -1.
</event>
<event>
11    1  0.8453735E-009  0.2061272E+03  0.7561462E-02  0.1050273E+00
         22   -1    0    0    0    0  0.00000000000E+00  0.00000000000E+00  0.20587951162E+04  0.20587951162E+04  0.00000000000E+00 0. -1.
         22   -1    0    0    0    0 -0.00000000000E+00 -0.00000000000E+00 -0.48871293176E+03  0.48871293176E+03  0.00000000000E+00 0.  1.
        -24    2    1    2    0    0 -0.48016345459E+02 -0.15639441378E+03 -0.44844942377E+03  0.48393050120E+03  0.79479948491E+02 0.  0.
         25    2    1    2    0    0  0.51956510656E+02  0.16251425316E+03  0.50080854567E+03  0.54366148696E+03  0.12509297145E+03 0.  0.
         24    2    1    2    0    0 -0.39401651972E+01 -0.61198393830E+01  0.15177230625E+04  0.15199160598E+04  0.81293031401E+02 0.  0.
        -13    1    5    5    0    0  0.29656243573E+02 -0.26051544012E+02  0.55571270230E+03  0.55711289989E+03  0.00000000000E+00 0.  1.
         14    1    5    5    0    0 -0.33596408770E+02  0.19931704629E+02  0.96201036025E+03  0.96280315992E+03  0.00000000000E+00 0. -1.
         11    1    3    3    0    0 -0.75020940931E+01 -0.96928866868E+02 -0.16519083866E+03  0.19167550658E+03  0.00000000000E+00 0. -1.
        -12    1    3    3    0    0 -0.40514251366E+02 -0.59465546912E+02 -0.28325858512E+03  0.29225499461E+03  0.00000000000E+00 0.  1.
          5    1    4    4  501    0  0.45539306795E+02  0.70644024984E+02  0.39254984603E+03  0.40146887893E+03  0.41800000000E+01 0. -1.
         -5    1    4    4    0  501  0.64172038614E+01  0.91870228179E+02  0.10825869963E+03  0.14219260803E+03  0.41800000000E+01 0.  1.
</event>
<event>
11    1  0.8453735E-009  0.2059325E+03  0.7561462E-02  0.1050406E+00
         22   -1    0    0    0    0  0.00000000000E+00  0.00000000000E+00  0.31497528755E+03  0.31497528755E+03  0.00000000000E+00 0.  1.
         22   -1    0    0    0    0 -0.00000000000E+00 -0.00000000000E+00 -0.27139285357E+04  0.27139285357E+04  0.00000000000E+00 0. -1.
         24    2    1    2    0    0  0.10229650931E+02 -0.13030853639E+02 -0.23505194568E+04  0.23519454247E+04  0.80194233263E+02 0.  0.
         25    2    1    2    0    0  0.12107696654E+03 -0.86687719268E+02 -0.30504405433E+03  0.36176550747E+03  0.12509202538E+03 0.  0.
        -24    2    1    2    0    0 -0.13130661747E+03  0.99718572907E+02  0.25661026292E+03  0.31519289115E+03  0.79451305983E+02 0.  0.
        -11    1    3    3    0    0 -0.33998850223E+02  0.30177961285E-01 -0.12457402794E+04  0.12462041432E+04  0.00000000000E+00 0.  1.
         12    1    3    3    0    0  0.44228501154E+02 -0.13061031601E+02 -0.11047791774E+04  0.11057412815E+04  0.00000000000E+00 0. -1.
         11    1    5    5    0    0 -0.14260399665E+02 -0.13889206017E+02  0.27429403972E+02  0.33891610240E+02  0.00000000000E+00 0. -1.
        -12    1    5    5    0    0 -0.11704621780E+03  0.11360777892E+03  0.22918085895E+03  0.28130128091E+03  0.00000000000E+00 0.  1.
          5    1    4    4  501    0  0.12550554899E+03 -0.35960241902E+02 -0.15198246375E+03  0.20040190496E+03  0.41800000000E+01 0. -1.
         -5    1    4    4    0  501 -0.44285824510E+01 -0.50727477366E+02 -0.15306159059E+03  0.16136360251E+03  0.41800000000E+01 0. -1.
</event>
<event>
11    1  0.8453735E-009  0.1350636E+03  0.7561462E-02  0.1113199E+00
         22   -1    0    0    0    0  0.00000000000E+00  0.00000000000E+00  0.17462364542E+04  0.17462364542E+04  0.00000000000E+00 0.  1.
         22   -1    0    0    0    0 -0.00000000000E+00 -0.00000000000E+00 -0.81426045107E+03  0.81426045107E+03  0.00000000000E+00 0.  1.
        -24    2    1    2    0    0 -0.97392845680E+01  0.57360774989E+02 -0.80246821933E+03  0.80866379388E+03  0.81220541284E+02 0.  0.
         25    2    1    2    0    0 -0.18143470348E+02  0.34962899770E+01  0.63966625452E+03  0.65204489728E+03  0.12509285086E+03 0.  0.
         24    2    1    2    0    0  0.27882754916E+02 -0.60857064966E+02  0.10947779679E+04  0.10997882141E+04  0.80711129598E+02 0.  0.
        -13    1    5    5    0    0  0.10025097226E+02 -0.48745151067E+01  0.74683541221E+03  0.74691860092E+03  0.00000000000E+00 0.  1.
         14    1    5    5    0    0  0.17857657689E+02 -0.55982549859E+02  0.34794255569E+03  0.35286961316E+03  0.00000000000E+00 0. -1.
         13    1    3    3    0    0 -0.87341354377E+01  0.30360579861E+01 -0.76790913454E+01  0.12019617874E+02  0.00000000000E+00 0. -1.
        -14    1    3    3    0    0 -0.10051491303E+01  0.54324717003E+02 -0.79478912798E+03  0.79664417600E+03  0.00000000000E+00 0.  1.
          5    1    4    4  501    0 -0.66424352743E+02  0.15945343059E+02  0.25070476221E+03  0.25987843080E+03  0.41800000000E+01 0.  1.
         -5    1    4    4    0  501  0.48280882395E+02 -0.12449053082E+02  0.38896149231E+03  0.39216646648E+03  0.41800000000E+01 0.  1.
</event>
<event>
11    1  0.8453735E-009  0.1743194E+03  0.7561462E-02  0.1074333E+00
         22   -1    0    0    0    0  0.00000000000E+00  0.00000000000E+00  0.16343604975E+04  0.16343604975E+04  0.00000000000E+00 0.  1.
         22   -1    0    0    0    0 -0.00000000000E+00 -0.00000000000E+00 -0.15976553732E+04  0.15976553732E+04  0.00000000000E+00 0. -1.
         24    2    1    2    0    0  0.10699972676E+03 -0.49691798926E+02 -0.15661599906E+04  0.15727347782E+04  0.81971640229E+02 0.  0.
         25    2    1    2    0    0  0.40031310053E+01  0.11876562686E+03  0.29062249999E+03  0.33797973189E+03  0.12509021740E+03 0.  0.
        -24    2    1    2    0    0 -0.11100285777E+03 -0.69073827934E+02  0.13122426149E+04  0.13213013606E+04  0.82242184878E+02 0.  0.
        -13    1    3    3    0    0  0.33005982285E+02 -0.59010859578E+02 -0.85740503534E+03  0.86006689916E+03  0.00000000000E+00 0.  1.
         14    1    3    3    0    0  0.73993744479E+02  0.93190606522E+01 -0.70875495531E+03  0.71266787902E+03  0.00000000000E+00 0. -1.
         11    1    5    5    0    0 -0.32431005620E+02 -0.33564910635E+02  0.83700525420E+03  0.83830553434E+03  0.00000000000E+00 0. -1.
        -12    1    5    5    0    0 -0.78571852149E+02 -0.35508917299E+02  0.47523736072E+03  0.48299582625E+03  0.00000000000E+00 0.  1.
          5    1    4    4  501    0 -0.53198431900E+02  0.42611483453E+02  0.17665577350E+03  0.18939521216E+03  0.41800000000E+01 0.  1.
         -5    1    4    4    0  501  0.57201562906E+02  0.76154143407E+02  0.11396672649E+03  0.14858451973E+03  0.41800000000E+01 0.  1.
</event>
<event>
11    1  0.8453735E-009  0.2169722E+03  0.7561462E-02  0.1043131E+00
         22   -1    0    0    0    0  0.00000000000E+00  0.00000000000E+00  0.18800895072E+03  0.18800895072E+03  0.00000000000E+00 0. -1.
         22   -1    0    0    0    0 -0.00000000000E+00 -0.00000000000E+00 -0.16107430088E+04  0.16107430088E+04  0.00000000000E+00 0. -1.
         24    2    1    2    0    0  0.46379483987E+02  0.17718574892E+03 -0.14483507355E+04  0.14620063519E+04  0.78720225444E+02 0.  0.
         25    2    1    2    0    0 -0.28760904992E+02 -0.12350542281E+03 -0.77546794285E+02  0.19430237381E+03  0.12513643772E+03 0.  0.
        -24    2    1    2    0    0 -0.17618578995E+02 -0.53680326114E+02  0.10316347171E+03  0.14244323377E+03  0.80345387006E+02 0.  0.
        -11    1    3    3    0    0  0.61578515944E+02  0.15800863344E+03 -0.11224629105E+04  0.11352011396E+04  0.00000000000E+00 0.  1.
         12    1    3    3    0    0 -0.15199031957E+02  0.19177115485E+02 -0.32588782494E+03  0.32680521228E+03  0.00000000000E+00 0. -1.
         11    1    5    5    0    0 -0.32276220492E+02 -0.57131614510E+02  0.10821898092E+03  0.12655877535E+03  0.00000000000E+00 0. -1.
        -12    1    5    5    0    0  0.14657641497E+02  0.34512883954E+01 -0.50555092125E+01  0.15884458418E+02  0.00000000000E+00 0.  1.
          5    1    4    4  501    0  0.48708681949E+02 -0.35116067412E+02 -0.32115398812E+02  0.68224226845E+02  0.41800000000E+01 0. -1.
         -5    1    4    4    0  501 -0.77469586941E+02 -0.88389355398E+02 -0.45431395473E+02  0.12607814697E+03  0.41800000000E+01 0. -1.
</event>
<event>
11    1  0.8453735E-009  0.2103803E+03  0.7561462E-02  0.1047417E+00
         22   -1    0    0    0    0  0.00000000000E+00  0.00000000000E+00  0.25184204352E+04  0.25184204352E+04  0.00000000000E+00 0.  1.
         22   -1    0    0    0    0 -0.00000000000E+00 -0.00000000000E+00 -0.58439895650E+02  0.58439895650E+02  0.00000000000E+00 0. -1.
        -24    2    1    2    0    0 -0.16873820924E+03 -0.29934178448E+02  0.13322226544E+03  0.23208334697E+03  0.82133243188E+02 0.  0.
         25    2    1    2    0    0  0.14408765886E+03  0.55375113441E+02  0.14161066496E+04  0.14299768381E+04  0.12509219730E+03 0.  0.
         24    2    1    2    0    0  0.24650550385E+02 -0.25440934993E+02  0.91065162448E+03  0.91480014575E+03  0.79486065952E+02 0.  0.
        -11    1    5    5    0    0 -0.15385307184E+02  0.17974298294E+02  0.40908744962E+03  0.40977106354E+03  0.00000000000E+00 0.  1.
         12    1    5    5    0    0  0.40035857569E+02 -0.43415233287E+02  0.50156417486E+03  0.50502908221E+03  0.00000000000E+00 0. -1.
         13    1    3    3    0    0 -0.12272900455E+03  0.15673263503E+02  0.73138761688E+02  0.14372660925E+03  0.00000000000E+00 0. -1.
        -14    1    3    3    0    0 -0.46009204696E+02 -0.45607441951E+02  0.60083503747E+02  0.88356737721E+02  0.00000000000E+00 0.  1.
          5    1    4    4  501    0  0.75068452238E+02  0.57960273551E+02  0.11833791749E+04  0.11871808666E+04  0.41800000000E+01 0. -1.
         -5    1    4    4    0  501  0.69019206620E+02 -0.25851601098E+01  0.23272747467E+03  0.24279597155E+03  0.41800000000E+01 0. -1.
</event>
<event>
11    1  0.8453735E-009  0.1701163E+03  0.7561462E-02  0.1077931E+00
         22   -1    0    0    0    0  0.00000000000E+00  0.00000000000E+00  0.93813253816E+03  0.93813253816E+03  0.00000000000E+00 0.  1.
         22   -1    0    0    0    0 -0.00000000000E+00 -0.00000000000E+00 -0.14724330268E+03  0.14724330268E+03  0.00000000000E+00 0.  1.
        -24    2    1    2    0    0  0.12682124426E+03 -0.30356680620E+02 -0.32094678522E+02  0.15874062895E+03  0.84636651847E+02 0.  0.
         25    2    1    2    0    0 -0.90351839709E+02 -0.32323669042E+02  0.82139526088E+02  0.17777089720E+03  0.12508923065E+03 0.  0.
         24    2    1    2    0    0 -0.36469404547E+02  0.62680349662E+02  0.74084438791E+03  0.74886431469E+03  0.81783317435E+02 0.  0.
        -11    1    5    5    0    0 -0.15837089259E+02  0.78725167795E+02  0.47520151849E+03  0.48193873949E+03  0.00000000000E+00 0.  1.
         12    1    5    5    0    0 -0.20632315288E+02 -0.16044818133E+02  0.26564286942E+03  0.26692557520E+03  0.00000000000E+00 0. -1.
         13    1    3    3    0    0  0.36703759959E+02  0.22748851435E+02  0.12612480229E+02  0.44986118906E+02  0.00000000000E+00 0. -1.
        -14    1    3    3    0    0  0.90117484297E+02 -0.53105532055E+02 -0.44707158751E+02  0.11375451004E+03  0.00000000000E+00 0.  1.
          5    1    4    4  501    0 -0.96951868706E+02 -0.38198816993E+02  0.97720857782E+01  0.10474626736E+03  0.41800000000E+01 0.  1.
         -5    1    4    4    0  501  0.66000289971E+01  0.58751479505E+01  0.72367440310E+02  0.73024629839E+02  0.41800000000E+01 0.  1.
</event>
<event>
11    1  0.8453735E-009  0.1389300E+03  0.7561462E-02  0.1108759E+00
         22   -1    0    0    0    0  0.00000000000E+00  0.00000000000E+00  0.11488772773E+04  0.11488772773E+04  0.00000000000E+00 0. -1.
         22   -1    0    0    0    0 -0.00000000000E+00 -0.00000000000E+00 -0.43574859464E+03  0.43574859464E+03  0.00000000000E+00 0. -1.
         24    2    1    2    0    0  0.31749013864E+02 -0.52956358029E+02 -0.41024071520E+03  0.42303071022E+03  0.82735492031E+02 0.  0.
         25    2    1    2    0    0  0.25974822130E+02  0.24176649209E+02  0.24368272350E+03  0.27620360399E+03  0.12509180379E+03 0.  0.
        -24    2    1    2    0    0 -0.57723835993E+02  0.28779708820E+02  0.87968667433E+03  0.88539155770E+03  0.76871663008E+02 0.  0.
        -13    1    3    3    0    0  0.41710133066E+02 -0.10654587161E+01 -0.10052275759E+03  0.10883793087E+03  0.00000000000E+00 0.  1.
         14    1    3    3    0    0 -0.99611192028E+01 -0.51890899313E+02 -0.30971795761E+03  0.31419277934E+03  0.00000000000E+00 0. -1.
         13    1    5    5    0    0 -0.63670797397E+02  0.40355458107E+02  0.84479992489E+03  0.84815649885E+03  0.00000000000E+00 0. -1.
        -14    1    5    5    0    0  0.59469614038E+01 -0.11575749287E+02  0.34886749440E+02  0.37235058856E+02  0.00000000000E+00 0.  1.
          5    1    4    4  501    0  0.67988503067E+02  0.91867610397E+01  0.75259144067E+02  0.10192273688E+03  0.41800000000E+01 0.  1.
         -5    1    4    4    0  501 -0.42013680938E+02  0.14989888169E+02  0.16842357943E+03  0.17428086711E+03  0.41800000000E+01 0.  1.
</event>
<event>
11    1  0.8453735E-009  0.1523444E+03  0.7561462E-02  0.1094507E+00
         22   -1    0    0    0    0  0.00000000000E+00  0.00000000000E+00  0.12210527709E+03  0.12210527709E+03  0.00000000000E+00 0.  1.
         22   -1    0    0    0    0 -0.00000000000E+00 -0.00000000000E+00 -0.85455339409E+03  0.85455339409E+03  0.00000000000E+00 0.  1.
        -24    2    1    2    0    0  0.83774683525E+02  0.31721147460E+02 -0.66465884064E+03  0.67561323604E+03  0.81593146002E+02 0.  0.
         25    2    1    2    0    0 -0.48528633276E+02 -0.64987378461E+02 -0.11996473839E+03  0.19135722570E+03  0.12509061422E+03 0.  0.
         24    2    1    2    0    0 -0.35246050249E+02  0.33266231000E+02  0.52175462030E+02  0.10968820943E+03  0.83428402034E+02 0.  0.
        -13    1    5    5    0    0 -0.34940547954E+02  0.59528470861E+02  0.29792387699E+02  0.75180230774E+02  0.00000000000E+00 0.  1.
         14    1    5    5    0    0 -0.30550229486E+00 -0.26262239861E+02  0.22383074331E+02  0.34507978652E+02  0.00000000000E+00 0. -1.
         11    1    3    3    0    0  0.49947753550E+02  0.32668226474E+02 -0.17719286667E+03  0.18697407067E+03  0.00000000000E+00 0. -1.
        -12    1    3    3    0    0  0.33826929975E+02 -0.94707901384E+00 -0.48746597398E+03  0.48863916537E+03  0.00000000000E+00 0.  1.
          5    1    4    4  501    0  0.33020472594E+01  0.86286299706E+01 -0.98088738315E+02  0.98611509245E+02  0.41800000000E+01 0.  1.
         -5    1    4    4    0  501 -0.51830680536E+02 -0.73616008431E+02 -0.21876000073E+02  0.92745716458E+02  0.41800000000E+01 0.  1.
</event>
<event>
11    1  0.1206319E-008  0.1423717E+03  0.7561462E-02  0.1104938E+00
         22   -1    0    0    0    0  0.00000000000E+00  0.00000000000E+00  0.98419147531E+03  0.98419147531E+03  0.00000000000E+00 0. -1.
         22   -1    0    0    0    0 -0.00000000000E+00 -0.00000000000E+00 -0.16317680102E+04  0.16317680102E+04  0.00000000000E+00 0.  1.
        -24    2    1    2    0    0 -0.12776162144E+02 -0.77145385956E+01 -0.12065605713E+04  0.12093761200E+04  0.81113765314E+02 0.  0.
         25    2    1    2    0    0 -0.14805380001E+02 -0.54532564290E+02 -0.40976925736E+03  0.43214496969E+03  0.12508169610E+03 0.  0.
         24    2    1    2    0    0  0.27581542146E+02  0.62247102886E+02  0.96875329378E+03  0.97443839584E+03  0.80073714817E+02 0.  0.
        -13    1    5    5    0    0 -0.26944817714E+02  0.13045643309E+02  0.20712775143E+03  0.20927999766E+03  0.00000000000E+00 0.  1.
         14    1    5    5    0    0  0.54526359860E+02  0.49201459577E+02  0.76162554235E+03  0.76515839818E+03  0.00000000000E+00 0. -1.
         13    1    3    3    0    0 -0.10056958145E+02  0.87064804551E+01 -0.31447035460E+02  0.34144710400E+02  0.00000000000E+00 0. -1.
        -14    1    3    3    0    0 -0.27192039999E+01 -0.16421019051E+02 -0.11751135358E+04  0.11752314096E+04  0.00000000000E+00 0.  1.
          5    1    4    4  501    0 -0.59970068525E+02 -0.26101144689E+01 -0.26570846376E+03  0.27243656497E+03  0.41800000000E+01 0. -1.
         -5    1    4    4    0  501  0.45164688524E+02 -0.51922449821E+02 -0.14406079360E+03  0.15970840472E+03  0.41800000000E+01 0. -1.
</event>
<event>
11    1  0.8453735E-009  0.1748291E+03  0.7561462E-02  0.1073904E+00
         22   -1    0    0    0    0  0.00000000000E+00  0.00000000000E+00  0.14989999018E+04  0.14989999018E+04  0.00000000000E+00 0.  1.
         22   -1    0    0    0    0 -0.00000000000E+00 -0.00000000000E+00 -0.11299026606E+04  0.11299026606E+04  0.00000000000E+00 0. -1.
        -24    2    1    2    0    0  0.89557375288E+01 -0.47882826555E+02 -0.10947397775E+04  0.10987971441E+04  0.80789931312E+02 0.  0.
         25    2    1    2    0    0 -0.12554067994E+03  0.91054498545E+01  0.24664076178E+03  0.30384602847E+03  0.12508945641E+03 0.  0.
         24    2    1    2    0    0  0.11658494242E+03  0.38777376701E+02  0.12171962570E+04  0.12262593899E+04  0.83962073229E+02 0.  0.
        -11    1    5    5    0    0  0.87137874961E+02  0.29893556305E+02  0.11308925608E+04  0.11346385407E+04  0.00000000000E+00 0.  1.
         12    1    5    5    0    0  0.29447067455E+02  0.88838203958E+01  0.86303696109E+02  0.91620849203E+02  0.00000000000E+00 0. -1.
         13    1    3    3    0    0  0.17267940874E+02 -0.56770458855E+01 -0.85727041679E+03  0.85746310599E+03  0.00000000000E+00 0. -1.
        -14    1    3    3    0    0 -0.83122033453E+01 -0.42205780670E+02 -0.23746936073E+03  0.24133403807E+03  0.00000000000E+00 0.  1.
          5    1    4    4  501    0 -0.74752253462E+02 -0.52781702550E+02  0.16907676665E+03  0.19229725152E+03  0.41800000000E+01 0. -1.
         -5    1    4    4    0  501 -0.50788426483E+02  0.61887152405E+02  0.77563995133E+02  0.11154877695E+03  0.41800000000E+01 0. -1.
</event>
<event>
11    1  0.8453735E-009  0.1320996E+03  0.7561462E-02  0.1116716E+00
         22   -1    0    0    0    0  0.00000000000E+00  0.00000000000E+00  0.22921335753E+04  0.22921335753E+04  0.00000000000E+00 0. -1.
         22   -1    0    0    0    0 -0.00000000000E+00 -0.00000000000E+00 -0.33217397117E+02  0.33217397117E+02  0.00000000000E+00 0. -1.
        -24    2    1    2    0    0  0.45676617108E+02 -0.27332056700E+02  0.58060665105E+02  0.11047296601E+03  0.77458638724E+02 0.  0.
         25    2    1    2    0    0 -0.22217924398E+02 -0.19650784446E+02  0.76565251667E+03  0.77636934198E+03  0.12508312995E+03 0.  0.
         24    2    1    2    0    0 -0.23458692710E+02  0.46982841146E+02  0.14352029964E+04  0.14385086644E+04  0.82108702883E+02 0.  0.
        -11    1    5    5    0    0  0.81765887264E+01 -0.89611322968E+00  0.14683341104E+02  0.16830333570E+02  0.00000000000E+00 0.  1.
         12    1    5    5    0    0 -0.31635281436E+02  0.47878954376E+02  0.14205196553E+04  0.14216783309E+04  0.00000000000E+00 0. -1.
         11    1    3    3    0    0  0.63470828619E+02 -0.13577519333E+02  0.23084130834E+02  0.68889565344E+02  0.00000000000E+00 0. -1.
        -12    1    3    3    0    0 -0.17794211511E+02 -0.13754537366E+02  0.34976534271E+02  0.41583400667E+02  0.00000000000E+00 0.  1.
          5    1    4    4  501    0 -0.44238087932E+02 -0.37932444681E+02  0.16530851719E+03  0.17532899657E+03  0.41800000000E+01 0.  1.
         -5    1    4    4    0  501  0.22020163534E+02  0.18281660235E+02  0.60034399948E+03  0.60104034542E+03  0.41800000000E+01 0.  1.
</event>
<event>
11    1  0.8453735E-009  0.1444966E+03  0.7561462E-02  0.1102639E+00
         22   -1    0    0    0    0  0.00000000000E+00  0.00000000000E+00  0.17862047099E+04  0.17862047099E+04  0.00000000000E+00 0.  1.
         22   -1    0    0    0    0 -0.00000000000E+00 -0.00000000000E+00 -0.16507186168E+03  0.16507186168E+03  0.00000000000E+00 0. -1.
        -24    2    1    2    0    0  0.15236306232E+02  0.64500249055E+02 -0.93832483118E+02  0.14108058896E+03  0.81894874921E+02 0.  0.
         25    2    1    2    0    0 -0.29844031755E+01 -0.11402894374E+03  0.10914010182E+03  0.20142027584E+03  0.12508820497E+03 0.  0.
         24    2    1    2    0    0 -0.12251903056E+02  0.49528694685E+02  0.16058252295E+04  0.16087757067E+04  0.82954241760E+02 0.  0.
        -11    1    5    5    0    0 -0.45777154424E+02  0.37499287059E+02  0.11709379623E+04  0.11724322821E+04  0.00000000000E+00 0.  1.
         12    1    5    5    0    0  0.33525251368E+02  0.12029407625E+02  0.43488726717E+03  0.43634342469E+03  0.00000000000E+00 0. -1.
         13    1    3    3    0    0 -0.17112986593E+02  0.56473469035E+02 -0.89875728713E+02  0.10751629470E+03  0.00000000000E+00 0. -1.
        -14    1    3    3    0    0  0.32349292824E+02  0.80267800197E+01 -0.39567544046E+01  0.33564294260E+02  0.00000000000E+00 0.  1.
          5    1    4    4  501    0  0.36337236318E+02 -0.86309821746E+01  0.74828374478E+02  0.83735575615E+02  0.41800000000E+01 0. -1.
         -5    1    4    4    0  501 -0.39321639494E+02 -0.10539796156E+03  0.34311727339E+02  0.11768470023E+03  0.41800000000E+01 0. -1.
</event>
<event>
11    1  0.8453735E-009  0.1303976E+03  0.7561462E-02  0.1118781E+00
         22   -1    0    0    0    0  0.00000000000E+00  0.00000000000E+00  0.14495527482E+04  0.14495527482E+04  0.00000000000E+00 0. -1.
         22   -1    0    0    0    0 -0.00000000000E+00 -0.00000000000E+00 -0.13488304894E+03  0.13488304894E+03  0.00000000000E+00 0. -1.
         24    2    1    2    0    0 -0.33099609755E+02 -0.10860970451E+02 -0.80645277449E+02  0.12126995826E+03  0.83601418385E+02 0.  0.
         25    2    1    2    0    0  0.55449077971E+02 -0.88587968756E+01  0.11238608046E+03  0.17728781306E+03  0.12508900450E+03 0.  0.
        -24    2    1    2    0    0 -0.22349468216E+02  0.19719767326E+02  0.12829288963E+04  0.12858780259E+04  0.81776381097E+02 0.  0.
        -13    1    3    3    0    0  0.14604026878E+02 -0.29665663182E+02 -0.11128421373E+02  0.34887976945E+02  0.00000000000E+00 0.  1.
         14    1    3    3    0    0 -0.47703636633E+02  0.18804692731E+02 -0.69516856076E+02  0.86381981313E+02  0.00000000000E+00 0. -1.
         13    1    5    5    0    0 -0.14065960643E+02 -0.31601768362E+02  0.57878434939E+03  0.57981707987E+03  0.00000000000E+00 0. -1.
        -14    1    5    5    0    0 -0.82835075732E+01  0.51321535688E+02  0.70414454691E+03  0.70606094600E+03  0.00000000000E+00 0.  1.
          5    1    4    4  501    0  0.56241500593E+01  0.53659442014E+02  0.27844767750E+02  0.60858608858E+02  0.41800000000E+01 0. -1.
         -5    1    4    4    0  501  0.49824927912E+02 -0.62518238889E+02  0.84541312711E+02  0.11642920420E+03  0.41800000000E+01 0. -1.
</event>
<event>
11    1  0.8453735E-009  0.1267296E+03  0.7561462E-02  0.1123354E+00
         22   -1    0    0    0    0  0.00000000000E+00  0.00000000000E+00  0.27284749683E+03  0.27284749683E+03  0.00000000000E+00 0. -1.
         22   -1    0    0    0    0 -0.00000000000E+00 -0.00000000000E+00 -0.13873022842E+04  0.13873022842E+04  0.00000000000E+00 0.  1.
         24    2    1    2    0    0  0.12252694528E+02 -0.36138324027E+01 -0.12133983020E+04  0.12162702903E+04  0.82551751235E+02 0.  0.
         25    2    1    2    0    0 -0.30710881833E+02  0.10755175995E+02 -0.14006694159E+03  0.19059150991E+03  0.12509014130E+03 0.  0.
        -24    2    1    2    0    0  0.18458187306E+02 -0.71413435928E+01  0.23901045619E+03  0.25328798077E+03  0.81468396135E+02 0.  0.
        -11    1    3    3    0    0  0.44455801962E+02  0.13284772388E+02 -0.76057969678E+03  0.76199362115E+03  0.00000000000E+00 0.  1.
         12    1    3    3    0    0 -0.32203107434E+02 -0.16898604791E+02 -0.45281860517E+03  0.45427666918E+03  0.00000000000E+00 0. -1.
         11    1    5    5    0    0  0.16947747296E+02  0.10326061365E+02  0.23429274234E+03  0.23513175625E+03  0.00000000000E+00 0. -1.
        -12    1    5    5    0    0  0.15104400096E+01 -0.17467404958E+02  0.47177138443E+01  0.18156224522E+02  0.00000000000E+00 0.  1.
          5    1    4    4  501    0 -0.39111502393E+02 -0.47515078881E+02 -0.37306814572E+02  0.72087884932E+02  0.41800000000E+01 0.  1.
         -5    1    4    4    0  501  0.84006205593E+01  0.58270254876E+02 -0.10276012702E+03  0.11850362498E+03  0.41800000000E+01 0.  1.
</event>
<event>
11    1  0.8453735E-009  0.1325644E+03  0.7561462E-02  0.1116158E+00
         22   -1    0    0    0    0  0.00000000000E+00  0.00000000000E+00  0.15503071635E+04  0.15503071635E+04  0.00000000000E+00 0.  1.
         22   -1    0    0    0    0 -0.00000000000E+00 -0.00000000000E+00 -0.91381879330E+02  0.91381879330E+02  0.00000000000E+00 0. -1.
         24    2    1    2    0    0  0.16642457767E+02 -0.41205122554E+01 -0.62060985644E+02  0.10336161378E+03  0.80858563195E+02 0.  0.
         25    2    1    2    0    0 -0.52342488726E+01  0.46249430904E+02  0.73587688606E+03  0.74788483060E+03  0.12510204309E+03 0.  0.
        -24    2    1    2    0    0 -0.11408208894E+02 -0.42128918649E+02  0.78510938379E+03  0.79044259849E+03  0.80608709022E+02 0.  0.
        -11    1    3    3    0    0 -0.15174290561E+02 -0.34273084801E+02 -0.19445272248E+02  0.42225845741E+02  0.00000000000E+00 0.  1.
         12    1    3    3    0    0  0.31816748327E+02  0.30152572545E+02 -0.42615713396E+02  0.61135768037E+02  0.00000000000E+00 0. -1.
         13    1    5    5    0    0  0.30766507826E+02 -0.15655099012E+02  0.17948337663E+03  0.18277292638E+03  0.00000000000E+00 0. -1.
        -14    1    5    5    0    0 -0.42174716720E+02 -0.26473819637E+02  0.60562600716E+03  0.60766967211E+03  0.00000000000E+00 0.  1.
          5    1    4    4  501    0 -0.31453132927E+02 -0.22537463292E+02  0.48058965116E+03  0.48216296210E+03  0.41800000000E+01 0.  1.
         -5    1    4    4    0  501  0.26218884055E+02  0.68786894196E+02  0.25528723490E+03  0.26572186849E+03  0.41800000000E+01 0.  1.
</event>
<event>
11    1  0.8453735E-009  0.1346811E+03  0.7561462E-02  0.1113648E+00
         22   -1    0    0    0    0  0.00000000000E+00  0.00000000000E+00  0.49222173402E+03  0.49222173402E+03  0.00000000000E+00 0.  1.
         22   -1    0    0    0    0 -0.00000000000E+00 -0.00000000000E+00 -0.49939248340E+03  0.49939248340E+03  0.00000000000E+00 0. -1.
        -24    2    1    2    0    0  0.30850865690E+02 -0.44089729506E+02 -0.42107103638E+03  0.43201293190E+03  0.80241357751E+02 0.  0.
         25    2    1    2    0    0 -0.12728969080E+02  0.13038809293E+01 -0.96387009644E+01  0.12611123641E+03  0.12508961840E+03 0.  0.
         24    2    1    2    0    0 -0.18121896610E+02  0.42785848577E+02  0.42353898795E+03  0.43349004911E+03  0.79807997030E+02 0.  0.
        -13    1    5    5    0    0 -0.27788286636E+02  0.17472294920E+02  0.38489905977E+03  0.38629620264E+03  0.00000000000E+00 0.  1.
         14    1    5    5    0    0  0.96663900257E+01  0.25313553657E+02  0.38639928183E+02  0.47193846472E+02  0.00000000000E+00 0. -1.
         11    1    3    3    0    0  0.30696412576E+02 -0.64746323769E+02 -0.26257405664E+03  0.27217547907E+03  0.00000000000E+00 0. -1.
        -12    1    3    3    0    0  0.15445311436E+00  0.20656594262E+02 -0.15849697974E+03  0.15983745283E+03  0.00000000000E+00 0.  1.
          5    1    4    4  501    0  0.32451250744E+02 -0.22663429284E+02 -0.47771422479E+02  0.62179545732E+02  0.41800000000E+01 0. -1.
         -5    1    4    4    0  501 -0.45180219824E+02  0.23967310213E+02  0.38132721515E+02  0.63931690673E+02  0.41800000000E+01 0. -1.
</event>
<event>
11    1  0.8453735E-009  0.1319375E+03  0.7561462E-02  0.1116911E+00
         22   -1    0    0    0    0  0.00000000000E+00  0.00000000000E+00  0.25976690807E+03  0.25976690807E+03  0.00000000000E+00 0. -1.
         22   -1    0    0    0    0 -0.00000000000E+00 -0.00000000000E+00 -0.27688573179E+04  0.27688573179E+04  0.00000000000E+00 0. -1.
        -24    2    1    2    0    0  0.10007769047E+02  0.20633304523E+02 -0.24016320877E+04  0.24031598582E+04  0.82551384446E+02 0.  0.
         25    2    1    2    0    0  0.27879170983E+02 -0.38645984451E+02 -0.34537188176E+03  0.37040543414E+03  0.12509072164E+03 0.  0.
         24    2    1    2    0    0 -0.37886940030E+02  0.18012679928E+02  0.23791355956E+03  0.25505893362E+03  0.81806606894E+02 0.  0.
        -13    1    5    5    0    0  0.99375384280E+01  0.15400547319E+02  0.76399094007E+01  0.19856982233E+02  0.00000000000E+00 0.  1.
         14    1    5    5    0    0 -0.47824478458E+02  0.26121326085E+01  0.23027365016E+03  0.23520195138E+03  0.00000000000E+00 0. -1.
         13    1    3    3    0    0  0.13654729081E+02 -0.25176826011E+02 -0.15683728830E+04  0.15686343820E+04  0.00000000000E+00 0. -1.
        -14    1    3    3    0    0 -0.36469600336E+01  0.45810130534E+02 -0.83325920468E+03  0.83452547628E+03  0.00000000000E+00 0.  1.
          5    1    4    4  501    0 -0.31173392226E+02  0.26372505356E+02 -0.67986009902E+02  0.79415737508E+02  0.41800000000E+01 0. -1.
         -5    1    4    4    0  501  0.59052563209E+02 -0.65018489807E+02 -0.27738587186E+03  0.29098969663E+03  0.41800000000E+01 0. -1.
</event>
<event>
11    1  0.8453735E-009  0.1344175E+03  0.7561462E-02  0.1113957E+00
         22   -1    0    0    0    0  0.00000000000E+00  0.00000000000E+00  0.18978566581E+03  0.18978566581E+03  0.00000000000E+00 0.  1.
         22   -1    0    0    0    0 -0.00000000000E+00 -0.00000000000E+00 -0.25560466711E+04  0.25560466711E+04  0.00000000000E+00 0.  1.
        -24    2    1    2    0    0 -0.68078987998E+01  0.29701572910E+02 -0.24701334995E+04  0.24715973449E+04  0.79406539920E+02 0.  0.
         25    2    1    2    0    0 -0.22151855591E+02  0.17924942902E+02 -0.32321159662E+01  0.12833350631E+03  0.12508810489E+03 0.  0.
         24    2    1    2    0    0  0.28959754391E+02 -0.47626515811E+02  0.10710461019E+03  0.14590148578E+03  0.81907836284E+02 0.  0.
        -11    1    5    5    0    0  0.44630777825E+02 -0.61151038005E+02  0.96471981678E+02  0.12263033486E+03  0.00000000000E+00 0.  1.
         12    1    5    5    0    0 -0.15671023434E+02  0.13524522193E+02  0.10632628517E+02  0.23271150921E+02  0.00000000000E+00 0. -1.
         11    1    3    3    0    0  0.27993945142E+02  0.29291283101E+01 -0.39595745175E+03  0.39695660260E+03  0.00000000000E+00 0. -1.
        -12    1    3    3    0    0 -0.34801843942E+02  0.26772444599E+02 -0.20741760478E+04  0.20746407423E+04  0.00000000000E+00 0.  1.
          5    1    4    4  501    0  0.30009957602E+02 -0.14119718727E+02 -0.43558734177E+02  0.54907192018E+02  0.41800000000E+01 0.  1.
         -5    1    4    4    0  501 -0.52161813193E+02  0.32044661629E+02  0.40326618211E+02  0.73426314294E+02  0.41800000000E+01 0.  1.
</event>
<event>
11    1  0.8453735E-009  0.2114033E+03  0.7561462E-02  0.1046740E+00
         22   -1    0    0    0    0  0.00000000000E+00  0.00000000000E+00  0.24836957390E+03  0.24836957390E+03  0.00000000000E+00 0.  1.
         22   -1    0    0    0    0 -0.00000000000E+00 -0.00000000000E+00 -0.85884146157E+03  0.85884146157E+03  0.00000000000E+00 0. -1.
        -24    2    1    2    0    0 -0.11478750414E+03  0.15254947883E+02 -0.57757240936E+03  0.59450836838E+03  0.80258504047E+02 0.  0.
         25    2    1    2    0    0  0.25911636554E+03  0.28949761737E+02 -0.12915510999E+03  0.31671556263E+03  0.12509326754E+03 0.  0.
         24    2    1    2    0    0 -0.14432886139E+03 -0.44204709620E+02  0.96255631686E+02  0.19598710446E+03  0.79755387900E+02 0.  0.
        -13    1    5    5    0    0 -0.14154564573E+03 -0.16823048133E+02  0.86773900895E+02  0.16687688471E+03  0.00000000000E+00 0.  1.
         14    1    5    5    0    0 -0.27832156665E+01 -0.27381661487E+02  0.94817307914E+01  0.29110219752E+02  0.00000000000E+00 0. -1.
         11    1    3    3    0    0 -0.97707989475E+02  0.43465970299E+02 -0.40965831917E+03  0.42338644315E+03  0.00000000000E+00 0. -1.
        -12    1    3    3    0    0 -0.17079514666E+02 -0.28211022416E+02 -0.16791409019E+03  0.17112192522E+03  0.00000000000E+00 0.  1.
          5    1    4    4  501    0  0.22432902147E+03  0.34571414034E+02 -0.53622921885E+02  0.23326290466E+03  0.41800000000E+01 0. -1.
         -5    1    4    4    0  501  0.34787344070E+02 -0.56216522974E+01 -0.75532188108E+02  0.83452657971E+02  0.41800000000E+01 0. -1.
</event>
<event>
11    1  0.8453735E-009  0.9614348E+03  0.7561462E-02  0.8716585E-01
         22   -1    0    0    0    0  0.00000000000E+00  0.00000000000E+00  0.11845362171E+04  0.11845362171E+04  0.00000000000E+00 0. -1.
         22   -1    0    0    0    0 -0.00000000000E+00 -0.00000000000E+00 -0.10492176264E+04  0.10492176264E+04  0.00000000000E+00 0. -1.
         24    2    1    2    0    0  0.95135299768E+03  0.24915812129E+03 -0.28988788987E+03  0.10278230124E+04  0.72338513814E+02 0.  0.
         25    2    1    2    0    0 -0.82413892145E+03 -0.38820075327E+03  0.30934017674E+03  0.97017609866E+03  0.12508209614E+03 0.  0.
        -24    2    1    2    0    0 -0.12721407623E+03  0.13904263199E+03  0.11586630380E+03  0.23575473240E+03  0.81480174205E+02 0.  0.
        -11    1    3    3    0    0  0.35557847649E+03  0.58886282013E+02 -0.94766760631E+02  0.37267195503E+03  0.00000000000E+00 0.  1.
         12    1    3    3    0    0  0.59577452120E+03  0.19027183927E+03 -0.19512112924E+03  0.65515105739E+03  0.00000000000E+00 0. -1.
         13    1    5    5    0    0 -0.20203925717E+02 -0.17429383174E+01 -0.58155151933E+01  0.21096366164E+02  0.00000000000E+00 0. -1.
        -14    1    5    5    0    0 -0.10701015052E+03  0.14078557031E+03  0.12168181899E+03  0.21465836623E+03  0.00000000000E+00 0.  1.
          5    1    4    4  501    0 -0.22695069493E+03 -0.16937054834E+03  0.10660485184E+03  0.30261372640E+03  0.41800000000E+01 0. -1.
         -5    1    4    4    0  501 -0.59718822652E+03 -0.21883020493E+03  0.20273532491E+03  0.66756237226E+03  0.41800000000E+01 0. -1.
</event>
<event>
11    1  0.8453735E-009  0.2186041E+03  0.7561462E-02  0.1042095E+00
         22   -1    0    0    0    0  0.00000000000E+00  0.00000000000E+00  0.61625338673E+03  0.61625338673E+03  0.00000000000E+00 0.  1.
         22   -1    0    0    0    0 -0.00000000000E+00 -0.00000000000E+00 -0.12717969292E+04  0.12717969292E+04  0.00000000000E+00 0. -1.
        -24    2    1    2    0    0  0.14329999380E+03 -0.10893867673E+03 -0.12212304876E+04  0.12362340884E+04  0.66845298371E+02 0.  0.
         25    2    1    2    0    0 -0.12067708268E+03  0.95971095312E+02  0.21885591255E+03  0.29549935612E+03  0.12509416288E+03 0.  0.
         24    2    1    2    0    0 -0.22622911113E+02  0.12967581422E+02  0.34683103260E+03  0.35631687142E+03  0.77395047708E+02 0.  0.
        -13    1    5    5    0    0 -0.50452186713E+02  0.57097581376E+01  0.25791296793E+03  0.26286331716E+03  0.00000000000E+00 0.  1.
         14    1    5    5    0    0  0.27829275600E+02  0.72578232843E+01  0.88918064669E+02  0.93453554260E+02  0.00000000000E+00 0. -1.
         13    1    3    3    0    0  0.14696663118E+03 -0.97592572218E+02 -0.11857848626E+04  0.11988366199E+04  0.00000000000E+00 0. -1.
        -14    1    3    3    0    0 -0.36666373799E+01 -0.11346104516E+02 -0.35445625028E+02  0.37397468511E+02  0.00000000000E+00 0.  1.
          5    1    4    4  501    0  0.17080743631E+02  0.33910811517E+02  0.13499574417E+02  0.40514267243E+02  0.41800000000E+01 0. -1.
         -5    1    4    4    0  501 -0.13775782631E+03  0.62060283795E+02  0.20535633814E+03  0.25498508887E+03  0.41800000000E+01 0. -1.
</event>
<event>
11    1  0.8453735E-009  0.1349198E+03  0.7561462E-02  0.1113368E+00
         22   -1    0    0    0    0  0.00000000000E+00  0.00000000000E+00  0.11474571351E+03  0.11474571351E+03  0.00000000000E+00 0.  1.
         22   -1    0    0    0    0 -0.00000000000E+00 -0.00000000000E+00 -0.52445875512E+03  0.52445875512E+03  0.00000000000E+00 0.  1.
        -24    2    1    2    0    0  0.44935889385E+02 -0.35740164749E+02 -0.35779800105E+03  0.37113565818E+03  0.80160299944E+02 0.  0.
         25    2    1    2    0    0 -0.57914018123E+01  0.23330951435E+02 -0.10348086731E+03  0.16411094908E+03  0.12508493147E+03 0.  0.
         24    2    1    2    0    0 -0.39144487573E+02  0.12409213314E+02  0.51565826737E+02  0.10395786137E+03  0.80386086921E+02 0.  0.
        -13    1    5    5    0    0 -0.44867256834E+02 -0.25675032200E+02  0.31443395817E+02  0.60505910082E+02  0.00000000000E+00 0.  1.
         14    1    5    5    0    0  0.57227692617E+01  0.38084245514E+02  0.20122430919E+02  0.43451951285E+02  0.00000000000E+00 0. -1.
         11    1    3    3    0    0  0.90155107606E+01  0.15994103011E+02 -0.18582414014E+02  0.26122727193E+02  0.00000000000E+00 0. -1.
        -12    1    3    3    0    0  0.35920378624E+02 -0.51734267760E+02 -0.33921558703E+03  0.34501293098E+03  0.00000000000E+00 0.  1.
          5    1    4    4  501    0 -0.49362092138E+02  0.60301628592E+01  0.57289219058E+00  0.49907710925E+02  0.41800000000E+01 0. -1.
         -5    1    4    4    0  501  0.43570690326E+02  0.17300788576E+02 -0.10405375950E+03  0.11420323816E+03  0.41800000000E+01 0. -1.
</event>
<event>
11    1  0.8453735E-009  0.1361862E+03  0.7561462E-02  0.1111893E+00
         22   -1    0    0    0    0  0.00000000000E+00  0.00000000000E+00  0.32949733679E+03  0.32949733679E+03  0.00000000000E+00 0.  1.
         22   -1    0    0    0    0 -0.00000000000E+00 -0.00000000000E+00 -0.16514122470E+04  0.16514122470E+04  0.00000000000E+00 0.  1.
        -24    2    1    2    0    0  0.31347346774E+02 -0.45543013335E+02 -0.15444820288E+04  0.15475177923E+04  0.79559775260E+02 0.  0.
         25    2    1    2    0    0 -0.22195084802E+02  0.23382339586E+01 -0.57116964200E+02  0.13931413767E+03  0.12509193510E+03 0.  0.
         24    2    1    2    0    0 -0.91522619728E+01  0.43204779377E+02  0.27968408277E+03  0.29407765389E+03  0.79423318377E+02 0.  0.
        -11    1    5    5    0    0  0.32362969887E+02  0.36570743639E+02  0.15020039220E+03  0.15793966863E+03  0.00000000000E+00 0.  1.
         12    1    5    5    0    0 -0.41515231860E+02  0.66340357377E+01  0.12948369057E+03  0.13613798526E+03  0.00000000000E+00 0. -1.
         11    1    3    3    0    0 -0.21572438935E+02  0.97732434585E+00 -0.61047672202E+03  0.61085853798E+03  0.00000000000E+00 0. -1.
        -12    1    3    3    0    0  0.52919785709E+02 -0.46520337681E+02 -0.93400530678E+03  0.93665925429E+03  0.00000000000E+00 0.  1.
          5    1    4    4  501    0 -0.30424731900E+02  0.48077391998E+02  0.96487448842E+01  0.57859058153E+02  0.41800000000E+01 0.  1.
         -5    1    4    4    0  501  0.82296470984E+01 -0.45739158040E+02 -0.66765709084E+02  0.81455079517E+02  0.41800000000E+01 0.  1.
</event>
<event>
11    1  0.8453735E-009  0.1395637E+03  0.7561462E-02  0.1108047E+00
         22   -1    0    0    0    0  0.00000000000E+00  0.00000000000E+00  0.26530354100E+03  0.26530354100E+03  0.00000000000E+00 0. -1.
         22   -1    0    0    0    0 -0.00000000000E+00 -0.00000000000E+00 -0.32405982086E+03  0.32405982086E+03  0.00000000000E+00 0.  1.
         24    2    1    2    0    0  0.57826515891E+02  0.22239763755E+02 -0.17556159736E+03  0.20304970533E+03  0.81048105078E+02 0.  0.
         25    2    1    2    0    0 -0.72381043415E+02  0.36257125426E+02 -0.76909626996E+02  0.16770638955E+03  0.12512692668E+03 0.  0.
        -24    2    1    2    0    0  0.14554527523E+02 -0.58496889181E+02  0.19371494449E+03  0.21860726699E+03  0.81424425968E+02 0.  0.
        -11    1    3    3    0    0  0.74602602115E+02  0.32677848043E+01 -0.11182334677E+03  0.13446444713E+03  0.00000000000E+00 0.  1.
         12    1    3    3    0    0 -0.16776086223E+02  0.18971978951E+02 -0.63738250590E+02  0.68585258202E+02  0.00000000000E+00 0. -1.
         11    1    5    5    0    0  0.50957086277E+01  0.73780217162E+01  0.11576841622E+03  0.11611514821E+03  0.00000000000E+00 0. -1.
        -12    1    5    5    0    0  0.94588188956E+01 -0.65874910898E+02  0.77946528275E+02  0.10249211877E+03  0.00000000000E+00 0.  1.
          5    1    4    4  501    0 -0.38824005162E+02 -0.45567463040E+02 -0.37749171072E+02  0.70895482094E+02  0.41800000000E+01 0. -1.
         -5    1    4    4    0  501 -0.33557038253E+02  0.81824588467E+02 -0.39160455923E+02  0.96810907454E+02  0.41800000000E+01 0. -1.
</event>
<event>
11    1  0.8453735E-009  0.1527000E+03  0.7561462E-02  0.1094151E+00
         22   -1    0    0    0    0  0.00000000000E+00  0.00000000000E+00  0.15104525335E+03  0.15104525335E+03  0.00000000000E+00 0. -1.
         22   -1    0    0    0    0 -0.00000000000E+00 -0.00000000000E+00 -0.14372685613E+04  0.14372685613E+04  0.00000000000E+00 0.  1.
         24    2    1    2    0    0  0.51424983025E+02 -0.54161266670E+02 -0.61175929595E+03  0.62188439594E+03  0.83143214050E+02 0.  0.
         25    2    1    2    0    0 -0.11605466876E+03  0.10975591663E+03 -0.78177263723E+03  0.80766966362E+03  0.12508709694E+03 0.  0.
        -24    2    1    2    0    0  0.64629685739E+02 -0.55594649956E+02  0.10730862527E+03  0.15875975506E+03  0.80135868288E+02 0.  0.
        -13    1    3    3    0    0  0.59922734718E+02 -0.41586676737E+02 -0.59426467161E+03  0.59872421510E+03  0.00000000000E+00 0.  1.
         14    1    3    3    0    0 -0.84977516930E+01 -0.12574589932E+02 -0.17494624339E+02  0.23160180840E+02  0.00000000000E+00 0. -1.
         11    1    5    5    0    0  0.38289800973E+02  0.11578683885E+02  0.61262362290E+02  0.73165919747E+02  0.00000000000E+00 0. -1.
        -12    1    5    5    0    0  0.26339884766E+02 -0.67173333841E+02  0.46046262980E+02  0.85593835311E+02  0.00000000000E+00 0.  1.
          5    1    4    4  501    0 -0.78513860007E+02 -0.45357992380E+01 -0.38789416772E+03  0.39580848581E+03  0.41800000000E+01 0.  1.
         -5    1    4    4    0  501 -0.37540808757E+02  0.11429171586E+03 -0.39387846952E+03  0.41186117781E+03  0.41800000000E+01 0.  1.
</event>
<event>
11    1  0.8453735E-009  0.2045800E+03  0.7561462E-02  0.1051331E+00
         22   -1    0    0    0    0  0.00000000000E+00  0.00000000000E+00  0.20609411094E+04  0.20609411094E+04  0.00000000000E+00 0.  1.
         22   -1    0    0    0    0 -0.00000000000E+00 -0.00000000000E+00 -0.29629305570E+03  0.29629305570E+03  0.00000000000E+00 0. -1.
        -24    2    1    2    0    0 -0.14961561622E+03  0.72653983120E+02 -0.22681199062E+03  0.29517938416E+03  0.89575419990E+02 0.  0.
         25    2    1    2    0    0  0.11113715643E+03 -0.69973166515E+02  0.20670637025E+03  0.27499324895E+03  0.12508417925E+03 0.  0.
         24    2    1    2    0    0  0.38478459787E+02 -0.26808166052E+01  0.17847536741E+04  0.17870615320E+04  0.82191625918E+02 0.  0.
        -13    1    5    5    0    0 -0.24315166235E+02  0.34939498142E+00  0.75433426614E+03  0.75472613209E+03  0.00000000000E+00 0.  1.
         14    1    5    5    0    0  0.62793626022E+02 -0.30302115866E+01  0.10304194079E+04  0.10323353999E+04  0.00000000000E+00 0. -1.
         13    1    3    3    0    0 -0.11336824000E+03  0.87104801971E+02 -0.14046580898E+03  0.20042516773E+03  0.00000000000E+00 0. -1.
        -14    1    3    3    0    0 -0.36247376219E+02 -0.14450818851E+02 -0.86346181640E+02  0.94754216434E+02  0.00000000000E+00 0.  1.
          5    1    4    4  501    0  0.10504117820E+03 -0.57835408726E+02  0.22308782727E+03  0.25330660216E+03  0.41800000000E+01 0.  1.
         -5    1    4    4    0  501  0.60959782326E+01 -0.12137757789E+02 -0.16381457028E+02  0.21686646793E+02  0.41800000000E+01 0.  1.
</event>
<event>
11    1  0.8453735E-009  0.1763994E+03  0.7561462E-02  0.1072593E+00
         22   -1    0    0    0    0  0.00000000000E+00  0.00000000000E+00  0.52682881681E+03  0.52682881681E+03  0.00000000000E+00 0.  1.
         22   -1    0    0    0    0 -0.00000000000E+00 -0.00000000000E+00 -0.38478002624E+03  0.38478002624E+03  0.00000000000E+00 0.  1.
         24    2    1    2    0    0  0.96145970365E+02 -0.72770693972E+02 -0.22842511808E+03  0.27116092967E+03  0.82526321213E+02 0.  0.
         25    2    1    2    0    0 -0.10495727303E+03  0.86515052522E+02 -0.65843197410E+02  0.19617526710E+03  0.12509406582E+03 0.  0.
        -24    2    1    2    0    0  0.88113026611E+01 -0.13744358550E+02  0.43631710606E+03  0.44427264628E+03  0.82091538795E+02 0.  0.
        -11    1    3    3    0    0  0.86885598535E+02 -0.79340616178E+02 -0.23124861570E+03  0.25946090817E+03  0.00000000000E+00 0.  1.
         12    1    3    3    0    0  0.92603718305E+01  0.65699222066E+01  0.28234976202E+01  0.11700021498E+02  0.00000000000E+00 0. -1.
         11    1    5    5    0    0 -0.91667363591E+01 -0.20222797908E+02  0.29079827884E+02  0.36587251884E+02  0.00000000000E+00 0. -1.
        -12    1    5    5    0    0  0.17978039020E+02  0.64784393578E+01  0.40723727818E+03  0.40768539439E+03  0.00000000000E+00 0.  1.
          5    1    4    4  501    0 -0.10556312976E+02  0.79134231330E+02 -0.62256351400E+02  0.10132614668E+03  0.41800000000E+01 0.  1.
         -5    1    4    4    0  501 -0.94400960050E+02  0.73808211916E+01 -0.35868460099E+01  0.94849120418E+02  0.41800000000E+01 0.  1.
</event>
<event>
11    1  0.8453735E-009  0.1390977E+03  0.7561462E-02  0.1108570E+00
         22   -1    0    0    0    0  0.00000000000E+00  0.00000000000E+00  0.62350914234E+03  0.62350914234E+03  0.00000000000E+00 0. -1.
         22   -1    0    0    0    0 -0.00000000000E+00 -0.00000000000E+00 -0.16399711480E+04  0.16399711480E+04  0.00000000000E+00 0.  1.
         24    2    1    2    0    0 -0.23084869023E+02 -0.17940952616E+02 -0.15424585433E+04  0.15450254593E+04  0.84086403308E+02 0.  0.
         25    2    1    2    0    0 -0.35957407023E+02 -0.10971482824E+01 -0.45968383932E+02  0.13803979083E+03  0.12509097760E+03 0.  0.
        -24    2    1    2    0    0  0.59042276046E+02  0.19038100898E+02  0.57196492153E+03  0.58041504022E+03  0.76741825652E+02 0.  0.
        -13    1    3    3    0    0  0.31912470652E+02 -0.31634743956E+01 -0.54622915469E+03  0.54716972028E+03  0.00000000000E+00 0.  1.
         14    1    3    3    0    0 -0.54997339675E+02 -0.14777478220E+02 -0.99622938862E+03  0.99785573906E+03  0.00000000000E+00 0. -1.
         13    1    5    5    0    0  0.47620581664E+02  0.32370904568E+02  0.54626272158E+03  0.54928913720E+03  0.00000000000E+00 0. -1.
        -14    1    5    5    0    0  0.11421694382E+02 -0.13332803670E+02  0.25702199948E+02  0.31125903014E+02  0.00000000000E+00 0.  1.
          5    1    4    4  501    0  0.46612614420E+02 -0.67438705426E+01 -0.17506867339E+02  0.50420020002E+02  0.41800000000E+01 0. -1.
         -5    1    4    4    0  501 -0.82570021443E+02  0.56467222603E+01 -0.28461516594E+02  0.87619770830E+02  0.41800000000E+01 0. -1.
</event>
<event>
11    1  0.8453735E-009  0.1614466E+03  0.7561462E-02  0.1085725E+00
         22   -1    0    0    0    0  0.00000000000E+00  0.00000000000E+00  0.15667036843E+03  0.15667036843E+03  0.00000000000E+00 0.  1.
         22   -1    0    0    0    0 -0.00000000000E+00 -0.00000000000E+00 -0.13837170579E+04  0.13837170579E+04  0.00000000000E+00 0. -1.
        -24    2    1    2    0    0  0.18864627391E+02  0.99507784645E+02 -0.10346237333E+04  0.10425734440E+04  0.79091359381E+02 0.  0.
         25    2    1    2    0    0 -0.25097455427E+02 -0.10316736144E+03 -0.31249534782E+03  0.35295101220E+03  0.12509071855E+03 0.  0.
         24    2    1    2    0    0  0.62328280356E+01  0.36595767932E+01  0.12007239166E+03  0.14486297019E+03  0.80719639786E+02 0.  0.
        -11    1    5    5    0    0  0.34510468530E+02  0.10049024578E+02  0.10734272677E+03  0.11320077881E+03  0.00000000000E+00 0.  1.
         12    1    5    5    0    0 -0.28277640494E+02 -0.63894477843E+01  0.12729664886E+02  0.31662191381E+02  0.00000000000E+00 0. -1.
         11    1    3    3    0    0 -0.14002680338E+02  0.18393952335E+02 -0.52354905692E+03  0.52405918324E+03  0.00000000000E+00 0. -1.
        -12    1    3    3    0    0  0.32867307729E+02  0.81113832310E+02 -0.51107467642E+03  0.51851426073E+03  0.00000000000E+00 0.  1.
          5    1    4    4  501    0 -0.16949059039E+02  0.22312395560E+02 -0.11767554622E+03  0.12103768081E+03  0.41800000000E+01 0.  1.
         -5    1    4    4    0  501 -0.81483963876E+01 -0.12547975700E+03 -0.19481980160E+03  0.23191333139E+03  0.41800000000E+01 0.  1.
</event>
<event>
11    1  0.8453735E-009  0.1461742E+03  0.7561462E-02  0.1100853E+00
         22   -1    0    0    0    0  0.00000000000E+00  0.00000000000E+00  0.89103374128E+03  0.89103374128E+03  0.00000000000E+00 0.  1.
         22   -1    0    0    0    0 -0.00000000000E+00 -0.00000000000E+00 -0.80792089963E+03  0.80792089963E+03  0.00000000000E+00 0.  1.
         24    2    1    2    0    0 -0.74791924668E+02 -0.14874336373E+01 -0.72928653357E+03  0.73753920821E+03  0.80679558419E+02 0.  0.
         25    2    1    2    0    0  0.92059980125E+02  0.33342742794E+02  0.15536873623E+02  0.15961164936E+03  0.12509078996E+03 0.  0.
        -24    2    1    2    0    0 -0.17268055457E+02 -0.31855309157E+02  0.79686250159E+03  0.80180378333E+03  0.81157341398E+02 0.  0.
        -13    1    3    3    0    0 -0.22753148486E+02  0.31486732145E+02 -0.44295149196E+03  0.44465171123E+03  0.00000000000E+00 0.  1.
         14    1    3    3    0    0 -0.52038776182E+02 -0.32974165782E+02 -0.28633504161E+03  0.29288749698E+03  0.00000000000E+00 0. -1.
         11    1    5    5    0    0 -0.12829925359E+02  0.13622675035E+02  0.47556476276E+02  0.51105799042E+02  0.00000000000E+00 0. -1.
        -12    1    5    5    0    0 -0.44381300981E+01 -0.45477984192E+02  0.74930602532E+03  0.75069798429E+03  0.00000000000E+00 0.  1.
          5    1    4    4  501    0  0.34889035391E+02  0.61901648170E+02 -0.33771873495E+02  0.78784964784E+02  0.41800000000E+01 0. -1.
         -5    1    4    4    0  501  0.57170944734E+02 -0.28558905376E+02  0.49308747118E+02  0.80826684581E+02  0.41800000000E+01 0. -1.
</event>
<event>
11    1  0.8453735E-009  0.1779819E+03  0.7561462E-02  0.1071287E+00
         22   -1    0    0    0    0  0.00000000000E+00  0.00000000000E+00  0.56189972526E+03  0.56189972526E+03  0.00000000000E+00 0. -1.
         22   -1    0    0    0    0 -0.00000000000E+00 -0.00000000000E+00 -0.13409021481E+04  0.13409021481E+04  0.00000000000E+00 0. -1.
        -24    2    1    2    0    0  0.69687119099E+02  0.10200232812E+03 -0.11306367716E+04  0.11402902735E+04  0.81618803618E+02 0.  0.
         25    2    1    2    0    0 -0.81516389898E+02 -0.13686687891E+03 -0.15069695870E+03  0.25245700389E+03  0.12508997196E+03 0.  0.
         24    2    1    2    0    0  0.11829270799E+02  0.34864550794E+02  0.50233130742E+03  0.51005459597E+03  0.80395770486E+02 0.  0.
        -11    1    5    5    0    0 -0.56337978083E+01 -0.24389323778E+02  0.10451888519E+03  0.10747453723E+03  0.00000000000E+00 0.  1.
         12    1    5    5    0    0  0.17463068607E+02  0.59253874572E+02  0.39781242223E+03  0.40258005874E+03  0.00000000000E+00 0. -1.
         11    1    3    3    0    0  0.14311440835E+02  0.63448928995E+02 -0.81128134562E+03  0.81388451619E+03  0.00000000000E+00 0. -1.
        -12    1    3    3    0    0  0.55375678264E+02  0.38553399124E+02 -0.31935542594E+03  0.32640575731E+03  0.00000000000E+00 0.  1.
          5    1    4    4  501    0 -0.55034513968E+02 -0.91919254870E+01 -0.39322947361E+01  0.56091216458E+02  0.41800000000E+01 0. -1.
         -5    1    4    4    0  501 -0.26481875930E+02 -0.12767495343E+03 -0.14676466396E+03  0.19636578743E+03  0.41800000000E+01 0. -1.
</event>
<event>
11    1  0.8453735E-009  0.1494940E+03  0.7561462E-02  0.1097397E+00
         22   -1    0    0    0    0  0.00000000000E+00  0.00000000000E+00  0.26460033394E+03  0.26460033394E+03  0.00000000000E+00 0. -1.
         22   -1    0    0    0    0 -0.00000000000E+00 -0.00000000000E+00 -0.41598783742E+03  0.41598783742E+03  0.00000000000E+00 0. -1.
         24    2    1    2    0    0  0.15403894590E+02  0.64555360930E+02 -0.32933617503E+03  0.34541991827E+03  0.80298998478E+02 0.  0.
         25    2    1    2    0    0  0.53185431598E+02  0.49187912037E+01  0.26765759961E+02  0.13862699359E+03  0.12509257693E+03 0.  0.
        -24    2    1    2    0    0 -0.68589326188E+02 -0.69474152133E+02  0.15118291158E+03  0.19654125950E+03  0.79000256015E+02 0.  0.
        -13    1    3    3    0    0  0.41432629330E+02  0.47990667776E+02 -0.14133971839E+03  0.15490862778E+03  0.00000000000E+00 0.  1.
         14    1    3    3    0    0 -0.26028734741E+02  0.16564693153E+02 -0.18799645665E+03  0.19051129049E+03  0.00000000000E+00 0. -1.
         13    1    5    5    0    0 -0.55380579430E+02 -0.32017555404E+02  0.14204709060E+03  0.15578674007E+03  0.00000000000E+00 0. -1.
        -14    1    5    5    0    0 -0.13208746758E+02 -0.37456596729E+02  0.91358209812E+01  0.40754519436E+02  0.00000000000E+00 0.  1.
          5    1    4    4  501    0 -0.21604093007E+02 -0.37502639187E+02  0.29423764995E+02  0.52501572616E+02  0.41800000000E+01 0. -1.
         -5    1    4    4    0  501  0.74789524606E+02  0.42421430391E+02 -0.26580050345E+01  0.86125420974E+02  0.41800000000E+01 0. -1.
</event>
<event>
11    1  0.8453735E-009  0.1367652E+03  0.7561462E-02  0.1111225E+00
         22   -1    0    0    0    0  0.00000000000E+00  0.00000000000E+00  0.10026230489E+04  0.10026230489E+04  0.00000000000E+00 0.  1.
         22   -1    0    0    0    0 -0.00000000000E+00 -0.00000000000E+00 -0.10550551348E+03  0.10550551348E+03  0.00000000000E+00 0.  1.
        -24    2    1    2    0    0 -0.53591292207E+02  0.35273666925E+02 -0.43486800556E+02  0.11157686299E+03  0.80262297209E+02 0.  0.
         25    2    1    2    0    0  0.16105827927E+02 -0.90526522885E+00  0.13338026052E+03  0.18356841296E+03  0.12508737403E+03 0.  0.
         24    2    1    2    0    0  0.37485464280E+02 -0.34368401696E+02  0.80722407546E+03  0.81298328644E+03  0.82126542312E+02 0.  0.
        -13    1    5    5    0    0  0.58805265928E+02 -0.19070559981E+02  0.69446921425E+03  0.69721534342E+03  0.00000000000E+00 0.  1.
         14    1    5    5    0    0 -0.21319801648E+02 -0.15297841714E+02  0.11275486122E+03  0.11576794302E+03  0.00000000000E+00 0. -1.
         11    1    3    3    0    0 -0.43103241934E+02  0.45760502447E+02  0.28454748080E+01  0.62928608569E+02  0.00000000000E+00 0. -1.
        -12    1    3    3    0    0 -0.10488050273E+02 -0.10486835523E+02 -0.46332275364E+02  0.48648254421E+02  0.00000000000E+00 0.  1.
          5    1    4    4  501    0  0.70302322442E+02 -0.72055067275E+01  0.66221682092E+02  0.96938740692E+02  0.41800000000E+01 0. -1.
         -5    1    4    4    0  501 -0.54196494515E+02  0.63002414987E+01  0.67158578430E+02  0.86629672269E+02  0.41800000000E+01 0. -1.
</event>
<event>
11    1  0.8453735E-009  0.1287661E+03  0.7561462E-02  0.1120794E+00
         22   -1    0    0    0    0  0.00000000000E+00  0.00000000000E+00  0.44833272060E+03  0.44833272060E+03  0.00000000000E+00 0. -1.
         22   -1    0    0    0    0 -0.00000000000E+00 -0.00000000000E+00 -0.27649776510E+03  0.27649776510E+03  0.00000000000E+00 0.  1.
        -24    2    1    2    0    0  0.31200373340E+02  0.27854796462E+02 -0.24053293502E+03  0.25699796925E+03  0.80265250192E+02 0.  0.
         25    2    1    2    0    0  0.12928907732E+02 -0.14707281486E+02  0.23835217537E+03  0.26987855263E+03  0.12505683860E+03 0.  0.
         24    2    1    2    0    0 -0.44129281072E+02 -0.13147514976E+02  0.17401571515E+03  0.19795396382E+03  0.82365357269E+02 0.  0.
        -13    1    5    5    0    0 -0.56190964262E+02 -0.89788616650E+01  0.58051788837E+02  0.81289941620E+02  0.00000000000E+00 0.  1.
         14    1    5    5    0    0  0.12061683190E+02 -0.41686533107E+01  0.11596392631E+03  0.11666402220E+03  0.00000000000E+00 0. -1.
         13    1    3    3    0    0  0.91719342583E+01 -0.19356495394E+02 -0.15767032782E+03  0.15911860535E+03  0.00000000000E+00 0. -1.
        -14    1    3    3    0    0  0.22028439082E+02  0.47211291856E+02 -0.82862607194E+02  0.97879363903E+02  0.00000000000E+00 0.  1.
          5    1    4    4  501    0 -0.52469012895E+02  0.12670975483E+02  0.12344378036E+03  0.13479388058E+03  0.41800000000E+01 0. -1.
         -5    1    4    4    0  501  0.65397920627E+02 -0.27378256970E+02  0.11490839502E+03  0.13508467205E+03  0.41800000000E+01 0. -1.
</event>
<event>
11    1  0.8453735E-009  0.1348234E+03  0.7561462E-02  0.1113481E+00
         22   -1    0    0    0    0  0.00000000000E+00  0.00000000000E+00  0.24106934477E+03  0.24106934477E+03  0.00000000000E+00 0.  1.
         22   -1    0    0    0    0 -0.00000000000E+00 -0.00000000000E+00 -0.26387524540E+04  0.26387524540E+04  0.00000000000E+00 0. -1.
         24    2    1    2    0    0 -0.19636489267E+02  0.42972679332E+02 -0.20752509796E+04  0.20772578062E+04  0.78109681149E+02 0.  0.
         25    2    1    2    0    0  0.13184372762E+02  0.76316199927E+01 -0.54580104768E+03  0.56016335884E+03  0.12510849542E+03 0.  0.
        -24    2    1    2    0    0  0.64521165049E+01 -0.50604299324E+02  0.22336891805E+03  0.24240063372E+03  0.79132602392E+02 0.  0.
        -13    1    3    3    0    0  0.24403872098E+02  0.12858903393E+02 -0.12388053724E+04  0.12391124449E+04  0.00000000000E+00 0.  1.
         14    1    3    3    0    0 -0.44040361365E+02  0.30113775938E+02 -0.83644560723E+03  0.83814536137E+03  0.00000000000E+00 0. -1.
         13    1    5    5    0    0 -0.89399879643E+01 -0.22698424526E+01 -0.35484133837E+01  0.98826518255E+01  0.00000000000E+00 0. -1.
        -14    1    5    5    0    0  0.15392104469E+02 -0.48334456872E+02  0.22691733143E+03  0.23251798189E+03  0.00000000000E+00 0.  1.
          5    1    4    4  501    0  0.18088157089E+01  0.68634405337E+01  0.47298458553E+01  0.94985510497E+01  0.41800000000E+01 0. -1.
         -5    1    4    4    0  501  0.11375557053E+02  0.76817945896E+00 -0.55053089354E+03  0.55066480779E+03  0.41800000000E+01 0.  1.
</event>
<event>
11    1  0.8453735E-009  0.2248285E+03  0.7561462E-02  0.1038234E+00
         22   -1    0    0    0    0  0.00000000000E+00  0.00000000000E+00  0.32019595570E+03  0.32019595570E+03  0.00000000000E+00 0.  1.
         22   -1    0    0    0    0 -0.00000000000E+00 -0.00000000000E+00 -0.16850940919E+04  0.16850940919E+04  0.00000000000E+00 0. -1.
         24    2    1    2    0    0  0.54357527592E+02  0.14951770737E+02 -0.14044893556E+04  0.14078672936E+04  0.79508931567E+02 0.  0.
         25    2    1    2    0    0 -0.20526484789E+03 -0.11158182769E+03 -0.16618095438E+03  0.31280496778E+03  0.12508667484E+03 0.  0.
        -24    2    1    2    0    0  0.15090732029E+03  0.96630056955E+02  0.20577217377E+03  0.28461778621E+03  0.80961160445E+02 0.  0.
        -13    1    3    3    0    0  0.39732971879E+02 -0.29255160296E+02 -0.59642498270E+03  0.59846247455E+03  0.00000000000E+00 0.  1.
         14    1    3    3    0    0  0.14624555713E+02  0.44206931033E+02 -0.80806437290E+03  0.80940481907E+03  0.00000000000E+00 0. -1.
         13    1    5    5    0    0  0.32269866283E+02  0.81358827375E+01  0.27780608348E+01  0.33395426031E+02  0.00000000000E+00 0. -1.
        -14    1    5    5    0    0  0.11863745401E+03  0.88494174217E+02  0.20299411294E+03  0.25122236017E+03  0.00000000000E+00 0.  1.
          5    1    4    4  501    0 -0.69467147561E+02 -0.15134235565E+02 -0.12061392160E+03  0.14007112536E+03  0.41800000000E+01 0.  1.
         -5    1    4    4    0  501 -0.13579770032E+03 -0.96447592127E+02 -0.45567032777E+02  0.17273384242E+03  0.41800000000E+01 0.  1.
</event>
<event>
11    1  0.8453735E-009  0.1288004E+03  0.7561462E-02  0.1120752E+00
         22   -1    0    0    0    0  0.00000000000E+00  0.00000000000E+00  0.41536090019E+03  0.41536090019E+03  0.00000000000E+00 0.  1.
         22   -1    0    0    0    0 -0.00000000000E+00 -0.00000000000E+00 -0.88816231440E+02  0.88816231440E+02  0.00000000000E+00 0.  1.
         24    2    1    2    0    0  0.13388285821E+02 -0.25361726641E+02 -0.25134477942E+02  0.89439057143E+02  0.80902036970E+02 0.  0.
         25    2    1    2    0    0 -0.60506470079E+01  0.48311654819E+02  0.22697716707E+03  0.26369761290E+03  0.12508865000E+03 0.  0.
        -24    2    1    2    0    0 -0.73376388135E+01 -0.22949928178E+02  0.12470197962E+03  0.15104046158E+03  0.81744095608E+02 0.  0.
        -13    1    3    3    0    0  0.40690576517E+02 -0.37191671338E+00  0.59250285146E+01  0.41121372816E+02  0.00000000000E+00 0.  1.
         14    1    3    3    0    0 -0.27302290696E+02 -0.24989809928E+02 -0.31059506456E+02  0.48317684328E+02  0.00000000000E+00 0. -1.
         13    1    5    5    0    0 -0.27366625654E+02  0.19523269616E+02  0.28831456297E+02  0.44287053734E+02  0.00000000000E+00 0. -1.
        -14    1    5    5    0    0  0.20028986841E+02 -0.42473197794E+02  0.95870523328E+02  0.10675340785E+03  0.00000000000E+00 0.  1.
          5    1    4    4  501    0  0.27842622489E+02  0.20883145419E+02  0.26719785515E+01  0.35155785569E+02  0.41800000000E+01 0. -1.
         -5    1    4    4    0  501 -0.33893269496E+02  0.27428509401E+02  0.22430518852E+03  0.22854182734E+03  0.41800000000E+01 0. -1.
</event>
<event>
11    1  0.8453735E-009  0.1736991E+03  0.7561462E-02  0.1074857E+00
         22   -1    0    0    0    0  0.00000000000E+00  0.00000000000E+00  0.17547487742E+04  0.17547487742E+04  0.00000000000E+00 0.  1.
         22   -1    0    0    0    0 -0.00000000000E+00 -0.00000000000E+00 -0.56442824330E+03  0.56442824330E+03  0.00000000000E+00 0. -1.
         24    2    1    2    0    0  0.11149686106E+03 -0.55918741135E+02 -0.51585924193E+03  0.53687260691E+03  0.81012239422E+02 0.  0.
         25    2    1    2    0    0 -0.62418484331E+02  0.21705878108E+02  0.10042743578E+03  0.17349350188E+03  0.12508842075E+03 0.  0.
        -24    2    1    2    0    0 -0.49078376728E+02  0.34212863027E+02  0.16057523370E+04  0.16088109087E+04  0.79074427001E+02 0.  0.
        -13    1    3    3    0    0  0.24785687043E+02 -0.50879736097E+02 -0.27671688906E+03  0.28244524163E+03  0.00000000000E+00 0.  1.
         14    1    3    3    0    0  0.86711174015E+02 -0.50390050377E+01 -0.23914235287E+03  0.25442736528E+03  0.00000000000E+00 0. -1.
         13    1    5    5    0    0 -0.13820615683E+02 -0.25511457023E+02  0.38644032788E+03  0.38752802592E+03  0.00000000000E+00 0. -1.
        -14    1    5    5    0    0 -0.35257761045E+02  0.59724320049E+02  0.12193120091E+04  0.12212828828E+04  0.00000000000E+00 0.  1.
          5    1    4    4  501    0 -0.13413094854E+02  0.64803163969E+02  0.18840180587E+02  0.68933199393E+02  0.41800000000E+01 0.  1.
         -5    1    4    4    0  501 -0.49005389477E+02 -0.43097285861E+02  0.81587255189E+02  0.10456030248E+03  0.41800000000E+01 0.  1.
</event>
<event>
11    1  0.8453735E-009  0.1560286E+03  0.7561462E-02  0.1090873E+00
         22   -1    0    0    0    0  0.00000000000E+00  0.00000000000E+00  0.26166364455E+03  0.26166364455E+03  0.00000000000E+00 0. -1.
         22   -1    0    0    0    0 -0.00000000000E+00 -0.00000000000E+00 -0.15708867912E+04  0.15708867912E+04  0.00000000000E+00 0. -1.
        -24    2    1    2    0    0 -0.15359728065E+02  0.24792138634E+02 -0.12523327470E+04  0.12552710362E+04  0.80730996029E+02 0.  0.
         25    2    1    2    0    0 -0.27118577194E+02  0.59861521948E+02 -0.28460359655E+03  0.31775181297E+03  0.12509271936E+03 0.  0.
         24    2    1    2    0    0  0.42478305258E+02 -0.84653660582E+02  0.22771319687E+03  0.25952758662E+03  0.80812248568E+02 0.  0.
        -13    1    5    5    0    0 -0.22162719699E+02 -0.18758258773E+02  0.32440939410E+02  0.43537029830E+02  0.00000000000E+00 0.  1.
         14    1    5    5    0    0  0.64641024958E+02 -0.65895401809E+02  0.19527225746E+03  0.21599055679E+03  0.00000000000E+00 0. -1.
         13    1    3    3    0    0 -0.20124971446E+02 -0.13508100025E+02 -0.97108198172E+03  0.97138442363E+03  0.00000000000E+00 0. -1.
        -14    1    3    3    0    0  0.47652433810E+01  0.38300238659E+02 -0.28125076526E+03  0.28388661255E+03  0.00000000000E+00 0.  1.
          5    1    4    4  501    0  0.47578429058E+02  0.40393874548E+01 -0.93593783715E+02  0.10515366048E+03  0.41800000000E+01 0. -1.
         -5    1    4    4    0  501 -0.74697006252E+02  0.55822134494E+02 -0.19100981283E+03  0.21259815249E+03  0.41800000000E+01 0. -1.
</event>
<event>
11    1  0.8453735E-009  0.1581327E+03  0.7561462E-02  0.1088847E+00
         22   -1    0    0    0    0  0.00000000000E+00  0.00000000000E+00  0.10284086336E+04  0.10284086336E+04  0.00000000000E+00 0.  1.
         22   -1    0    0    0    0 -0.00000000000E+00 -0.00000000000E+00 -0.10815473938E+04  0.10815473938E+04  0.00000000000E+00 0.  1.
         24    2    1    2    0    0 -0.73409099829E+02 -0.62965274187E+02 -0.10068826113E+04  0.10146194346E+04  0.79287340586E+02 0.  0.
         25    2    1    2    0    0  0.10361070930E+03  0.28170292948E+02  0.30705460812E+02  0.16768734034E+03  0.12508986490E+03 0.  0.
        -24    2    1    2    0    0 -0.30201609467E+02  0.34794981238E+02  0.92303839026E+03  0.92764925259E+03  0.80065210985E+02 0.  0.
        -13    1    3    3    0    0 -0.85808939132E+02 -0.34612790941E+02 -0.81833070640E+03  0.82354499839E+03  0.00000000000E+00 0.  1.
         14    1    3    3    0    0  0.12399839303E+02 -0.28352483246E+02 -0.18855190488E+03  0.19107443616E+03  0.00000000000E+00 0. -1.
         13    1    5    5    0    0  0.75159435709E+01  0.48858570767E+02  0.39551320043E+03  0.39859044276E+03  0.00000000000E+00 0. -1.
        -14    1    5    5    0    0 -0.37717553038E+02 -0.14063589528E+02  0.52752518983E+03  0.52905880983E+03  0.00000000000E+00 0.  1.
          5    1    4    4  501    0  0.86233270356E+02  0.34889851284E+02  0.74926715013E+02  0.11951972081E+03  0.41800000000E+01 0. -1.
         -5    1    4    4    0  501  0.17377438940E+02 -0.67195583359E+01 -0.44221254201E+02  0.48167619532E+02  0.41800000000E+01 0. -1.
</event>
<event>
11    1  0.8453735E-009  0.1372016E+04  0.7561462E-02  0.8388429E-01
         22   -1    0    0    0    0  0.00000000000E+00  0.00000000000E+00  0.21320781397E+04  0.21320781397E+04  0.00000000000E+00 0. -1.
         22   -1    0    0    0    0 -0.00000000000E+00 -0.00000000000E+00 -0.22602648920E+04  0.22602648920E+04  0.00000000000E+00 0. -1.
        -24    2    1    2    0    0 -0.51683982020E+03  0.18104239472E+02 -0.12657795931E+04  0.13697228353E+04  0.80569871298E+02 0.  0.
         25    2    1    2    0    0  0.14957203838E+04 -0.53511233193E+03  0.10519540257E+04  0.19093924800E+04  0.12509075133E+03 0.  0.
         24    2    1    2    0    0 -0.97888056363E+03  0.51700809246E+03  0.85638815146E+02  0.11132277164E+04  0.80233512259E+02 0.  0.
        -13    1    5    5    0    0 -0.32091224583E+03  0.16365936015E+03  0.65302176972E+02  0.36610576342E+03  0.00000000000E+00 0.  1.
         14    1    5    5    0    0 -0.65796831780E+03  0.35334873231E+03  0.20336638174E+02  0.74712195303E+03  0.00000000000E+00 0. -1.
         13    1    3    3    0    0 -0.46760708111E+03  0.40393672813E+02 -0.11365933434E+04  0.12296879520E+04  0.00000000000E+00 0. -1.
        -14    1    3    3    0    0 -0.49232739086E+02 -0.22289433340E+02 -0.12918624970E+03  0.14003488333E+03  0.00000000000E+00 0.  1.
          5    1    4    4  501    0  0.81681180825E+02 -0.54096335864E+02  0.43961716927E+02  0.10746317420E+03  0.41800000000E+01 0.  1.
         -5    1    4    4    0  501  0.14140392030E+04 -0.48101599607E+03  0.10079923087E+04  0.18019293058E+04  0.41800000000E+01 0.  1.
</event>
<event>
11    1  0.8453735E-009  0.1651006E+03  0.7561462E-02  0.1082376E+00
         22   -1    0    0    0    0  0.00000000000E+00  0.00000000000E+00  0.19667405952E+04  0.19667405952E+04  0.00000000000E+00 0. -1.
         22   -1    0    0    0    0 -0.00000000000E+00 -0.00000000000E+00 -0.29220560429E+03  0.29220560429E+03  0.00000000000E+00 0. -1.
         24    2    1    2    0    0  0.96754025589E+02 -0.42071600480E+02 -0.22534106416E+03  0.26157194870E+03  0.80684125540E+02 0.  0.
         25    2    1    2    0    0 -0.11450068849E+03  0.59390480739E+02  0.12110398754E+03  0.21668196602E+03  0.12508901524E+03 0.  0.
        -24    2    1    2    0    0  0.17746662898E+02 -0.17318880259E+02  0.17787720676E+04  0.17806922848E+04  0.78867339221E+02 0.  0.
        -11    1    3    3    0    0 -0.58122114774E+01 -0.13077820292E+02 -0.24664283056E+01  0.14522205563E+02  0.00000000000E+00 0.  1.
         12    1    3    3    0    0  0.10256623707E+03 -0.28993780188E+02 -0.22287463585E+03  0.24704974313E+03  0.00000000000E+00 0. -1.
         13    1    5    5    0    0  0.17902379494E+02 -0.46250785137E+02  0.13701194403E+04  0.13710167435E+04  0.00000000000E+00 0. -1.
        -14    1    5    5    0    0 -0.15571659652E+00  0.28931904878E+02  0.40865262731E+03  0.40967554134E+03  0.00000000000E+00 0.  1.
          5    1    4    4  501    0 -0.60323962573E+02 -0.76352578560E+01  0.11503552650E+03  0.13018418637E+03  0.41800000000E+01 0. -1.
         -5    1    4    4    0  501 -0.54176725913E+02  0.67025738595E+02  0.60684610344E+01  0.86497779649E+02  0.41800000000E+01 0. -1.
</event>
<event>
11    1  0.8453735E-009  0.2079915E+03  0.7561462E-02  0.1049012E+00
         22   -1    0    0    0    0  0.00000000000E+00  0.00000000000E+00  0.11369657562E+04  0.11369657562E+04  0.00000000000E+00 0.  1.
         22   -1    0    0    0    0 -0.00000000000E+00 -0.00000000000E+00 -0.36276171809E+03  0.36276171809E+03  0.00000000000E+00 0.  1.
         24    2    1    2    0    0 -0.37889948313E+02 -0.84197587678E+02 -0.29402600117E+03  0.31878912524E+03  0.81549586463E+02 0.  0.
         25    2    1    2    0    0  0.14491318174E+03  0.19054901528E+03  0.34642490727E+03  0.43928030650E+03  0.12509282087E+03 0.  0.
        -24    2    1    2    0    0 -0.10702323343E+03 -0.10635142760E+03  0.72180513196E+03  0.74165804252E+03  0.79305768126E+02 0.  0.
        -13    1    3    3    0    0 -0.57368971402E+02 -0.65504656688E+02 -0.26593715135E+03  0.27982963995E+03  0.00000000000E+00 0.  1.
         14    1    3    3    0    0  0.19479023089E+02 -0.18692930990E+02 -0.28088849816E+02  0.38959485283E+02  0.00000000000E+00 0. -1.
         11    1    5    5    0    0 -0.37833547932E+01  0.84746149750E+01  0.11576309211E+02  0.14837243929E+02  0.00000000000E+00 0. -1.
        -12    1    5    5    0    0 -0.10323987863E+03 -0.11482604258E+03  0.71022882275E+03  0.72682079859E+03  0.00000000000E+00 0.  1.
          5    1    4    4  501    0  0.24666476566E+02  0.71540785057E+02  0.20558037219E+03  0.21910563850E+03  0.41800000000E+01 0.  1.
         -5    1    4    4    0  501  0.12024670517E+03  0.11900823022E+03  0.14084453508E+03  0.22017466800E+03  0.41800000000E+01 0.  1.
</event>
<event>
11    1  0.8453735E-009  0.1326414E+03  0.7561462E-02  0.1116065E+00
         22   -1    0    0    0    0  0.00000000000E+00  0.00000000000E+00  0.96058126978E+03  0.96058126978E+03  0.00000000000E+00 0. -1.
         22   -1    0    0    0    0 -0.00000000000E+00 -0.00000000000E+00 -0.17369853494E+03  0.17369853494E+03  0.00000000000E+00 0.  1.
         24    2    1    2    0    0 -0.18776339165E+02  0.35268077365E+02 -0.11554274652E+03  0.15156908214E+03  0.89591697130E+02 0.  0.
         25    2    1    2    0    0  0.63089808361E+02 -0.54460061508E+02  0.11427412452E+03  0.18882597141E+03  0.12510175749E+03 0.  0.
        -24    2    1    2    0    0 -0.44313469196E+02  0.19191984143E+02  0.78815135683E+03  0.79388475117E+03  0.82087886132E+02 0.  0.
        -13    1    3    3    0    0 -0.29830522166E+02 -0.21039602753E+02 -0.24540850206E+02  0.43986114463E+02  0.00000000000E+00 0.  1.
         14    1    3    3    0    0  0.11054183001E+02  0.56307680118E+02 -0.91001896311E+02  0.10758296768E+03  0.00000000000E+00 0. -1.
         11    1    5    5    0    0  0.86361884585E+01  0.16829811498E+02  0.53055492561E+03  0.53089203742E+03  0.00000000000E+00 0. -1.
        -12    1    5    5    0    0 -0.52949657655E+02  0.23621726447E+01  0.25759643123E+03  0.26299271375E+03  0.00000000000E+00 0.  1.
          5    1    4    4  501    0 -0.37997257357E+02 -0.12826892828E+02  0.38442596400E+02  0.55710199822E+02  0.41800000000E+01 0. -1.
         -5    1    4    4    0  501  0.10108706572E+03 -0.41633168680E+02  0.75831528116E+02  0.13311577159E+03  0.41800000000E+01 0. -1.
</event>
<event>
11    1  0.8453735E-009  0.1260897E+03  0.7561462E-02  0.1124169E+00
         22   -1    0    0    0    0  0.00000000000E+00  0.00000000000E+00  0.72545976805E+03  0.72545976805E+03  0.00000000000E+00 0. -1.
         22   -1    0    0    0    0 -0.00000000000E+00 -0.00000000000E+00 -0.41466802547E+03  0.41466802547E+03  0.00000000000E+00 0.  1.
        -24    2    1    2    0    0  0.11849991058E+02  0.11143332500E+02 -0.29886847881E+03  0.31004180175E+03  0.80863805599E+02 0.  0.
         25    2    1    2    0    0 -0.17464970083E+02 -0.71864730020E+00 -0.70802979649E+02  0.14478685481E+03  0.12507849441E+03 0.  0.
         24    2    1    2    0    0  0.56149790250E+01 -0.10424685200E+02  0.68046320104E+03  0.68529913697E+03  0.80402345142E+02 0.  0.
        -11    1    5    5    0    0  0.29120133428E+02  0.61508998137E+01  0.10552254197E+03  0.10963951206E+03  0.00000000000E+00 0.  1.
         12    1    5    5    0    0 -0.23505154403E+02 -0.16575585014E+02  0.57494065907E+03  0.57565962491E+03  0.00000000000E+00 0. -1.
         11    1    3    3    0    0 -0.44768716210E+01 -0.21348701395E+02 -0.22670912814E+02  0.31460764749E+02  0.00000000000E+00 0. -1.
        -12    1    3    3    0    0  0.16326862679E+02  0.32492033896E+02 -0.27619756600E+03  0.27858103700E+03  0.00000000000E+00 0.  1.
          5    1    4    4  501    0  0.49720852679E+02  0.11251876377E+02 -0.54003217999E+02  0.74381367743E+02  0.41800000000E+01 0.  1.
         -5    1    4    4    0  501 -0.67185822763E+02 -0.11970523677E+02 -0.16799761651E+02  0.70405487065E+02  0.41800000000E+01 0.  1.
</event>
<event>
11    1  0.8453735E-009  0.1469981E+03  0.7561462E-02  0.1099986E+00
         22   -1    0    0    0    0  0.00000000000E+00  0.00000000000E+00  0.23187857943E+03  0.23187857943E+03  0.00000000000E+00 0. -1.
         22   -1    0    0    0    0 -0.00000000000E+00 -0.00000000000E+00 -0.67878254156E+03  0.67878254156E+03  0.00000000000E+00 0.  1.
         24    2    1    2    0    0  0.75536562758E+02  0.49000428047E+01 -0.55913287877E+03  0.57001123992E+03  0.80953411193E+02 0.  0.
         25    2    1    2    0    0 -0.91688249003E+02 -0.39766049784E+02 -0.39318132987E+02  0.16486798906E+03  0.12508982579E+03 0.  0.
        -24    2    1    2    0    0  0.16151686244E+02  0.34866006980E+02  0.15154704963E+03  0.17578189200E+03  0.80350792737E+02 0.  0.
        -11    1    3    3    0    0  0.75358612742E+02 -0.20143902756E+02 -0.49593016815E+03  0.50202731899E+03  0.00000000000E+00 0.  1.
         12    1    3    3    0    0  0.17795001631E+00  0.25043945561E+02 -0.63202710622E+02  0.67983920933E+02  0.00000000000E+00 0. -1.
         13    1    5    5    0    0  0.23039769133E+02  0.33377116857E+02  0.15983653131E+03  0.16490172720E+03  0.00000000000E+00 0. -1.
        -14    1    5    5    0    0 -0.68880828889E+01  0.14888901229E+01 -0.82894816802E+01  0.10880164806E+02  0.00000000000E+00 0.  1.
          5    1    4    4  501    0 -0.34421597708E+02 -0.81661851360E+02 -0.16694697404E+02  0.90275631694E+02  0.41800000000E+01 0.  1.
         -5    1    4    4    0  501 -0.57266651295E+02  0.41895801576E+02 -0.22623435583E+02  0.74592357368E+02  0.41800000000E+01 0.  1.
</event>
<event>
11    1  0.8453735E-009  0.4861200E+03  0.7561462E-02  0.9425083E-01
         22   -1    0    0    0    0  0.00000000000E+00  0.00000000000E+00  0.10144204288E+04  0.10144204288E+04  0.00000000000E+00 0.  1.
         22   -1    0    0    0    0 -0.00000000000E+00 -0.00000000000E+00 -0.40670593129E+03  0.40670593129E+03  0.00000000000E+00 0.  1.
         24    2    1    2    0    0 -0.60955581918E+02 -0.16709757788E+03  0.15311589587E+02  0.19621162640E+03  0.81408685388E+02 0.  0.
         25    2    1    2    0    0 -0.41633056129E+03  0.21559987716E+03  0.36933644702E+02  0.48664750924E+03  0.12508901167E+03 0.  0.
        -24    2    1    2    0    0  0.47728614321E+03 -0.48502299275E+02  0.55546926320E+03  0.73826722444E+03  0.79610657557E+02 0.  0.
        -11    1    3    3    0    0  0.17493422229E+02 -0.38312988161E+02  0.16963697742E+02  0.45405637582E+02  0.00000000000E+00 0.  1.
         12    1    3    3    0    0 -0.78449004146E+02 -0.12878458972E+03 -0.16521081555E+01  0.15080598881E+03  0.00000000000E+00 0. -1.
         11    1    5    5    0    0  0.12116414064E+03  0.22333371414E+02  0.14139099087E+03  0.18753917125E+03  0.00000000000E+00 0. -1.
        -12    1    5    5    0    0  0.35612200257E+03 -0.70835670689E+02  0.41407827233E+03  0.55072805319E+03  0.00000000000E+00 0.  1.
          5    1    4    4  501    0 -0.25507726131E+03  0.13598287449E+03  0.83356463356E+02  0.30086795073E+03  0.41800000000E+01 0.  1.
         -5    1    4    4    0  501 -0.16125329999E+03  0.79617002662E+02 -0.46422818654E+02  0.18577955851E+03  0.41800000000E+01 0.  1.
</event>
<event>
11    1  0.8453735E-009  0.1942277E+03  0.7561462E-02  0.1058682E+00
         22   -1    0    0    0    0  0.00000000000E+00  0.00000000000E+00  0.11008039151E+03  0.11008039151E+03  0.00000000000E+00 0. -1.
         22   -1    0    0    0    0 -0.00000000000E+00 -0.00000000000E+00 -0.33941720240E+04  0.33941720240E+04  0.00000000000E+00 0.  1.
         24    2    1    2    0    0 -0.10322511006E+01  0.34031269594E+02 -0.30099877035E+04  0.30114077335E+04  0.85973071647E+02 0.  0.
         25    2    1    2    0    0 -0.10282977796E+03 -0.13225680284E+03 -0.25260895226E+03  0.32790922330E+03  0.12508937138E+03 0.  0.
        -24    2    1    2    0    0  0.10386202906E+03  0.98225533244E+02 -0.21494976696E+02  0.16493545871E+03  0.79410925298E+02 0.  0.
        -11    1    3    3    0    0 -0.20456579986E+02  0.10446300043E+02 -0.26572310805E+04  0.26573303543E+04  0.00000000000E+00 0.  1.
         12    1    3    3    0    0  0.19424328886E+02  0.23584969551E+02 -0.35275662302E+03  0.35407737915E+03  0.00000000000E+00 0. -1.
         13    1    5    5    0    0  0.12585552859E+02  0.59615088220E+02  0.81931900310E+01  0.61477501959E+02  0.00000000000E+00 0. -1.
        -14    1    5    5    0    0  0.91276476198E+02  0.38610445024E+02 -0.29688166727E+02  0.10345795675E+03  0.00000000000E+00 0.  1.
          5    1    4    4  501    0 -0.71788158461E+02 -0.51178112107E+02 -0.21647915421E+03  0.23378074229E+03  0.41800000000E+01 0.  1.
         -5    1    4    4    0  501 -0.31041619495E+02 -0.81078690731E+02 -0.36129798047E+02  0.94128481016E+02  0.41800000000E+01 0.  1.
</event>
<event>
11    1  0.8453735E-009  0.1358428E+03  0.7561462E-02  0.1112292E+00
         22   -1    0    0    0    0  0.00000000000E+00  0.00000000000E+00  0.63906833828E+02  0.63906833828E+02  0.00000000000E+00 0.  1.
         22   -1    0    0    0    0 -0.00000000000E+00 -0.00000000000E+00 -0.93255798551E+03  0.93255798551E+03  0.00000000000E+00 0. -1.
        -24    2    1    2    0    0 -0.17780402109E+02  0.22364298385E+02 -0.56766949255E+03  0.57408893301E+03  0.80704062457E+02 0.  0.
         25    2    1    2    0    0  0.67669656399E+02 -0.11378913036E+02 -0.29463689000E+03  0.32736437352E+03  0.12509146272E+03 0.  0.
         24    2    1    2    0    0 -0.49889254289E+02 -0.10985385348E+02 -0.63447691359E+01  0.95011512803E+02  0.79858093421E+02 0.  0.
        -13    1    5    5    0    0 -0.57116631414E+02  0.88417885007E+01 -0.28476240777E+02  0.64431227652E+02  0.00000000000E+00 0.  1.
         14    1    5    5    0    0  0.72273771244E+01 -0.19827173849E+02  0.22131471641E+02  0.30580285151E+02  0.00000000000E+00 0. -1.
         11    1    3    3    0    0  0.13043851661E+02  0.16970908005E+02 -0.48836537395E+03  0.48883421756E+03  0.00000000000E+00 0. -1.
        -12    1    3    3    0    0 -0.30824253770E+02  0.53933903798E+01 -0.79304118597E+02  0.85254715452E+02  0.00000000000E+00 0.  1.
          5    1    4    4  501    0 -0.50577301116E+01 -0.25720048519E+01 -0.22841244682E+03  0.22852114586E+03  0.41800000000E+01 0.  1.
         -5    1    4    4    0  501  0.72727386510E+02 -0.88069081846E+01 -0.66224443177E+02  0.98843227661E+02  0.41800000000E+01 0.  1.
</event>
<event>
11    1  0.8453735E-009  0.2190861E+03  0.7561462E-02  0.1041791E+00
         22   -1    0    0    0    0  0.00000000000E+00  0.00000000000E+00  0.55020985278E+03  0.55020985278E+03  0.00000000000E+00 0. -1.
         22   -1    0    0    0    0 -0.00000000000E+00 -0.00000000000E+00 -0.90468281502E+03  0.90468281502E+03  0.00000000000E+00 0. -1.
        -24    2    1    2    0    0  0.67424210365E+02 -0.65824315605E+01 -0.77594950534E+03  0.78295632959E+03  0.79584085496E+02 0.  0.
         25    2    1    2    0    0 -0.12199392307E+03  0.17224092124E+03  0.45615262863E+02  0.24955597306E+03  0.12509188331E+03 0.  0.
         24    2    1    2    0    0  0.54569712702E+02 -0.16565848968E+03  0.37586128023E+03  0.42238036514E+03  0.81932180067E+02 0.  0.
        -13    1    5    5    0    0  0.23693321782E+00  0.15212689435E+01  0.66851530371E+02  0.66869256834E+02  0.00000000000E+00 0.  1.
         14    1    5    5    0    0  0.54332779484E+02 -0.16717975862E+03  0.30900974986E+03  0.35551110831E+03  0.00000000000E+00 0. -1.
         11    1    3    3    0    0  0.66687588046E+01 -0.68646362203E+01 -0.51259862871E+03  0.51268796526E+03  0.00000000000E+00 0. -1.
        -12    1    3    3    0    0  0.60755451560E+02  0.28220465975E+00 -0.26335087663E+03  0.27026836433E+03  0.00000000000E+00 0.  1.
          5    1    4    4  501    0 -0.31078692834E+02  0.24941757022E+02  0.63923508253E+02  0.75443115650E+02  0.41800000000E+01 0. -1.
         -5    1    4    4    0  501 -0.90915230232E+02  0.14729916422E+03 -0.18308245391E+02  0.17411285741E+03  0.41800000000E+01 0. -1.
</event>
<event>
11    1  0.1378318E-008  0.1403199E+03  0.7561462E-02  0.1107202E+00
         22   -1    0    0    0    0  0.00000000000E+00  0.00000000000E+00  0.20262370383E+04  0.20262370383E+04  0.00000000000E+00 0. -1.
         22   -1    0    0    0    0 -0.00000000000E+00 -0.00000000000E+00 -0.67356300162E+03  0.67356300162E+03  0.00000000000E+00 0.  1.
         24    2    1    2    0    0 -0.30249324500E+02 -0.67003324575E+02 -0.56271281928E+03  0.57402342001E+03  0.86329036816E+02 0.  0.
         25    2    1    2    0    0 -0.36112173111E+01 -0.13222403686E+01 -0.65884810071E+02  0.14142606976E+03  0.12508291570E+03 0.  0.
        -24    2    1    2    0    0  0.33860541811E+02  0.68325564943E+02  0.19812716660E+04  0.19843505502E+04  0.79967319219E+02 0.  0.
        -11    1    3    3    0    0 -0.38432828548E+02 -0.65489149587E+02 -0.56021004986E+03  0.56533283204E+03  0.00000000000E+00 0.  1.
         12    1    3    3    0    0  0.81835040480E+01 -0.15141749878E+01 -0.25027694235E+01  0.86905879654E+01  0.00000000000E+00 0. -1.
         13    1    5    5    0    0  0.22888749291E+02  0.77025593429E+02  0.19114713961E+04  0.19131596208E+04  0.00000000000E+00 0. -1.
        -14    1    5    5    0    0  0.10971792520E+02 -0.87000284862E+01  0.69800269978E+02  0.71190929309E+02  0.00000000000E+00 0.  1.
          5    1    4    4  501    0  0.22863279833E+02 -0.15760345609E+02  0.29840555023E+02  0.40976202637E+02  0.41800000000E+01 0.  1.
         -5    1    4    4    0  501 -0.26474497145E+02  0.14438105240E+02 -0.95725365095E+02  0.10044986712E+03  0.41800000000E+01 0.  1.
</event>
<event>
11    1  0.8453735E-009  0.1723863E+03  0.7561462E-02  0.1075973E+00
         22   -1    0    0    0    0  0.00000000000E+00  0.00000000000E+00  0.11816280245E+04  0.11816280245E+04  0.00000000000E+00 0.  1.
         22   -1    0    0    0    0 -0.00000000000E+00 -0.00000000000E+00 -0.60400295017E+03  0.60400295017E+03  0.00000000000E+00 0. -1.
        -24    2    1    2    0    0 -0.18296772862E+02 -0.60009787924E+02 -0.57364501565E+03  0.58271828123E+03  0.80969406328E+02 0.  0.
         25    2    1    2    0    0  0.12988617663E+03  0.21493433816E+02  0.41590915571E+03  0.45382759729E+03  0.12508667270E+03 0.  0.
         24    2    1    2    0    0 -0.11158940376E+03  0.38516354108E+02  0.73536093426E+03  0.74908509613E+03  0.80231371944E+02 0.  0.
        -13    1    5    5    0    0 -0.80619217128E+02  0.61709466316E+01  0.27749977509E+03  0.28903920829E+03  0.00000000000E+00 0.  1.
         14    1    5    5    0    0 -0.30970186635E+02  0.32345407476E+02  0.45786115917E+03  0.46004588784E+03  0.00000000000E+00 0. -1.
         13    1    3    3    0    0 -0.43429735904E+02 -0.63598353240E+02 -0.42521947737E+03  0.43213712688E+03  0.00000000000E+00 0. -1.
        -14    1    3    3    0    0  0.25132963042E+02  0.35885653158E+01 -0.14842553828E+03  0.15058115436E+03  0.00000000000E+00 0.  1.
          5    1    4    4  501    0  0.11422553535E+03  0.30937769488E+02  0.16984462197E+03  0.20704899545E+03  0.41800000000E+01 0.  1.
         -5    1    4    4    0  501  0.15660641276E+02 -0.94443356715E+01  0.24606453374E+03  0.24677860184E+03  0.41800000000E+01 0.  1.
</event>
<event>
11    1  0.8453735E-009  0.1376845E+03  0.7561462E-02  0.1110172E+00
         22   -1    0    0    0    0  0.00000000000E+00  0.00000000000E+00  0.10891039615E+03  0.10891039615E+03  0.00000000000E+00 0. -1.
         22   -1    0    0    0    0 -0.00000000000E+00 -0.00000000000E+00 -0.21974609885E+04  0.21974609885E+04  0.00000000000E+00 0. -1.
         24    2    1    2    0    0  0.24867719340E+02  0.18109243928E+02 -0.14823566248E+04  0.14848828145E+04  0.80928744227E+02 0.  0.
         25    2    1    2    0    0  0.14014415333E+02 -0.60637090592E+02 -0.68265600379E+03  0.69680791163E+03  0.12509510623E+03 0.  0.
        -24    2    1    2    0    0 -0.38882134673E+02  0.42527846664E+02  0.76462036169E+02  0.12468065856E+03  0.79864795152E+02 0.  0.
        -13    1    3    3    0    0 -0.18591455850E+02  0.23436878415E+02 -0.25553722993E+03  0.25728234564E+03  0.00000000000E+00 0.  1.
         14    1    3    3    0    0  0.43459175190E+02 -0.53276344869E+01 -0.12268193948E+04  0.12276004689E+04  0.00000000000E+00 0. -1.
         13    1    5    5    0    0 -0.45837851921E+02 -0.72091398742E+01  0.48826797344E+02  0.67358269762E+02  0.00000000000E+00 0. -1.
        -14    1    5    5    0    0  0.69557172483E+01  0.49736986538E+02  0.27635238825E+02  0.57322388796E+02  0.00000000000E+00 0.  1.
          5    1    4    4  501    0  0.61083006959E+02 -0.45913986976E+02 -0.25329456475E+03  0.26460316867E+03  0.41800000000E+01 0. -1.
         -5    1    4    4    0  501 -0.47068591627E+02 -0.14723103616E+02 -0.42936143904E+03  0.43220474296E+03  0.41800000000E+01 0. -1.
</event>
<event>
11    1  0.8453735E-009  0.3055402E+03  0.7561462E-02  0.9978734E-01
         22   -1    0    0    0    0  0.00000000000E+00  0.00000000000E+00  0.73286172725E+03  0.73286172725E+03  0.00000000000E+00 0.  1.
         22   -1    0    0    0    0 -0.00000000000E+00 -0.00000000000E+00 -0.84773732304E+03  0.84773732304E+03  0.00000000000E+00 0.  1.
        -24    2    1    2    0    0 -0.15646815299E+03 -0.22947672603E+03 -0.71670800277E+03  0.77604579455E+03  0.10693392032E+03 0.  0.
         25    2    1    2    0    0  0.26255570481E+03  0.16911272070E+03  0.23730125180E+03  0.41169729675E+03  0.12509264410E+03 0.  0.
         24    2    1    2    0    0 -0.10608755183E+03  0.60364005326E+02  0.36453115518E+03  0.39285595900E+03  0.80959617314E+02 0.  0.
        -11    1    5    5    0    0 -0.77294272461E+02  0.17923707173E+02  0.12621202607E+03  0.14908098256E+03  0.00000000000E+00 0.  1.
         12    1    5    5    0    0 -0.28793279365E+02  0.42440298152E+02  0.23831912910E+03  0.24377497645E+03  0.00000000000E+00 0. -1.
         11    1    3    3    0    0 -0.13111905552E+03 -0.11609100751E+03 -0.34993529504E+03  0.39131066872E+03  0.00000000000E+00 0. -1.
        -12    1    3    3    0    0 -0.25349097471E+02 -0.11338571852E+03 -0.36677270773E+03  0.38473512582E+03  0.00000000000E+00 0.  1.
          5    1    4    4  501    0  0.26065772127E+03  0.12160175015E+03  0.21432572808E+03  0.35872332432E+03  0.41800000000E+01 0. -1.
         -5    1    4    4    0  501  0.18979835491E+01  0.47510970551E+02  0.22975523722E+02  0.52973972426E+02  0.41800000000E+01 0. -1.
</event>
<event>
11    1  0.8453735E-009  0.1633927E+03  0.7561462E-02  0.1083929E+00
         22   -1    0    0    0    0  0.00000000000E+00  0.00000000000E+00  0.64296451677E+02  0.64296451677E+02  0.00000000000E+00 0.  1.
         22   -1    0    0    0    0 -0.00000000000E+00 -0.00000000000E+00 -0.15834787107E+04  0.15834787107E+04  0.00000000000E+00 0.  1.
         24    2    1    2    0    0 -0.53265816110E+02 -0.95601557754E+02 -0.11002404472E+04  0.11087286642E+04  0.82300086180E+02 0.  0.
         25    2    1    2    0    0  0.31008200004E+02  0.86845795238E+02 -0.42794625611E+03  0.45528910161E+03  0.12508583974E+03 0.  0.
        -24    2    1    2    0    0  0.22257616107E+02  0.87557625163E+01  0.90044442550E+01  0.83757396591E+02  0.79763128169E+02 0.  0.
        -13    1    3    3    0    0 -0.12937413424E+02 -0.89909887126E+02 -0.60050763722E+03  0.60733893900E+03  0.00000000000E+00 0.  1.
         14    1    3    3    0    0 -0.40328402687E+02 -0.56916706279E+01 -0.49973280996E+03  0.50138972519E+03  0.00000000000E+00 0. -1.
         11    1    5    5    0    0 -0.18427315637E+02  0.63155987345E+01 -0.24285040240E+02  0.31132232950E+02  0.00000000000E+00 0. -1.
        -12    1    5    5    0    0  0.40684931744E+02  0.24401637818E+01  0.33289484495E+02  0.52625163641E+02  0.00000000000E+00 0.  1.
          5    1    4    4  501    0  0.15218035059E+02 -0.30725664743E+02 -0.67903780492E+02  0.76184321681E+02  0.41800000000E+01 0.  1.
         -5    1    4    4    0  501  0.15790164944E+02  0.11757145998E+03 -0.36004247562E+03  0.37910477993E+03  0.41800000000E+01 0.  1.
</event>
<event>
11    1  0.8453735E-009  0.1990712E+03  0.7561462E-02  0.1055182E+00
         22   -1    0    0    0    0  0.00000000000E+00  0.00000000000E+00  0.14051385109E+04  0.14051385109E+04  0.00000000000E+00 0.  1.
         22   -1    0    0    0    0 -0.00000000000E+00 -0.00000000000E+00 -0.52710243071E+03  0.52710243071E+03  0.00000000000E+00 0. -1.
         24    2    1    2    0    0 -0.33537689871E+02 -0.64914946400E+02 -0.48648708313E+03  0.49831259193E+03  0.79416813822E+02 0.  0.
         25    2    1    2    0    0 -0.64080588374E+02  0.17641420973E+03  0.44354063308E+03  0.49760569630E+03  0.12511930546E+03 0.  0.
        -24    2    1    2    0    0  0.97618278245E+02 -0.11149926333E+03  0.92098253018E+03  0.93632265333E+03  0.80807649817E+02 0.  0.
        -13    1    3    3    0    0 -0.41988765090E+02 -0.19149530807E+01 -0.14541350792E+03  0.15136648151E+03  0.00000000000E+00 0.  1.
         14    1    3    3    0    0  0.84510752184E+01 -0.62999993320E+02 -0.34107357521E+03  0.34694611042E+03  0.00000000000E+00 0. -1.
         11    1    5    5    0    0  0.62504879249E+02 -0.28917442798E+02  0.24805221614E+03  0.25743539065E+03  0.00000000000E+00 0. -1.
        -12    1    5    5    0    0  0.35113398996E+02 -0.82581820531E+02  0.67293031404E+03  0.67888726268E+03  0.00000000000E+00 0.  1.
          5    1    4    4  501    0  0.37362776492E+02  0.34724840375E+02  0.95077948043E+02  0.10797722079E+03  0.41800000000E+01 0. -1.
         -5    1    4    4    0  501 -0.10144336487E+03  0.14168936935E+03  0.34846268504E+03  0.38962847551E+03  0.41800000000E+01 0. -1.
</event>
<event>
11    1  0.8453735E-009  0.1442345E+03  0.7561462E-02  0.1102920E+00
         22   -1    0    0    0    0  0.00000000000E+00  0.00000000000E+00  0.10904737965E+03  0.10904737965E+03  0.00000000000E+00 0. -1.
         22   -1    0    0    0    0 -0.00000000000E+00 -0.00000000000E+00 -0.10676202821E+04  0.10676202821E+04  0.00000000000E+00 0. -1.
         24    2    1    2    0    0  0.16147333659E+02 -0.39337664969E+02 -0.89751887672E+03  0.90213045977E+03  0.80567016252E+02 0.  0.
         25    2    1    2    0    0  0.44575973991E+02  0.72896698885E+02 -0.71767363750E+02  0.16762544750E+03  0.12508712958E+03 0.  0.
        -24    2    1    2    0    0 -0.60723307650E+02 -0.33559033916E+02  0.10713337992E+02  0.10691175451E+03  0.80633856358E+02 0.  0.
        -11    1    3    3    0    0  0.92152689670E+01  0.23698009373E+02 -0.17555592133E+03  0.17738770629E+03  0.00000000000E+00 0.  1.
         12    1    3    3    0    0  0.69320646923E+01 -0.63035674342E+02 -0.72196295540E+03  0.72474275348E+03  0.00000000000E+00 0. -1.
         11    1    5    5    0    0 -0.74571948969E+02 -0.51283240829E+01  0.77737382061E+01  0.75151222789E+02  0.00000000000E+00 0. -1.
        -12    1    5    5    0    0  0.13848641319E+02 -0.28430709833E+02  0.29395997859E+01  0.31760531717E+02  0.00000000000E+00 0.  1.
          5    1    4    4  501    0 -0.36223527967E+02  0.27737730839E+02 -0.58060934265E+02  0.73959922784E+02  0.41800000000E+01 0. -1.
         -5    1    4    4    0  501  0.80799501958E+02  0.45158968046E+02 -0.13706429486E+02  0.93665524719E+02  0.41800000000E+01 0. -1.
</event>
<event>
11    1  0.8850381E-009  0.2385736E+03  0.7561462E-02  0.1030169E+00
         22   -1    0    0    0    0  0.00000000000E+00  0.00000000000E+00  0.74954729078E+03  0.74954729078E+03  0.00000000000E+00 0.  1.
         22   -1    0    0    0    0 -0.00000000000E+00 -0.00000000000E+00 -0.12910145899E+04  0.12910145899E+04  0.00000000000E+00 0. -1.
        -24    2    1    2    0    0 -0.38740166967E+02  0.35875382123E+02 -0.86100869549E+03  0.86650372049E+03  0.81883333657E+02 0.  0.
         25    2    1    2    0    0 -0.84166489107E+02  0.12845499716E+03 -0.38657749099E+03  0.43435813645E+03  0.12506058522E+03 0.  0.
         24    2    1    2    0    0  0.12290665607E+03 -0.16433037929E+03  0.70611888732E+03  0.73970002378E+03  0.80260341942E+02 0.  0.
        -13    1    5    5    0    0  0.59870418350E+02 -0.11138579865E+03  0.53593199038E+03  0.55064903655E+03  0.00000000000E+00 0.  1.
         14    1    5    5    0    0  0.63036237724E+02 -0.52944580637E+02  0.17018689693E+03  0.18905098723E+03  0.00000000000E+00 0. -1.
         11    1    3    3    0    0 -0.77560904300E+01 -0.20741824070E+02 -0.44191319146E+03  0.44246768130E+03  0.00000000000E+00 0. -1.
        -12    1    3    3    0    0 -0.30984076537E+02  0.56617206193E+02 -0.41909550403E+03  0.42403603919E+03  0.00000000000E+00 0.  1.
          5    1    4    4  501    0  0.30334672123E+01  0.81114655751E+02 -0.26604399585E+03  0.27818279858E+03  0.41800000000E+01 0. -1.
         -5    1    4    4    0  501 -0.87199956319E+02  0.47340341411E+02 -0.12053349515E+03  0.15617533787E+03  0.41800000000E+01 0. -1.
</event>
<event>
11    1  0.8453735E-009  0.1450304E+03  0.7561462E-02  0.1102068E+00
         22   -1    0    0    0    0  0.00000000000E+00  0.00000000000E+00  0.79297570720E+03  0.79297570720E+03  0.00000000000E+00 0.  1.
         22   -1    0    0    0    0 -0.00000000000E+00 -0.00000000000E+00 -0.14711892151E+04  0.14711892151E+04  0.00000000000E+00 0.  1.
        -24    2    1    2    0    0 -0.25546420683E+02 -0.68860142148E+02 -0.14143009187E+04  0.14181436580E+04  0.74094583614E+02 0.  0.
         25    2    1    2    0    0  0.30142936583E+02  0.64277007523E+02  0.46144419661E+02  0.15105121650E+03  0.12508809782E+03 0.  0.
         24    2    1    2    0    0 -0.45965159000E+01  0.45831346252E+01  0.68994299115E+03  0.69497004778E+03  0.83185955557E+02 0.  0.
        -11    1    5    5    0    0  0.28679946164E+02 -0.18893963571E+02  0.47248358482E+03  0.47373015431E+03  0.00000000000E+00 0.  1.
         12    1    5    5    0    0 -0.33276462064E+02  0.23477098196E+02  0.21745940632E+03  0.22123989348E+03  0.00000000000E+00 0. -1.
         11    1    3    3    0    0 -0.37734132626E+01 -0.52853809897E+02 -0.40140452807E+03  0.40488684718E+03  0.00000000000E+00 0. -1.
        -12    1    3    3    0    0 -0.21773007421E+02 -0.16006332252E+02 -0.10128963906E+04  0.10132568108E+04  0.00000000000E+00 0.  1.
          5    1    4    4  501    0  0.27471874624E+02  0.45497742406E+02 -0.37500595434E+02  0.65180637595E+02  0.41800000000E+01 0. -1.
         -5    1    4    4    0  501  0.26710619592E+01  0.18779265118E+02  0.83645015096E+02  0.85870578900E+02  0.41800000000E+01 0. -1.
</event>
<event>
11    1  0.8453735E-009  0.1366707E+03  0.7561462E-02  0.1111334E+00
         22   -1    0    0    0    0  0.00000000000E+00  0.00000000000E+00  0.45937885043E+03  0.45937885043E+03  0.00000000000E+00 0.  1.
         22   -1    0    0    0    0 -0.00000000000E+00 -0.00000000000E+00 -0.18422827818E+03  0.18422827818E+03  0.00000000000E+00 0. -1.
         24    2    1    2    0    0  0.31710668182E+02 -0.43996384339E+02 -0.10948440213E+03  0.14645805697E+03  0.80758156419E+02 0.  0.
         25    2    1    2    0    0 -0.10271593067E+02  0.64398765799E+02  0.46855814271E+02  0.14864175096E+03  0.12508475581E+03 0.  0.
        -24    2    1    2    0    0 -0.21439075114E+02 -0.20402381460E+02  0.33777916012E+03  0.34850732069E+03  0.80540054947E+02 0.  0.
        -13    1    3    3    0    0 -0.51740133767E+01  0.17245968938E+02 -0.30802005713E+01  0.18266950883E+02  0.00000000000E+00 0.  1.
         14    1    3    3    0    0  0.36884681558E+02 -0.61242353277E+02 -0.10640420156E+03  0.12819110608E+03  0.00000000000E+00 0. -1.
         11    1    5    5    0    0  0.20165828861E+02 -0.20438982384E+02  0.49366277468E+02  0.57109036111E+02  0.00000000000E+00 0. -1.
        -12    1    5    5    0    0 -0.41604903975E+02  0.36600924311E-01  0.28841288265E+03  0.29139828457E+03  0.00000000000E+00 0.  1.
          5    1    4    4  501    0  0.31459974213E+02  0.20209193430E+02 -0.31721754804E+02  0.49212636634E+02  0.41800000000E+01 0. -1.
         -5    1    4    4    0  501 -0.41731567281E+02  0.44189572369E+02  0.78577569075E+02  0.99429114325E+02  0.41800000000E+01 0. -1.
</event>
<event>
11    1  0.8453735E-009  0.1454634E+03  0.7561462E-02  0.1101607E+00
         22   -1    0    0    0    0  0.00000000000E+00  0.00000000000E+00  0.51636717656E+03  0.51636717656E+03  0.00000000000E+00 0. -1.
         22   -1    0    0    0    0 -0.00000000000E+00 -0.00000000000E+00 -0.79938327934E+03  0.79938327934E+03  0.00000000000E+00 0. -1.
         24    2    1    2    0    0 -0.47222482708E+02 -0.57284903512E+02 -0.75277864543E+03  0.76071246918E+03  0.80599309649E+02 0.  0.
         25    2    1    2    0    0  0.89047456799E+02  0.22650005095E+02  0.13251303351E+03  0.20408109439E+03  0.12508763625E+03 0.  0.
        -24    2    1    2    0    0 -0.41824974091E+02  0.34634898417E+02  0.33724950914E+03  0.35095689234E+03  0.80527040302E+02 0.  0.
        -11    1    3    3    0    0 -0.17357660003E+02 -0.23534531226E+02 -0.62923099563E+02  0.69386446655E+02  0.00000000000E+00 0.  1.
         12    1    3    3    0    0 -0.29864822705E+02 -0.33750372286E+02 -0.68985554587E+03  0.69132602253E+03  0.00000000000E+00 0. -1.
         11    1    5    5    0    0 -0.64697503589E+02  0.20434640200E+02  0.20311365828E+03  0.21414597748E+03  0.00000000000E+00 0. -1.
        -12    1    5    5    0    0  0.22872529498E+02  0.14200258217E+02  0.13413585086E+03  0.13681091486E+03  0.00000000000E+00 0.  1.
          5    1    4    4  501    0 -0.18293800289E+02 -0.29880423824E+02  0.24645142598E+02  0.43039032407E+02  0.41800000000E+01 0.  1.
         -5    1    4    4    0  501  0.10734125709E+03  0.52530428919E+02  0.10786789092E+03  0.16104206198E+03  0.41800000000E+01 0.  1.
</event>
<event>
11    1  0.8453735E-009  0.1953422E+03  0.7561462E-02  0.1057867E+00
         22   -1    0    0    0    0  0.00000000000E+00  0.00000000000E+00  0.20066356488E+04  0.20066356488E+04  0.00000000000E+00 0.  1.
         22   -1    0    0    0    0 -0.00000000000E+00 -0.00000000000E+00 -0.59484025453E+03  0.59484025453E+03  0.00000000000E+00 0. -1.
         24    2    1    2    0    0  0.14889062476E+03 -0.13852461469E+02 -0.52545938382E+03  0.55225457267E+03  0.80729425626E+02 0.  0.
         25    2    1    2    0    0 -0.16014082470E+03 -0.28456443891E+02  0.13712381696E+03  0.24679102439E+03  0.12509202855E+03 0.  0.
        -24    2    1    2    0    0  0.11250199945E+02  0.42308905360E+02  0.18001309611E+04  0.18024303063E+04  0.79792990298E+02 0.  0.
        -13    1    3    3    0    0  0.97257959282E+02 -0.39166536568E+02 -0.25433214346E+03  0.27509628756E+03  0.00000000000E+00 0.  1.
         14    1    3    3    0    0  0.51632665474E+02  0.25314075099E+02 -0.27112724036E+03  0.27715828511E+03  0.00000000000E+00 0. -1.
         11    1    5    5    0    0  0.13777765483E+02 -0.21179156973E+02  0.70983304815E+03  0.71028257740E+03  0.00000000000E+00 0. -1.
        -12    1    5    5    0    0 -0.25275655373E+01  0.63488062333E+02  0.10902979130E+04  0.10921477289E+04  0.00000000000E+00 0.  1.
          5    1    4    4  501    0 -0.79289870947E+02  0.48546968027E+02  0.69940653199E+02  0.11641674755E+03  0.41800000000E+01 0.  1.
         -5    1    4    4    0  501 -0.80850953754E+02 -0.77003411917E+02  0.67183163761E+02  0.13037427685E+03  0.41800000000E+01 0.  1.
</event>
<event>
11    1  0.8453735E-009  0.1552388E+03  0.7561462E-02  0.1091643E+00
         22   -1    0    0    0    0  0.00000000000E+00  0.00000000000E+00  0.24288539937E+04  0.24288539937E+04  0.00000000000E+00 0. -1.
         22   -1    0    0    0    0 -0.00000000000E+00 -0.00000000000E+00 -0.84845759363E+03  0.84845759363E+03  0.00000000000E+00 0.  1.
        -24    2    1    2    0    0 -0.87579741221E+02  0.27320057073E+02 -0.81929356939E+03  0.82843647686E+03  0.81538008104E+02 0.  0.
         25    2    1    2    0    0  0.10131103706E+03 -0.22564917021E+02  0.25349829222E+03  0.30113470791E+03  0.12509047302E+03 0.  0.
         24    2    1    2    0    0 -0.13731295837E+02 -0.47551400513E+01  0.21461916772E+04  0.21477404025E+04  0.80243139748E+02 0.  0.
        -11    1    5    5    0    0 -0.45955437185E+02  0.59321038683E+01  0.10476045428E+04  0.10486288048E+04  0.00000000000E+00 0.  1.
         12    1    5    5    0    0  0.32224141348E+02 -0.10687243920E+02  0.10985871344E+04  0.10991115978E+04  0.00000000000E+00 0. -1.
         13    1    3    3    0    0 -0.34622567860E+02  0.96797369643E+01 -0.88624967055E+02  0.95638926690E+02  0.00000000000E+00 0. -1.
        -14    1    3    3    0    0 -0.52957173361E+02  0.17640320109E+02 -0.73066860233E+03  0.73279755017E+03  0.00000000000E+00 0.  1.
          5    1    4    4  501    0  0.23422849952E+02 -0.20446852126E+02 -0.44110309747E+01  0.31680171337E+02  0.41800000000E+01 0. -1.
         -5    1    4    4    0  501  0.77888187106E+02 -0.21180648959E+01  0.25790932319E+03  0.26945453657E+03  0.41800000000E+01 0. -1.
</event>
<event>
11    1  0.8453735E-009  0.1406561E+03  0.7561462E-02  0.1106828E+00
         22   -1    0    0    0    0  0.00000000000E+00  0.00000000000E+00  0.17860912695E+03  0.17860912695E+03  0.00000000000E+00 0. -1.
         22   -1    0    0    0    0 -0.00000000000E+00 -0.00000000000E+00 -0.11684874903E+04  0.11684874903E+04  0.00000000000E+00 0.  1.
         24    2    1    2    0    0 -0.17111529926E+02  0.68793215614E+02 -0.97161301380E+03  0.97764552241E+03  0.82058564074E+02 0.  0.
         25    2    1    2    0    0  0.62316288609E+02 -0.16476034285E+02 -0.13959503649E+03  0.19821521165E+03  0.12509083253E+03 0.  0.
        -24    2    1    2    0    0 -0.45204758682E+02 -0.52317181329E+02  0.12132968697E+03  0.17123588316E+03  0.99097311113E+02 0.  0.
        -11    1    3    3    0    0 -0.20572493101E+02  0.27543538106E+02 -0.81278990618E+03  0.81351662893E+03  0.00000000000E+00 0.  1.
         12    1    3    3    0    0  0.34609631743E+01  0.41249677508E+02 -0.15882310762E+03  0.16412889348E+03  0.00000000000E+00 0. -1.
         13    1    5    5    0    0 -0.69136326729E+02 -0.62387074173E+02  0.81837174628E+02  0.12397298838E+03  0.00000000000E+00 0. -1.
        -14    1    5    5    0    0  0.23931568047E+02  0.10069892844E+02  0.39492512347E+02  0.47262894775E+02  0.00000000000E+00 0.  1.
          5    1    4    4  501    0  0.42727574128E+02 -0.62615295811E+02 -0.38107794935E+02  0.84947026406E+02  0.41800000000E+01 0.  1.
         -5    1    4    4    0  501  0.19588714480E+02  0.46139261527E+02 -0.10148724156E+03  0.11326818524E+03  0.41800000000E+01 0.  1.
</event>
<event>
11    1  0.8453735E-009  0.1456095E+03  0.7561462E-02  0.1101451E+00
         22   -1    0    0    0    0  0.00000000000E+00  0.00000000000E+00  0.47216583618E+03  0.47216583618E+03  0.00000000000E+00 0. -1.
         22   -1    0    0    0    0 -0.00000000000E+00 -0.00000000000E+00 -0.50825179201E+03  0.50825179201E+03  0.00000000000E+00 0. -1.
        -24    2    1    2    0    0 -0.12356739526E+02 -0.29946361966E+02 -0.40632725505E+03  0.41663646930E+03  0.86224333851E+02 0.  0.
         25    2    1    2    0    0 -0.12267575639E+02  0.98304345331E+02 -0.17881167772E+02  0.16055701540E+03  0.12507830071E+03 0.  0.
         24    2    1    2    0    0  0.24624315165E+02 -0.68357983365E+02  0.38812246699E+03  0.40322414349E+03  0.81679187823E+02 0.  0.
        -11    1    5    5    0    0  0.65316062297E+01 -0.68490022269E+02  0.15723256828E+03  0.17162641276E+03  0.00000000000E+00 0.  1.
         12    1    5    5    0    0  0.18092708936E+02  0.13203890395E+00  0.23088989871E+03  0.23159773073E+03  0.00000000000E+00 0. -1.
         11    1    3    3    0    0 -0.31945995734E+02 -0.21146465395E+01 -0.34513046184E+03  0.34661225319E+03  0.00000000000E+00 0. -1.
        -12    1    3    3    0    0  0.19589256208E+02 -0.27831715426E+02 -0.61196793212E+02  0.70024216110E+02  0.00000000000E+00 0.  1.
          5    1    4    4  501    0  0.51097692262E+02  0.43494011238E+02  0.17566468487E+02  0.69489253724E+02  0.41800000000E+01 0. -1.
         -5    1    4    4    0  501 -0.63365267901E+02  0.54810334094E+02 -0.35447636259E+02  0.91067761672E+02  0.41800000000E+01 0. -1.
</event>
<event>
11    1  0.8453735E-009  0.3010462E+03  0.7561462E-02  0.9997494E-01
         22   -1    0    0    0    0  0.00000000000E+00  0.00000000000E+00  0.80987340499E+03  0.80987340499E+03  0.00000000000E+00 0. -1.
         22   -1    0    0    0    0 -0.00000000000E+00 -0.00000000000E+00 -0.25239994750E+03  0.25239994750E+03  0.00000000000E+00 0.  1.
         24    2    1    2    0    0 -0.14495359811E+03  0.23270490442E+03 -0.43228249082E+02  0.28895830875E+03  0.80405873736E+02 0.  0.
         25    2    1    2    0    0  0.42585600733E+02 -0.28740795876E+03  0.27512893325E+03  0.41923810242E+03  0.12509112065E+03 0.  0.
        -24    2    1    2    0    0  0.10236799737E+03  0.54703054345E+02  0.32557277332E+03  0.35407694132E+03  0.76819389512E+02 0.  0.
        -13    1    3    3    0    0 -0.97367095474E+02  0.14653767752E+03 -0.66027663805E+02  0.18791831897E+03  0.00000000000E+00 0.  1.
         14    1    3    3    0    0 -0.47586502631E+02  0.86167226892E+02  0.22799414724E+02  0.10103998978E+03  0.00000000000E+00 0. -1.
         11    1    5    5    0    0  0.11514035544E+03  0.49512126870E+02  0.28995335045E+03  0.31588241102E+03  0.00000000000E+00 0. -1.
        -12    1    5    5    0    0 -0.12772358068E+02  0.51909274752E+01  0.35619422877E+02  0.38194530299E+02  0.00000000000E+00 0.  1.
          5    1    4    4  501    0  0.83581013314E+02 -0.15967802791E+03  0.13515224892E+03  0.22531413886E+03  0.41800000000E+01 0. -1.
         -5    1    4    4    0  501 -0.40995412581E+02 -0.12772993086E+03  0.13997668432E+03  0.19392396356E+03  0.41800000000E+01 0. -1.
</event>
<event>
11    1  0.8453735E-009  0.2499738E+03  0.7561462E-02  0.1023913E+00
         22   -1    0    0    0    0  0.00000000000E+00  0.00000000000E+00  0.44162973068E+03  0.44162973068E+03  0.00000000000E+00 0.  1.
         22   -1    0    0    0    0 -0.00000000000E+00 -0.00000000000E+00 -0.72323501451E+03  0.72323501451E+03  0.00000000000E+00 0. -1.
        -24    2    1    2    0    0  0.17399909925E+03 -0.13954340602E+03 -0.58036109328E+03  0.62735907988E+03  0.83739881834E+02 0.  0.
         25    2    1    2    0    0 -0.17598868035E+03  0.71939082774E+02  0.66430746201E+01  0.22768155978E+03  0.12509002751E+03 0.  0.
         24    2    1    2    0    0  0.19895811000E+01  0.67604323249E+02  0.29211273483E+03  0.30982410553E+03  0.78018097686E+02 0.  0.
        -11    1    5    5    0    0  0.14116225286E+00  0.50924271922E+02  0.28810372158E+03  0.29256974517E+03  0.00000000000E+00 0.  1.
         12    1    5    5    0    0  0.18484188472E+01  0.16680051327E+02  0.40090132470E+01  0.17254360369E+02  0.00000000000E+00 0. -1.
         11    1    3    3    0    0  0.17533336661E+03 -0.11000440520E+03 -0.47984379035E+03  0.52258283721E+03  0.00000000000E+00 0. -1.
        -12    1    3    3    0    0 -0.13342673649E+01 -0.29539000820E+02 -0.10051730293E+03  0.10477624267E+03  0.00000000000E+00 0.  1.
          5    1    4    4  501    0 -0.62862154433E+02 -0.34490149104E+02  0.82430273424E+01  0.72295509854E+02  0.41800000000E+01 0.  1.
         -5    1    4    4    0  501 -0.11312652592E+03  0.10642923188E+03 -0.15999527223E+01  0.15538604993E+03  0.41800000000E+01 0.  1.
</event>
<event>
11    1  0.8453735E-009  0.1724691E+03  0.7561462E-02  0.1075903E+00
         22   -1    0    0    0    0  0.00000000000E+00  0.00000000000E+00  0.30243693347E+03  0.30243693347E+03  0.00000000000E+00 0.  1.
         22   -1    0    0    0    0 -0.00000000000E+00 -0.00000000000E+00 -0.34507702408E+03  0.34507702408E+03  0.00000000000E+00 0.  1.
         24    2    1    2    0    0 -0.64858947513E+02  0.58676452256E+02 -0.94331509142E+02  0.15285143111E+03  0.82556146072E+02 0.  0.
         25    2    1    2    0    0  0.16744969248E+03 -0.99161184245E+02 -0.13143107118E+03  0.26607132829E+03  0.12508990883E+03 0.  0.
        -24    2    1    2    0    0 -0.10259074497E+03  0.40484731989E+02  0.18312248972E+03  0.22859119815E+03  0.80970458517E+02 0.  0.
        -13    1    3    3    0    0 -0.36266504274E+02  0.77160794724E+02 -0.58344045001E+02  0.10331057623E+03  0.00000000000E+00 0.  1.
         14    1    3    3    0    0 -0.28592443239E+02 -0.18484342468E+02 -0.35987464141E+02  0.49540854878E+02  0.00000000000E+00 0. -1.
         13    1    5    5    0    0 -0.22513560379E+02  0.10005126562E+02 -0.18824327095E+01  0.24708429966E+02  0.00000000000E+00 0. -1.
        -14    1    5    5    0    0 -0.80077184591E+02  0.30479605427E+02  0.18500492243E+03  0.20388276818E+03  0.00000000000E+00 0.  1.
          5    1    4    4  501    0  0.16504372513E+03 -0.49324450981E+02 -0.67951689216E+02  0.18522212918E+03  0.41800000000E+01 0. -1.
         -5    1    4    4    0  501  0.24059673491E+01 -0.49836733264E+02 -0.63479381968E+02  0.80849199108E+02  0.41800000000E+01 0. -1.
</event>
<event>
11    1  0.8453735E-009  0.1404219E+03  0.7561462E-02  0.1107088E+00
         22   -1    0    0    0    0  0.00000000000E+00  0.00000000000E+00  0.91213382314E+03  0.91213382314E+03  0.00000000000E+00 0.  1.
         22   -1    0    0    0    0 -0.00000000000E+00 -0.00000000000E+00 -0.13323151743E+04  0.13323151743E+04  0.00000000000E+00 0.  1.
        -24    2    1    2    0    0  0.63596291804E+02 -0.62565033739E+01 -0.12562234910E+04  0.12604906863E+04  0.81582343865E+02 0.  0.
         25    2    1    2    0    0 -0.57149038911E+02  0.31619310199E+02 -0.25749250980E+01  0.14114353760E+03  0.12509626110E+03 0.  0.
         24    2    1    2    0    0 -0.64472528931E+01 -0.25362806825E+02  0.83861706493E+03  0.84281477351E+03  0.79833087269E+02 0.  0.
        -13    1    5    5    0    0 -0.24462157335E+02  0.87707782587E+01  0.63740255526E+03  0.63793208192E+03  0.00000000000E+00 0.  1.
         14    1    5    5    0    0  0.18014904442E+02 -0.34133585083E+02  0.20121450967E+03  0.20488269159E+03  0.00000000000E+00 0. -1.
         13    1    3    3    0    0  0.42920114144E+02  0.17256053430E+02 -0.28237867541E+03  0.28614266355E+03  0.00000000000E+00 0. -1.
        -14    1    3    3    0    0  0.20676177660E+02 -0.23512556804E+02 -0.97384481554E+03  0.97434802273E+03  0.00000000000E+00 0.  1.
          5    1    4    4  501    0 -0.54670372943E+02  0.24879539626E+02  0.55853350780E+02  0.82127403240E+02  0.41800000000E+01 0.  1.
         -5    1    4    4    0  501 -0.24786659680E+01  0.67397705721E+01 -0.58428275878E+02  0.59016134356E+02  0.41800000000E+01 0.  1.
</event>
<event>
11    1  0.8453735E-009  0.1387573E+03  0.7561462E-02  0.1108954E+00
         22   -1    0    0    0    0  0.00000000000E+00  0.00000000000E+00  0.33935778834E+03  0.33935778834E+03  0.00000000000E+00 0.  1.
         22   -1    0    0    0    0 -0.00000000000E+00 -0.00000000000E+00 -0.44303290593E+03  0.44303290593E+03  0.00000000000E+00 0. -1.
        -24    2    1    2    0    0 -0.24475881562E+02 -0.37730174718E+02 -0.36295169063E+03  0.37575323973E+03  0.86220256182E+02 0.  0.
         25    2    1    2    0    0  0.80335982662E+02  0.22486331312E+02  0.25163505007E+02  0.15244733611E+03  0.12508990006E+03 0.  0.
         24    2    1    2    0    0 -0.55860101100E+02  0.15243843407E+02  0.23411306803E+03  0.25419011843E+03  0.80317881108E+02 0.  0.
        -13    1    5    5    0    0 -0.47490835051E+02  0.46561651343E+02  0.16236464116E+03  0.17545838107E+03  0.00000000000E+00 0.  1.
         14    1    5    5    0    0 -0.83692660496E+01 -0.31317807937E+02  0.71748426874E+02  0.78731737356E+02  0.00000000000E+00 0. -1.
         13    1    3    3    0    0 -0.45662068794E+02 -0.53479166606E+02 -0.24560124717E+03  0.25547019083E+03  0.00000000000E+00 0. -1.
        -14    1    3    3    0    0  0.21186187233E+02  0.15748991887E+02 -0.11735044346E+03  0.12028304891E+03  0.00000000000E+00 0.  1.
          5    1    4    4  501    0 -0.92953311512E+00 -0.31118773809E+02 -0.27442844576E+02  0.41711200338E+02  0.41800000000E+01 0.  1.
         -5    1    4    4    0  501  0.81265515777E+02  0.53605105121E+02  0.52606349583E+02  0.11073613577E+03  0.41800000000E+01 0.  1.
</event>
<event>
11    1  0.8453735E-009  0.1494530E+03  0.7561462E-02  0.1097439E+00
         22   -1    0    0    0    0  0.00000000000E+00  0.00000000000E+00  0.18216781874E+04  0.18216781874E+04  0.00000000000E+00 0.  1.
         22   -1    0    0    0    0 -0.00000000000E+00 -0.00000000000E+00 -0.18061333570E+04  0.18061333570E+04  0.00000000000E+00 0. -1.
         24    2    1    2    0    0  0.81847374489E+02 -0.19089732286E+01 -0.17879950286E+04  0.17916450872E+04  0.79770039532E+02 0.  0.
         25    2    1    2    0    0 -0.67136347094E+02 -0.11909824355E+02  0.31009824906E+03  0.34125842236E+03  0.12508898331E+03 0.  0.
        -24    2    1    2    0    0 -0.14711027395E+02  0.13818797584E+02  0.14934416099E+04  0.14949080349E+04  0.63046149341E+02 0.  0.
        -13    1    3    3    0    0  0.44909172161E+02 -0.24006542503E+02 -0.43578767316E+03  0.43875282780E+03  0.00000000000E+00 0.  1.
         14    1    3    3    0    0  0.36938202328E+02  0.22097569274E+02 -0.13522073555E+04  0.13528922594E+04  0.00000000000E+00 0. -1.
         13    1    5    5    0    0 -0.77077531239E+00  0.12650517991E+02  0.56737478968E+02  0.58135799811E+02  0.00000000000E+00 0. -1.
        -14    1    5    5    0    0 -0.13940252083E+02  0.11682795931E+01  0.14367041310E+04  0.14367722351E+04  0.00000000000E+00 0.  1.
          5    1    4    4  501    0 -0.28232244939E+02 -0.50219108211E+02  0.26226081213E+03  0.26854650335E+03  0.41800000000E+01 0. -1.
         -5    1    4    4    0  501 -0.38904102155E+02  0.38309283856E+02  0.47837436926E+02  0.72711919007E+02  0.41800000000E+01 0. -1.
</event>
<event>
11    1  0.8453735E-009  0.2397381E+03  0.7561462E-02  0.1029512E+00
         22   -1    0    0    0    0  0.00000000000E+00  0.00000000000E+00  0.31510923000E+03  0.31510923000E+03  0.00000000000E+00 0.  1.
         22   -1    0    0    0    0 -0.00000000000E+00 -0.00000000000E+00 -0.37342658116E+03  0.37342658116E+03  0.00000000000E+00 0.  1.
         24    2    1    2    0    0 -0.42023665676E+02  0.10531756284E+03 -0.10109571223E+03  0.17338758747E+03  0.83577119718E+02 0.  0.
         25    2    1    2    0    0  0.19276427218E+03 -0.20011794913E+03 -0.33862880219E+02  0.30659312110E+03  0.12508952417E+03 0.  0.
        -24    2    1    2    0    0 -0.15074060650E+03  0.94800386292E+02  0.76641241286E+02  0.20855510259E+03  0.76886326864E+02 0.  0.
        -13    1    3    3    0    0 -0.54003840823E+02  0.95672260188E+02 -0.51258980184E+02  0.12123151093E+03  0.00000000000E+00 0.  1.
         14    1    3    3    0    0  0.11980175147E+02  0.96453026518E+01 -0.49836732041E+02  0.52156076543E+02  0.00000000000E+00 0. -1.
         11    1    5    5    0    0  0.29507037786E+01 -0.73418244557E+01 -0.16733401652E+01  0.80875896555E+01  0.00000000000E+00 0. -1.
        -12    1    5    5    0    0 -0.15369131028E+03  0.10214221075E+03  0.78314581452E+02  0.20046751293E+03  0.00000000000E+00 0.  1.
          5    1    4    4  501    0  0.19700304025E+03 -0.17861063397E+03  0.10553755422E+00  0.26595007045E+03  0.41800000000E+01 0. -1.
         -5    1    4    4    0  501 -0.42387680692E+01 -0.21507315157E+02 -0.33968417773E+02  0.40643050648E+02  0.41800000000E+01 0. -1.
</event>
<event>
11    1  0.8453735E-009  0.2413251E+03  0.7561462E-02  0.1028625E+00
         22   -1    0    0    0    0  0.00000000000E+00  0.00000000000E+00  0.16505292912E+04  0.16505292912E+04  0.00000000000E+00 0.  1.
         22   -1    0    0    0    0 -0.00000000000E+00 -0.00000000000E+00 -0.64794754082E+03  0.64794754082E+03  0.00000000000E+00 0. -1.
         24    2    1    2    0    0  0.15998067283E+02  0.10912346884E+02 -0.54593620317E+03  0.55227137040E+03  0.81131443733E+02 0.  0.
         25    2    1    2    0    0  0.13110824625E+03 -0.15608913138E+03  0.67257947550E+02  0.24844289458E+03  0.12508817367E+03 0.  0.
        -24    2    1    2    0    0 -0.14710631353E+03  0.14517678450E+03  0.14812600060E+04  0.14977625671E+04  0.80280356313E+02 0.  0.
        -11    1    3    3    0    0 -0.21127936965E+02  0.90257130229E+01 -0.50942245585E+02  0.55883500259E+02  0.00000000000E+00 0.  1.
         12    1    3    3    0    0  0.37126004248E+02  0.18866338616E+01 -0.49499395758E+03  0.49638787014E+03  0.00000000000E+00 0. -1.
         13    1    5    5    0    0 -0.10415682728E+03  0.11079566562E+03  0.80278150748E+03  0.81705720298E+03  0.00000000000E+00 0. -1.
        -14    1    5    5    0    0 -0.42949486250E+02  0.34381118879E+02  0.67847849855E+03  0.68070536409E+03  0.00000000000E+00 0.  1.
          5    1    4    4  501    0 -0.17024939308E+02  0.55061250624E+00 -0.90135966183E+01  0.19719763096E+02  0.41800000000E+01 0.  1.
         -5    1    4    4    0  501  0.14813318555E+03 -0.15663974389E+03  0.76271544169E+02  0.22872313149E+03  0.41800000000E+01 0.  1.
</event>
<event>
11    1  0.8453735E-009  0.1346142E+03  0.7561462E-02  0.1113726E+00
         22   -1    0    0    0    0  0.00000000000E+00  0.00000000000E+00  0.58321544446E+03  0.58321544446E+03  0.00000000000E+00 0. -1.
         22   -1    0    0    0    0 -0.00000000000E+00 -0.00000000000E+00 -0.16337443283E+03  0.16337443283E+03  0.00000000000E+00 0.  1.
         24    2    1    2    0    0 -0.15274393326E+01  0.51329442272E+02 -0.25841480889E+02  0.10013902813E+03  0.81993890658E+02 0.  0.
         25    2    1    2    0    0  0.46572379338E+02 -0.69800675973E+02 -0.36229156198E+02  0.15492237263E+03  0.12508904388E+03 0.  0.
        -24    2    1    2    0    0 -0.45044940005E+02  0.18471233701E+02  0.48191164871E+03  0.49152847653E+03  0.83613234507E+02 0.  0.
        -13    1    3    3    0    0 -0.19832879251E+02 -0.75949945038E+01 -0.31702925026E+02  0.38158911097E+02  0.00000000000E+00 0.  1.
         14    1    3    3    0    0  0.18305439918E+02  0.58924436776E+02  0.58614441371E+01  0.61980117032E+02  0.00000000000E+00 0. -1.
         11    1    5    5    0    0 -0.19910089046E+01  0.17779468447E+02  0.38576947137E+03  0.38618409944E+03  0.00000000000E+00 0. -1.
        -12    1    5    5    0    0 -0.43053931101E+02  0.69176525427E+00  0.96142177339E+02  0.10534437710E+03  0.00000000000E+00 0.  1.
          5    1    4    4  501    0  0.18530371435E+01 -0.96470103140E+02 -0.34833506022E+02  0.10266820388E+03  0.41800000000E+01 0.  1.
         -5    1    4    4    0  501  0.44719342194E+02  0.26669427167E+02 -0.13956501760E+01  0.52254168744E+02  0.41800000000E+01 0.  1.
</event>
<event>
11    1  0.8453735E-009  0.1474410E+03  0.7561462E-02  0.1099523E+00
         22   -1    0    0    0    0  0.00000000000E+00  0.00000000000E+00  0.14736445980E+04  0.14736445980E+04  0.00000000000E+00 0.  1.
         22   -1    0    0    0    0 -0.00000000000E+00 -0.00000000000E+00 -0.29646509210E+03  0.29646509210E+03  0.00000000000E+00 0. -1.
        -24    2    1    2    0    0 -0.31397474025E+02 -0.71983672105E+02 -0.25878377449E+03  0.28336630855E+03  0.84616620430E+02 0.  0.
         25    2    1    2    0    0  0.54753414071E+01  0.72871823483E+02  0.19460432510E+03  0.24261177696E+03  0.12509735788E+03 0.  0.
         24    2    1    2    0    0  0.25922132618E+02 -0.88815137777E+00  0.12413589553E+04  0.12441316046E+04  0.78858404055E+02 0.  0.
        -11    1    5    5    0    0  0.34303109103E+02 -0.19502729617E+02  0.30398482816E+03  0.30653521088E+03  0.00000000000E+00 0.  1.
         12    1    5    5    0    0 -0.83809764850E+01  0.18614578239E+02  0.93737412711E+03  0.93759639369E+03  0.00000000000E+00 0. -1.
         11    1    3    3    0    0 -0.46923151985E+02 -0.40558156032E+02 -0.22937288044E+03  0.23761032068E+03  0.00000000000E+00 0. -1.
        -12    1    3    3    0    0  0.15525677959E+02 -0.31425516073E+02 -0.29410894057E+02  0.45755987869E+02  0.00000000000E+00 0.  1.
          5    1    4    4  501    0 -0.19291137842E+02  0.43526015792E+02  0.38073008133E+01  0.47944029758E+02  0.41800000000E+01 0.  1.
         -5    1    4    4    0  501  0.24766479249E+02  0.29345807691E+02  0.19079702428E+03  0.19466774720E+03  0.41800000000E+01 0.  1.
</event>
<event>
11    1  0.8453735E-009  0.1492467E+03  0.7561462E-02  0.1097651E+00
         22   -1    0    0    0    0  0.00000000000E+00  0.00000000000E+00  0.23855494704E+04  0.23855494704E+04  0.00000000000E+00 0.  1.
         22   -1    0    0    0    0 -0.00000000000E+00 -0.00000000000E+00 -0.23939208956E+03  0.23939208956E+03  0.00000000000E+00 0.  1.
        -24    2    1    2    0    0  0.81624077754E+02  0.16359440258E+02 -0.20699714118E+03  0.23742683390E+03  0.81200761340E+02 0.  0.
         25    2    1    2    0    0  0.78628939457E+01 -0.15700388442E+02  0.24223293302E+03  0.27318956867E+03  0.12508964503E+03 0.  0.
         24    2    1    2    0    0 -0.89486971699E+02 -0.65905181584E+00  0.21109215891E+04  0.21143251574E+04  0.79828339317E+02 0.  0.
        -11    1    5    5    0    0 -0.96491210945E+02 -0.20703631361E+02  0.17370039721E+04  0.17398051596E+04  0.00000000000E+00 0.  1.
         12    1    5    5    0    0  0.70042392461E+01  0.20044579545E+02  0.37391761696E+03  0.37451999788E+03  0.00000000000E+00 0. -1.
         13    1    3    3    0    0  0.43460885833E+02  0.41243974067E+02 -0.16470063277E+03  0.17526041319E+03  0.00000000000E+00 0. -1.
        -14    1    3    3    0    0  0.38163191920E+02 -0.24884533809E+02 -0.42296508410E+02  0.62166420712E+02  0.00000000000E+00 0.  1.
          5    1    4    4  501    0  0.23514613867E+02 -0.14774912740E+02 -0.22451826808E+01  0.28173540017E+02  0.41800000000E+01 0. -1.
         -5    1    4    4    0  501 -0.15651719921E+02 -0.92547570171E+00  0.24447811570E+03  0.24501602865E+03  0.41800000000E+01 0. -1.
</event>
<event>
11    1  0.8453735E-009  0.1362470E+03  0.7561462E-02  0.1111823E+00
         22   -1    0    0    0    0  0.00000000000E+00  0.00000000000E+00  0.93997176033E+03  0.93997176033E+03  0.00000000000E+00 0. -1.
         22   -1    0    0    0    0 -0.00000000000E+00 -0.00000000000E+00 -0.79523828610E+03  0.79523828610E+03  0.00000000000E+00 0.  1.
         24    2    1    2    0    0 -0.35094964492E+02 -0.41328995761E+02 -0.72808200264E+03  0.73692661430E+03  0.10008841029E+03 0.  0.
         25    2    1    2    0    0  0.25486147371E+02  0.43553420336E+02  0.13981565112E+02  0.13561899859E+03  0.12510229608E+03 0.  0.
        -24    2    1    2    0    0  0.96088171204E+01 -0.22244245749E+01  0.85883391176E+03  0.86266443353E+03  0.80603718659E+02 0.  0.
        -11    1    3    3    0    0 -0.40180493224E+01  0.31145578922E+02 -0.30026997967E+03  0.30190768870E+03  0.00000000000E+00 0.  1.
         12    1    3    3    0    0 -0.31076915169E+02 -0.72474574683E+02 -0.42781202297E+03  0.43501892560E+03  0.00000000000E+00 0. -1.
         13    1    5    5    0    0  0.44434298071E+02 -0.51322560946E+01  0.56286493898E+03  0.56463943046E+03  0.00000000000E+00 0. -1.
        -14    1    5    5    0    0 -0.34825480951E+02  0.29078315197E+01  0.29596897278E+03  0.29802500307E+03  0.00000000000E+00 0.  1.
          5    1    4    4  501    0  0.10598302924E+02  0.86756896118E+02 -0.49173639554E+00  0.87503127108E+02  0.41800000000E+01 0.  1.
         -5    1    4    4    0  501  0.14887844447E+02 -0.43203475782E+02  0.14473301507E+02  0.48115871482E+02  0.41800000000E+01 0.  1.
</event>
<event>
11    1  0.8453735E-009  0.1766174E+03  0.7561462E-02  0.1072412E+00
         22   -1    0    0    0    0  0.00000000000E+00  0.00000000000E+00  0.11707868271E+04  0.11707868271E+04  0.00000000000E+00 0. -1.
         22   -1    0    0    0    0 -0.00000000000E+00 -0.00000000000E+00 -0.76344232963E+03  0.76344232963E+03  0.00000000000E+00 0. -1.
        -24    2    1    2    0    0  0.86933463009E+02 -0.37749011567E+02 -0.72536209079E+03  0.73594249427E+03  0.80490851987E+02 0.  0.
         25    2    1    2    0    0 -0.10898668279E+03  0.14539327928E+03  0.46681440265E+03  0.51631386867E+03  0.12508805607E+03 0.  0.
         24    2    1    2    0    0  0.22053219778E+02 -0.10764426771E+03  0.66589218563E+03  0.68197279382E+03  0.97983956627E+02 0.  0.
        -13    1    5    5    0    0  0.40530224200E+02 -0.36668562319E+01  0.15289714797E+03  0.15822036141E+03  0.00000000000E+00 0.  1.
         14    1    5    5    0    0 -0.18477004422E+02 -0.10397741148E+03  0.51299503766E+03  0.52375243241E+03  0.00000000000E+00 0. -1.
         11    1    3    3    0    0  0.91384986500E+02 -0.54714095335E+02 -0.60399689949E+03  0.61331647832E+03  0.00000000000E+00 0. -1.
        -12    1    3    3    0    0 -0.44515234904E+01  0.16965083768E+02 -0.12136519130E+03  0.12262601595E+03  0.00000000000E+00 0.  1.
          5    1    4    4  501    0 -0.11149994388E+03  0.45666510213E+02  0.24458065703E+03  0.27268083510E+03  0.41800000000E+01 0. -1.
         -5    1    4    4    0  501  0.25132610959E+01  0.99726769063E+02  0.22223374563E+03  0.24363303357E+03  0.41800000000E+01 0. -1.
</event>
<event>
11    1  0.8453735E-009  0.3466281E+03  0.7561462E-02  0.9821850E-01
         22   -1    0    0    0    0  0.00000000000E+00  0.00000000000E+00  0.21195423369E+04  0.21195423369E+04  0.00000000000E+00 0. -1.
         22   -1    0    0    0    0 -0.00000000000E+00 -0.00000000000E+00 -0.86220521347E+03  0.86220521347E+03  0.00000000000E+00 0.  1.
        -24    2    1    2    0    0 -0.46660945457E+02 -0.31787482404E+03 -0.78567198339E+03  0.85250872499E+03  0.79177099707E+02 0.  0.
         25    2    1    2    0    0 -0.35468129842E+02  0.42379853057E+03  0.14991528278E+04  0.15633198641E+04  0.12508642440E+03 0.  0.
         24    2    1    2    0    0  0.82129075298E+02 -0.10592370653E+03  0.54385627902E+03  0.56591896131E+03  0.80744051927E+02 0.  0.
        -11    1    5    5    0    0  0.14298452601E+02 -0.33550943132E+02  0.30661661064E+03  0.30877800675E+03  0.00000000000E+00 0.  1.
         12    1    5    5    0    0  0.67830622697E+02 -0.72372763396E+02  0.23723966838E+03  0.25714095456E+03  0.00000000000E+00 0. -1.
         13    1    3    3    0    0 -0.16176898062E+02 -0.13762163538E+03 -0.24126323276E+03  0.27822536556E+03  0.00000000000E+00 0. -1.
        -14    1    3    3    0    0 -0.30484047395E+02 -0.18025318865E+03 -0.54440875062E+03  0.57428335943E+03  0.00000000000E+00 0.  1.
          5    1    4    4  501    0  0.63582264221E+01  0.28399094844E+03  0.11561211667E+04  0.11905145570E+04  0.41800000000E+01 0.  1.
         -5    1    4    4    0  501 -0.41826356264E+02  0.13980758212E+03  0.34303166111E+03  0.37280530712E+03  0.41800000000E+01 0.  1.
</event>
<event>
11    1  0.8453735E-009  0.2894282E+03  0.7561462E-02  0.1004767E+00
         22   -1    0    0    0    0  0.00000000000E+00  0.00000000000E+00  0.13082279251E+04  0.13082279251E+04  0.00000000000E+00 0. -1.
         22   -1    0    0    0    0 -0.00000000000E+00 -0.00000000000E+00 -0.24827458986E+03  0.24827458986E+03  0.00000000000E+00 0.  1.
         24    2    1    2    0    0 -0.19613495625E+01 -0.91609686368E+02 -0.11730910009E+03  0.16784345914E+03  0.77548825152E+02 0.  0.
         25    2    1    2    0    0 -0.10812049062E+03  0.31263233386E+03  0.26994631059E+03  0.44491096321E+03  0.12508292417E+03 0.  0.
        -24    2    1    2    0    0  0.11008184018E+03 -0.22102264749E+03  0.90731612472E+03  0.94374809259E+03  0.80429409120E+02 0.  0.
        -11    1    3    3    0    0  0.13303113117E+02 -0.10115879668E+03 -0.99078101571E+02  0.14222005898E+03  0.00000000000E+00 0.  1.
         12    1    3    3    0    0 -0.15264462680E+02  0.95491103140E+01 -0.18230998519E+02  0.25623400159E+02  0.00000000000E+00 0. -1.
         11    1    5    5    0    0  0.56812277888E+02 -0.18284413720E+03  0.73054277926E+03  0.75521676740E+03  0.00000000000E+00 0. -1.
        -12    1    5    5    0    0  0.53269562291E+02 -0.38178510294E+02  0.17677334545E+03  0.18853132519E+03  0.00000000000E+00 0.  1.
          5    1    4    4  501    0  0.26137630363E+02  0.25956752762E+02  0.28745701176E+02  0.46911794583E+02  0.41800000000E+01 0.  1.
         -5    1    4    4    0  501 -0.13425812098E+03  0.28667558110E+03  0.24120060941E+03  0.39799916862E+03  0.41800000000E+01 0.  1.
</event>
<event>
11    1  0.8453735E-009  0.1460607E+03  0.7561462E-02  0.1100973E+00
         22   -1    0    0    0    0  0.00000000000E+00  0.00000000000E+00  0.54514270246E+03  0.54514270246E+03  0.00000000000E+00 0.  1.
         22   -1    0    0    0    0 -0.00000000000E+00 -0.00000000000E+00 -0.11271344843E+04  0.11271344843E+04  0.00000000000E+00 0. -1.
        -24    2    1    2    0    0 -0.75054261856E+02  0.64098889252E+01 -0.10742045978E+04  0.10798646074E+04  0.80733038541E+02 0.  0.
         25    2    1    2    0    0  0.82833528120E+02  0.41761512699E+02  0.91574620897E+02  0.18066162203E+03  0.12508914085E+03 0.  0.
         24    2    1    2    0    0 -0.77792662637E+01 -0.48171401625E+02  0.40063819511E+03  0.41175095727E+03  0.81528439886E+02 0.  0.
        -11    1    5    5    0    0  0.67890214269E+01 -0.43343578234E+02  0.39137172537E+03  0.39382303640E+03  0.00000000000E+00 0.  1.
         12    1    5    5    0    0 -0.14568287691E+02 -0.48278233909E+01  0.92664697436E+01  0.17927920862E+02  0.00000000000E+00 0. -1.
         11    1    3    3    0    0 -0.92225641181E+02  0.99466675038E+01 -0.92144536504E+03  0.92610262166E+03  0.00000000000E+00 0. -1.
        -12    1    3    3    0    0  0.17171379325E+02 -0.35367785786E+01 -0.15275923275E+03  0.15376198575E+03  0.00000000000E+00 0.  1.
          5    1    4    4  501    0  0.26356984487E+02  0.33450405570E+02  0.11199414819E+03  0.11989070812E+03  0.41800000000E+01 0. -1.
         -5    1    4    4    0  501  0.56476543633E+02  0.83111071298E+01 -0.20419527298E+02  0.60770913911E+02  0.41800000000E+01 0. -1.
</event>
<event>
11    1  0.8453735E-009  0.5907296E+03  0.7561462E-02  0.9210904E-01
         22   -1    0    0    0    0  0.00000000000E+00  0.00000000000E+00  0.12640452714E+04  0.12640452714E+04  0.00000000000E+00 0. -1.
         22   -1    0    0    0    0 -0.00000000000E+00 -0.00000000000E+00 -0.87594431610E+03  0.87594431610E+03  0.00000000000E+00 0. -1.
        -24    2    1    2    0    0  0.12076805444E+03 -0.57191200908E+03 -0.62106341756E+03  0.85663262181E+03  0.80196078590E+02 0.  0.
         25    2    1    2    0    0 -0.15638764583E+03  0.52000302333E+03  0.45618194108E+03  0.72014999452E+03  0.12511519170E+03 0.  0.
         24    2    1    2    0    0  0.35619591397E+02  0.51908985744E+02  0.55298243183E+03  0.56320697122E+03  0.86308889581E+02 0.  0.
        -11    1    5    5    0    0 -0.19643647666E+02 -0.78070873282E+01  0.19246256841E+03  0.19361989501E+03  0.00000000000E+00 0.  1.
         12    1    5    5    0    0  0.55263239062E+02  0.59716073073E+02  0.36051986342E+03  0.36958707620E+03  0.00000000000E+00 0. -1.
         13    1    3    3    0    0  0.27584787889E+02 -0.31106095633E+03 -0.35023748482E+03  0.46923995445E+03  0.00000000000E+00 0. -1.
        -14    1    3    3    0    0  0.93183266546E+02 -0.26085105275E+03 -0.27082593274E+03  0.38739266736E+03  0.00000000000E+00 0.  1.
          5    1    4    4  501    0  0.10814390558E+01  0.78324396950E+02  0.11921004722E+03  0.14270384868E+03  0.41800000000E+01 0. -1.
         -5    1    4    4    0  501 -0.15746908489E+03  0.44167862638E+03  0.33697189385E+03  0.57744614584E+03  0.41800000000E+01 0. -1.
</event>
<event>
11    1  0.8453735E-009  0.1350644E+03  0.7561462E-02  0.1113198E+00
         22   -1    0    0    0    0  0.00000000000E+00  0.00000000000E+00  0.88753097787E+03  0.88753097787E+03  0.00000000000E+00 0. -1.
         22   -1    0    0    0    0 -0.00000000000E+00 -0.00000000000E+00 -0.31112701712E+03  0.31112701712E+03  0.00000000000E+00 0.  1.
        -24    2    1    2    0    0 -0.30222149517E+02 -0.30627411968E+02 -0.24795112492E+03  0.26443716357E+03  0.81214755092E+02 0.  0.
         25    2    1    2    0    0  0.77666670126E+02  0.14986380365E+02  0.52766889454E+02  0.15712217872E+03  0.12508529561E+03 0.  0.
         24    2    1    2    0    0 -0.47444520609E+02  0.15641031603E+02  0.77158819621E+03  0.77709865270E+03  0.77706802126E+02 0.  0.
        -13    1    5    5    0    0 -0.11048255265E+02 -0.81329103105E+01  0.19992864845E+02  0.24247119813E+02  0.00000000000E+00 0.  1.
         14    1    5    5    0    0 -0.36396265344E+02  0.23773941914E+02  0.75159533136E+03  0.75285153289E+03  0.00000000000E+00 0. -1.
         13    1    3    3    0    0  0.65628167212E-01  0.20140071723E+02 -0.18009139444E+02  0.27017696045E+02  0.00000000000E+00 0. -1.
        -14    1    3    3    0    0 -0.30287777684E+02 -0.50767483691E+02 -0.22994198547E+03  0.23741946753E+03  0.00000000000E+00 0.  1.
          5    1    4    4  501    0 -0.23149764716E+02  0.13364537324E+02 -0.19197950466E+02  0.33174631368E+02  0.41800000000E+01 0.  1.
         -5    1    4    4    0  501  0.10081643484E+03  0.16218430411E+01  0.71964839920E+02  0.12394754735E+03  0.41800000000E+01 0.  1.
</event>
<event>
11    1  0.8453735E-009  0.1389841E+03  0.7561462E-02  0.1108698E+00
         22   -1    0    0    0    0  0.00000000000E+00  0.00000000000E+00  0.34654935987E+03  0.34654935987E+03  0.00000000000E+00 0. -1.
         22   -1    0    0    0    0 -0.00000000000E+00 -0.00000000000E+00 -0.56661573480E+03  0.56661573480E+03  0.00000000000E+00 0. -1.
        -24    2    1    2    0    0 -0.45698117419E+01 -0.15862740362E+02 -0.47911394145E+03  0.48612751962E+03  0.80605748759E+02 0.  0.
         25    2    1    2    0    0 -0.23395788256E+02 -0.39887007749E+02 -0.15157949536E+02  0.13422175118E+03  0.12508948301E+03 0.  0.
         24    2    1    2    0    0  0.27965599998E+02  0.55749748111E+02  0.27420551606E+03  0.29281582387E+03  0.81623112361E+02 0.  0.
        -13    1    5    5    0    0 -0.82085909121E+01 -0.17343905083E+02  0.78209901494E+02  0.80529377869E+02  0.00000000000E+00 0.  1.
         14    1    5    5    0    0  0.36174190910E+02  0.73093653194E+02  0.19599561457E+03  0.21228644600E+03  0.00000000000E+00 0. -1.
         11    1    3    3    0    0  0.16241374246E+01 -0.93570114613E+01 -0.47674242637E+03  0.47683700841E+03  0.00000000000E+00 0. -1.
        -12    1    3    3    0    0 -0.61939491665E+01 -0.65057289009E+01 -0.23715150739E+01  0.92905112106E+01  0.00000000000E+00 0.  1.
          5    1    4    4  501    0  0.47427927475E+02  0.27762719242E+00 -0.21917259792E+02  0.52414922095E+02  0.41800000000E+01 0. -1.
         -5    1    4    4    0  501 -0.70823715731E+02 -0.40164634941E+02  0.67593102555E+01  0.81806829085E+02  0.41800000000E+01 0. -1.
</event>
<event>
11    1  0.8453735E-009  0.2389309E+03  0.7561462E-02  0.1029967E+00
         22   -1    0    0    0    0  0.00000000000E+00  0.00000000000E+00  0.31280456214E+03  0.31280456214E+03  0.00000000000E+00 0. -1.
         22   -1    0    0    0    0 -0.00000000000E+00 -0.00000000000E+00 -0.10445068659E+04  0.10445068659E+04  0.00000000000E+00 0.  1.
        -24    2    1    2    0    0 -0.10465252738E+03 -0.73868454882E+02 -0.55238357056E+03  0.57259510108E+03  0.79554010860E+02 0.  0.
         25    2    1    2    0    0  0.26549674658E+03  0.17820402647E+03 -0.37002405917E+03  0.50478830698E+03  0.12509289750E+03 0.  0.
         24    2    1    2    0    0 -0.16084421920E+03 -0.10433557158E+03  0.19070532597E+03  0.27992801997E+03  0.72349157988E+02 0.  0.
        -13    1    5    5    0    0 -0.70927227064E+02 -0.86451709968E+02  0.88319392946E+02  0.14249520997E+03  0.00000000000E+00 0.  1.
         14    1    5    5    0    0 -0.89916992138E+02 -0.17883861616E+02  0.10238593303E+03  0.13743281000E+03  0.00000000000E+00 0. -1.
         11    1    3    3    0    0 -0.37769108796E+02 -0.34506600167E+01 -0.61946891353E+02  0.72634908839E+02  0.00000000000E+00 0. -1.
        -12    1    3    3    0    0 -0.66883418584E+02 -0.70417794865E+02 -0.49043667920E+03  0.49996019224E+03  0.00000000000E+00 0.  1.
          5    1    4    4  501    0  0.51104523474E+02  0.14518862035E+02 -0.14162380922E+03  0.15131835782E+03  0.41800000000E+01 0.  1.
         -5    1    4    4    0  501  0.21439222311E+03  0.16368516443E+03 -0.22840024995E+03  0.35346994916E+03  0.41800000000E+01 0.  1.
</event>
<event>
11    1  0.8453735E-009  0.2104241E+03  0.7561462E-02  0.1047388E+00
         22   -1    0    0    0    0  0.00000000000E+00  0.00000000000E+00  0.52037495606E+03  0.52037495606E+03  0.00000000000E+00 0. -1.
         22   -1    0    0    0    0 -0.00000000000E+00 -0.00000000000E+00 -0.45661123095E+03  0.45661123095E+03  0.00000000000E+00 0.  1.
         24    2    1    2    0    0 -0.48152200448E+02  0.26455423933E+02 -0.35146623487E+03  0.36701959078E+03  0.90312468133E+02 0.  0.
         25    2    1    2    0    0  0.32502463761E+02 -0.18885509322E+03  0.10882049689E+03  0.25337297948E+03  0.12503323480E+03 0.  0.
        -24    2    1    2    0    0  0.15649736687E+02  0.16239966929E+03  0.30640946310E+03  0.35659361674E+03  0.81570102261E+02 0.  0.
        -13    1    3    3    0    0 -0.52875045048E+02 -0.41369378898E+01 -0.31387146838E+03  0.31832088104E+03  0.00000000000E+00 0.  1.
         14    1    3    3    0    0  0.47228446003E+01  0.30592361823E+02 -0.37594766495E+02  0.48698709745E+02  0.00000000000E+00 0. -1.
         13    1    5    5    0    0  0.34897663888E+02  0.14702619684E+03  0.22114970402E+03  0.26784648792E+03  0.00000000000E+00 0. -1.
        -14    1    5    5    0    0 -0.19247927200E+02  0.15373472447E+02  0.85259759080E+02  0.88747128826E+02  0.00000000000E+00 0.  1.
          5    1    4    4  501    0  0.19541255453E+02 -0.20206256453E+03  0.11508431176E+03  0.23339454120E+03  0.41800000000E+01 0.  1.
         -5    1    4    4    0  501  0.12961208308E+02  0.13207471312E+02 -0.62638148764E+01  0.19978438279E+02  0.41800000000E+01 0.  1.
</event>
<event>
11    1  0.8453735E-009  0.2373632E+03  0.7561462E-02  0.1030855E+00
         22   -1    0    0    0    0  0.00000000000E+00  0.00000000000E+00  0.48081089988E+03  0.48081089988E+03  0.00000000000E+00 0. -1.
         22   -1    0    0    0    0 -0.00000000000E+00 -0.00000000000E+00 -0.64250837548E+03  0.64250837548E+03  0.00000000000E+00 0.  1.
         24    2    1    2    0    0  0.84899853601E+02 -0.26333314009E+02 -0.21298358077E+03  0.24660606917E+03  0.86897175478E+02 0.  0.
         25    2    1    2    0    0 -0.17978410296E+03 -0.15028916448E+03 -0.33897584334E+03  0.43065081393E+03  0.12508534900E+03 0.  0.
        -24    2    1    2    0    0  0.94884249357E+02  0.17662247849E+03  0.39026194852E+03  0.44606239225E+03  0.80428531227E+02 0.  0.
        -11    1    3    3    0    0  0.33568271011E+02  0.30683240727E+02 -0.10208275964E+03  0.11175499942E+03  0.00000000000E+00 0.  1.
         12    1    3    3    0    0  0.51331582590E+02 -0.57016554736E+02 -0.11090082114E+03  0.13485106976E+03  0.00000000000E+00 0. -1.
         11    1    5    5    0    0  0.10135042965E+03  0.11697589167E+03  0.25867175642E+03  0.30144045248E+03  0.00000000000E+00 0. -1.
        -12    1    5    5    0    0 -0.64661802892E+01  0.59646586826E+02  0.13159019210E+03  0.14462193978E+03  0.00000000000E+00 0.  1.
          5    1    4    4  501    0 -0.91681240066E+02 -0.32458324255E+02 -0.57620398310E+02  0.11312194878E+03  0.41800000000E+01 0. -1.
         -5    1    4    4    0  501 -0.88102862892E+02 -0.11783084023E+03 -0.28135544503E+03  0.31752886516E+03  0.41800000000E+01 0. -1.
</event>
<event>
11    1  0.8453735E-009  0.5150362E+03  0.7561462E-02  0.9360536E-01
         22   -1    0    0    0    0  0.00000000000E+00  0.00000000000E+00  0.91780885083E+03  0.91780885083E+03  0.00000000000E+00 0. -1.
         22   -1    0    0    0    0 -0.00000000000E+00 -0.00000000000E+00 -0.38667427553E+03  0.38667427553E+03  0.00000000000E+00 0. -1.
        -24    2    1    2    0    0  0.10256945257E+03 -0.48824242183E+03  0.99905045463E+02  0.51204237330E+03  0.57491032942E+02 0.  0.
         25    2    1    2    0    0 -0.12150726911E+03  0.48575080324E+03  0.21225158700E+03  0.55804611750E+03  0.12508746452E+03 0.  0.
         24    2    1    2    0    0  0.18937816539E+02  0.24916185954E+01  0.21897794284E+03  0.23439463556E+03  0.81391993885E+02 0.  0.
        -13    1    5    5    0    0  0.22602714457E+02  0.39631144213E+02  0.10565574915E+03  0.11508539273E+03  0.00000000000E+00 0.  1.
         14    1    5    5    0    0 -0.36648979183E+01 -0.37139525618E+02  0.11332219370E+03  0.11930924283E+03  0.00000000000E+00 0. -1.
         11    1    3    3    0    0  0.99335005851E+02 -0.43001626293E+03  0.71208350418E+02  0.44704816177E+03  0.00000000000E+00 0. -1.
        -12    1    3    3    0    0  0.32344467189E+01 -0.58226158905E+02  0.28696695045E+02  0.64994211533E+02  0.00000000000E+00 0.  1.
          5    1    4    4  501    0 -0.23057877952E+02  0.90033658040E+02  0.96707287888E+02  0.13419201633E+03  0.41800000000E+01 0.  1.
         -5    1    4    4    0  501 -0.98449391156E+02  0.39571714520E+03  0.11554429911E+03  0.42385410117E+03  0.41800000000E+01 0.  1.
</event>
<event>
11    1  0.8453735E-009  0.1660220E+03  0.7561462E-02  0.1081546E+00
         22   -1    0    0    0    0  0.00000000000E+00  0.00000000000E+00  0.30999648527E+03  0.30999648527E+03  0.00000000000E+00 0. -1.
         22   -1    0    0    0    0 -0.00000000000E+00 -0.00000000000E+00 -0.13361685035E+03  0.13361685035E+03  0.00000000000E+00 0. -1.
         24    2    1    2    0    0  0.87841448606E+02  0.80941640557E+02  0.49495625667E+01  0.14414138592E+03  0.80526838364E+02 0.  0.
         25    2    1    2    0    0 -0.81422719910E+02 -0.45280814877E+02  0.81672625293E+02  0.17606417633E+03  0.12509262549E+03 0.  0.
        -24    2    1    2    0    0 -0.64187286965E+01 -0.35660825680E+02  0.89757447068E+02  0.12340777336E+03  0.76551842932E+02 0.  0.
        -13    1    3    3    0    0 -0.11819431599E+02  0.21724192263E+02 -0.11101583211E+02  0.27108755830E+02  0.00000000000E+00 0.  1.
         14    1    3    3    0    0  0.99660880206E+02  0.59217448294E+02  0.16051145778E+02  0.11703263009E+03  0.00000000000E+00 0. -1.
         13    1    5    5    0    0  0.15142270278E+02  0.24853568630E+01  0.75922466300E+02  0.77457641567E+02  0.00000000000E+00 0. -1.
        -14    1    5    5    0    0 -0.21560998975E+02 -0.38146182543E+02  0.13834980767E+02  0.45950131797E+02  0.00000000000E+00 0.  1.
          5    1    4    4  501    0 -0.97856547943E+02 -0.72678585364E+02  0.53190263484E+02  0.13305922469E+03  0.41800000000E+01 0. -1.
         -5    1    4    4    0  501  0.16433828033E+02  0.27397770486E+02  0.28482361809E+02  0.43004951641E+02  0.41800000000E+01 0. -1.
</event>
<event>
11    1  0.8453735E-009  0.2757933E+03  0.7561462E-02  0.1010991E+00
         22   -1    0    0    0    0  0.00000000000E+00  0.00000000000E+00  0.15334196638E+04  0.15334196638E+04  0.00000000000E+00 0.  1.
         22   -1    0    0    0    0 -0.00000000000E+00 -0.00000000000E+00 -0.13061313863E+04  0.13061313863E+04  0.00000000000E+00 0.  1.
        -24    2    1    2    0    0  0.22119173371E+03 -0.10830382608E+03 -0.12323434396E+04  0.12593436159E+04  0.81366381328E+02 0.  0.
         25    2    1    2    0    0 -0.24668257496E+03  0.26056959180E+02  0.27882882233E+03  0.39360457280E+03  0.12509112541E+03 0.  0.
         24    2    1    2    0    0  0.25490841251E+02  0.82246866903E+02  0.11808028948E+04  0.11866028614E+04  0.79476690433E+02 0.  0.
        -11    1    5    5    0    0  0.10259446508E+02  0.74099244855E+02  0.11378556209E+04  0.11403119610E+04  0.00000000000E+00 0.  1.
         12    1    5    5    0    0  0.15231394743E+02  0.81476220478E+01  0.42947273883E+02  0.46290900454E+02  0.00000000000E+00 0. -1.
         11    1    3    3    0    0  0.42976854583E+02 -0.61183510118E+02 -0.33021138427E+03  0.33857051000E+03  0.00000000000E+00 0. -1.
        -12    1    3    3    0    0  0.17821487913E+03 -0.47120315964E+02 -0.90213205531E+03  0.92077310589E+03  0.00000000000E+00 0.  1.
          5    1    4    4  501    0 -0.69804808277E+02  0.49127313155E+02  0.15307888217E+03  0.17531919668E+03  0.41800000000E+01 0.  1.
         -5    1    4    4    0  501 -0.17687776668E+03 -0.23070353976E+02  0.12574994016E+03  0.21828537612E+03  0.41800000000E+01 0.  1.
</event>
<event>
11    1  0.9688254E-009  0.1546795E+03  0.7561462E-02  0.1092191E+00
         22   -1    0    0    0    0  0.00000000000E+00  0.00000000000E+00  0.67975251378E+03  0.67975251378E+03  0.00000000000E+00 0. -1.
         22   -1    0    0    0    0 -0.00000000000E+00 -0.00000000000E+00 -0.45874609616E+03  0.45874609616E+03  0.00000000000E+00 0. -1.
        -24    2    1    2    0    0  0.34404352687E+02  0.84851927308E+02 -0.33475075272E+03  0.35483971317E+03  0.73957058776E+02 0.  0.
         25    2    1    2    0    0 -0.12088713417E+03 -0.58441847366E+02 -0.29743898707E+02  0.18590207765E+03  0.12508290944E+03 0.  0.
         24    2    1    2    0    0  0.86482781481E+02 -0.26410079942E+02  0.58550106905E+03  0.59775681911E+03  0.79529548767E+02 0.  0.
        -11    1    5    5    0    0  0.42268523547E+02  0.26997629560E+02  0.20981319117E+03  0.21572453563E+03  0.00000000000E+00 0.  1.
         12    1    5    5    0    0  0.44214257934E+02 -0.53407709502E+02  0.37568787787E+03  0.38203228348E+03  0.00000000000E+00 0. -1.
         11    1    3    3    0    0  0.66800870364E+01  0.88062893875E+02 -0.22817812618E+03  0.24467315772E+03  0.00000000000E+00 0. -1.
        -12    1    3    3    0    0  0.27724265650E+02 -0.32109665673E+01 -0.10657262654E+03  0.11016655545E+03  0.00000000000E+00 0.  1.
          5    1    4    4  501    0  0.38893100815E+01 -0.27173243495E+02  0.32660467437E+02  0.42868291640E+02  0.41800000000E+01 0. -1.
         -5    1    4    4    0  501 -0.12477644425E+03 -0.31268603871E+02 -0.62404366144E+02  0.14303378601E+03  0.41800000000E+01 0. -1.
</event>
<event>
11    1  0.8453735E-009  0.1775830E+03  0.7561462E-02  0.1071615E+00
         22   -1    0    0    0    0  0.00000000000E+00  0.00000000000E+00  0.38944352965E+03  0.38944352965E+03  0.00000000000E+00 0. -1.
         22   -1    0    0    0    0 -0.00000000000E+00 -0.00000000000E+00 -0.11615976234E+04  0.11615976234E+04  0.00000000000E+00 0.  1.
        -24    2    1    2    0    0  0.40786862154E+02  0.65657893979E+01 -0.62421636180E+03  0.63076908614E+03  0.80727293829E+02 0.  0.
         25    2    1    2    0    0 -0.74663116227E+02  0.11469869276E+03 -0.50222003643E+03  0.53535353751E+03  0.12509226230E+03 0.  0.
         24    2    1    2    0    0  0.33876254073E+02 -0.12126448216E+03  0.35428230446E+03  0.38491852943E+03  0.82423587753E+02 0.  0.
        -13    1    5    5    0    0 -0.61175277718E+01 -0.53782512646E+01 -0.17841176163E+01  0.83386334836E+01  0.00000000000E+00 0.  1.
         14    1    5    5    0    0  0.39993781845E+02 -0.11588623089E+03  0.35606642208E+03  0.37657989594E+03  0.00000000000E+00 0. -1.
         11    1    3    3    0    0  0.17346673925E+02  0.14077548575E+02 -0.38325028766E+02  0.44360932137E+02  0.00000000000E+00 0. -1.
        -12    1    3    3    0    0  0.23440188229E+02 -0.75117591768E+01 -0.58589133304E+03  0.58640815400E+03  0.00000000000E+00 0.  1.
          5    1    4    4  501    0 -0.82827528930E+02  0.38166707188E+02 -0.38035561545E+03  0.39115848922E+03  0.41800000000E+01 0. -1.
         -5    1    4    4    0  501  0.81644127029E+01  0.76531985571E+02 -0.12186442098E+03  0.14419504829E+03  0.41800000000E+01 0. -1.
</event>
<event>
11    1  0.8453735E-009  0.2534629E+03  0.7561462E-02  0.1022070E+00
         22   -1    0    0    0    0  0.00000000000E+00  0.00000000000E+00  0.17107500222E+04  0.17107500222E+04  0.00000000000E+00 0. -1.
         22   -1    0    0    0    0 -0.00000000000E+00 -0.00000000000E+00 -0.50030114492E+03  0.50030114492E+03  0.00000000000E+00 0.  1.
         24    2    1    2    0    0  0.36297744448E+02  0.20522657501E+03 -0.35746181169E+03  0.42083799850E+03  0.76747643746E+02 0.  0.
         25    2    1    2    0    0  0.20914006822E+01 -0.34774382623E+03  0.21647132933E+03  0.42829622353E+03  0.12509067122E+03 0.  0.
        -24    2    1    2    0    0 -0.38389145131E+02  0.14251725123E+03  0.13514393596E+04  0.13619169451E+04  0.81513981392E+02 0.  0.
        -11    1    3    3    0    0  0.33740589875E+02  0.20015083054E+03 -0.29479868118E+03  0.35791765086E+03  0.00000000000E+00 0.  1.
         12    1    3    3    0    0  0.25571545732E+01  0.50757444670E+01 -0.62663130514E+02  0.62920347641E+02  0.00000000000E+00 0. -1.
         11    1    5    5    0    0 -0.26674548321E+01  0.78541317617E+02  0.99065060900E+03  0.99376279011E+03  0.00000000000E+00 0. -1.
        -12    1    5    5    0    0 -0.35721690299E+02  0.63975933609E+02  0.36078875064E+03  0.36815415498E+03  0.00000000000E+00 0.  1.
          5    1    4    4  501    0  0.30403741094E+01  0.10253259183E+02  0.54275003066E+01  0.12700525901E+02  0.41800000000E+01 0.  1.
         -5    1    4    4    0  501 -0.94897342718E+00 -0.35799708542E+03  0.21104382902E+03  0.41559569763E+03  0.41800000000E+01 0.  1.
</event>
<event>
11    1  0.8453735E-009  0.1292552E+03  0.7561462E-02  0.1120187E+00
         22   -1    0    0    0    0  0.00000000000E+00  0.00000000000E+00  0.59710386729E+03  0.59710386729E+03  0.00000000000E+00 0. -1.
         22   -1    0    0    0    0 -0.00000000000E+00 -0.00000000000E+00 -0.91253810236E+03  0.91253810236E+03  0.00000000000E+00 0. -1.
        -24    2    1    2    0    0  0.60102301935E+01  0.31281622191E+02 -0.85263283451E+03  0.85709132266E+03  0.81290357041E+02 0.  0.
         25    2    1    2    0    0 -0.49450100772E+01 -0.60798734784E+02  0.35734389415E+02  0.14368424296E+03  0.12508907151E+03 0.  0.
         24    2    1    2    0    0 -0.10652201164E+01  0.29517112593E+02  0.50146421002E+03  0.50886640402E+03  0.81278955316E+02 0.  0.
        -13    1    5    5    0    0 -0.95629828775E+01 -0.13494607511E+02  0.36828342813E+03  0.36865463310E+03  0.00000000000E+00 0.  1.
         14    1    5    5    0    0  0.84977627611E+01  0.43011720103E+02  0.13318078190E+03  0.14021177092E+03  0.00000000000E+00 0. -1.
         11    1    3    3    0    0  0.36509254955E+02  0.38458301155E+02 -0.63564433777E+03  0.63785240516E+03  0.00000000000E+00 0. -1.
        -12    1    3    3    0    0 -0.30499024762E+02 -0.71766789639E+01 -0.21698849674E+03  0.21923891750E+03  0.00000000000E+00 0.  1.
          5    1    4    4  501    0 -0.59611403965E+01  0.13567773549E+02 -0.36689490020E+02  0.39789580946E+02  0.41800000000E+01 0.  1.
         -5    1    4    4    0  501  0.10161303193E+01 -0.74366508333E+02  0.72423879435E+02  0.10389466201E+03  0.41800000000E+01 0.  1.
</event>
<event>
11    1  0.1010960E-008  0.1710136E+03  0.7561462E-02  0.1077153E+00
         22   -1    0    0    0    0  0.00000000000E+00  0.00000000000E+00  0.22473745697E+04  0.22473745697E+04  0.00000000000E+00 0. -1.
         22   -1    0    0    0    0 -0.00000000000E+00 -0.00000000000E+00 -0.37270686866E+03  0.37270686866E+03  0.00000000000E+00 0.  1.
        -24    2    1    2    0    0 -0.25024610543E+02 -0.41504466341E+02 -0.19510397210E+03  0.21635424822E+03  0.79967174110E+02 0.  0.
         25    2    1    2    0    0 -0.83508207622E+02 -0.25763521868E+01 -0.13033554026E+03  0.19903546801E+03  0.12508999217E+03 0.  0.
         24    2    1    2    0    0  0.10853281816E+03  0.44080818528E+02  0.22001072134E+04  0.22046917221E+04  0.80444689009E+02 0.  0.
        -11    1    5    5    0    0  0.36843166174E+02 -0.23191363085E+02  0.61530294273E+03  0.61684112181E+03  0.00000000000E+00 0.  1.
         12    1    5    5    0    0  0.71689651991E+02  0.67272181613E+02  0.15848042706E+04  0.15878506003E+04  0.00000000000E+00 0. -1.
         11    1    3    3    0    0 -0.30132328270E+01 -0.61510653105E+02 -0.10816982517E+03  0.12447229047E+03  0.00000000000E+00 0. -1.
        -12    1    3    3    0    0 -0.22011377716E+02  0.20006186765E+02 -0.86934146928E+02  0.91881957750E+02  0.00000000000E+00 0.  1.
          5    1    4    4  501    0 -0.14232137550E+02 -0.58265066763E+02 -0.39868240810E+02  0.72140978434E+02  0.41800000000E+01 0.  1.
         -5    1    4    4    0  501 -0.69276070071E+02  0.55688714576E+02 -0.90467299450E+02  0.12689448958E+03  0.41800000000E+01 0.  1.
</event>
<event>
11    1  0.8453735E-009  0.1450024E+03  0.7561462E-02  0.1102098E+00
         22   -1    0    0    0    0  0.00000000000E+00  0.00000000000E+00  0.33130714138E+04  0.33130714138E+04  0.00000000000E+00 0.  1.
         22   -1    0    0    0    0 -0.00000000000E+00 -0.00000000000E+00 -0.55910768827E+03  0.55910768827E+03  0.00000000000E+00 0. -1.
         24    2    1    2    0    0 -0.58522407212E+02  0.45434926797E+02 -0.52975938872E+03  0.54136218744E+03  0.83299479814E+02 0.  0.
         25    2    1    2    0    0  0.70990494228E+02  0.22536130079E+02  0.21191001120E+03  0.25710106874E+03  0.12509028447E+03 0.  0.
        -24    2    1    2    0    0 -0.12468087016E+02 -0.67971056875E+02  0.30718131031E+04  0.30737158459E+04  0.83173574629E+02 0.  0.
        -13    1    3    3    0    0  0.98114107605E+01  0.27880703783E+02 -0.28816557530E+03  0.28967740025E+03  0.00000000000E+00 0.  1.
         14    1    3    3    0    0 -0.68333817972E+02  0.17554223014E+02 -0.24159381342E+03  0.25168478720E+03  0.00000000000E+00 0. -1.
         11    1    5    5    0    0  0.24176828384E+02 -0.50590863660E+02  0.10500533330E+04  0.10515493125E+04  0.00000000000E+00 0. -1.
        -12    1    5    5    0    0 -0.36644915400E+02 -0.17380193216E+02  0.20217597700E+04  0.20221665334E+04  0.00000000000E+00 0.  1.
          5    1    4    4  501    0  0.72633265530E+02  0.57182606464E+01  0.37918493034E+02  0.82240952574E+02  0.41800000000E+01 0. -1.
         -5    1    4    4    0  501 -0.16427713023E+01  0.16817869432E+02  0.17399151817E+03  0.17486011616E+03  0.41800000000E+01 0. -1.
</event>
<event>
11    1  0.8453735E-009  0.1299259E+03  0.7561462E-02  0.1119360E+00
         22   -1    0    0    0    0  0.00000000000E+00  0.00000000000E+00  0.84592079658E+03  0.84592079658E+03  0.00000000000E+00 0. -1.
         22   -1    0    0    0    0 -0.00000000000E+00 -0.00000000000E+00 -0.41729511945E+03  0.41729511945E+03  0.00000000000E+00 0. -1.
        -24    2    1    2    0    0  0.24155898579E+02  0.25000960223E+02 -0.37870973347E+03  0.38900972609E+03  0.81847109412E+02 0.  0.
         25    2    1    2    0    0 -0.33477917538E+02 -0.30138552175E+02  0.11119406793E+03  0.17332210775E+03  0.12508928412E+03 0.  0.
         24    2    1    2    0    0  0.93220189585E+01  0.51375919515E+01  0.69614134267E+03  0.70088408220E+03  0.80699645650E+02 0.  0.
        -11    1    5    5    0    0 -0.39530755729E+01  0.40793500818E+02  0.27642537814E+03  0.27944717962E+03  0.00000000000E+00 0.  1.
         12    1    5    5    0    0  0.13275094531E+02 -0.35655908867E+02  0.41971596453E+03  0.42143690258E+03  0.00000000000E+00 0. -1.
         11    1    3    3    0    0  0.10325987477E+02  0.39041723306E+02 -0.35854996503E+03  0.36081707221E+03  0.00000000000E+00 0. -1.
        -12    1    3    3    0    0  0.13829911102E+02 -0.14040763083E+02 -0.20159768434E+02  0.28192653873E+02  0.00000000000E+00 0.  1.
          5    1    4    4  501    0 -0.56564315914E+02  0.15641143732E+02  0.10649436704E+03  0.12166630521E+03  0.41800000000E+01 0.  1.
         -5    1    4    4    0  501  0.23086398376E+02 -0.45779695906E+02  0.46997008863E+01  0.51655802536E+02  0.41800000000E+01 0.  1.
</event>
<event>
11    1  0.8453735E-009  0.1393403E+03  0.7561462E-02  0.1108297E+00
         22   -1    0    0    0    0  0.00000000000E+00  0.00000000000E+00  0.38523981480E+03  0.38523981480E+03  0.00000000000E+00 0. -1.
         22   -1    0    0    0    0 -0.00000000000E+00 -0.00000000000E+00 -0.16706358604E+04  0.16706358604E+04  0.00000000000E+00 0. -1.
         24    2    1    2    0    0 -0.18085104741E+02  0.18555643541E+02 -0.15590582984E+04  0.15613821827E+04  0.81118183764E+02 0.  0.
         25    2    1    2    0    0 -0.37866955126E+02 -0.45082454101E+02 -0.56680823930E+02  0.14942156745E+03  0.12509098713E+03 0.  0.
        -24    2    1    2    0    0  0.55952059868E+02  0.26526810560E+02  0.33034307669E+03  0.34507192509E+03  0.78190667536E+02 0.  0.
        -11    1    3    3    0    0 -0.77492553552E+01 -0.20314237512E+02 -0.13368195732E+03  0.13543849127E+03  0.00000000000E+00 0.  1.
         12    1    3    3    0    0 -0.10335849386E+02  0.38869881053E+02 -0.14253763411E+04  0.14259436914E+04  0.00000000000E+00 0. -1.
         11    1    5    5    0    0  0.70650837577E+02  0.34665077683E+02  0.22427645912E+03  0.23768285293E+03  0.00000000000E+00 0. -1.
        -12    1    5    5    0    0 -0.14698777709E+02 -0.81382671230E+01  0.10606661757E+03  0.10738907217E+03  0.00000000000E+00 0.  1.
          5    1    4    4  501    0 -0.61020825090E+02  0.23448991210E+02 -0.22077863875E+02  0.69125254116E+02  0.41800000000E+01 0.  1.
         -5    1    4    4    0  501  0.23153869964E+02 -0.68531445310E+02 -0.34602960055E+02  0.80296313335E+02  0.41800000000E+01 0.  1.
</event>
<event>
11    1  0.8453735E-009  0.1441054E+03  0.7561462E-02  0.1103059E+00
         22   -1    0    0    0    0  0.00000000000E+00  0.00000000000E+00  0.20168871865E+04  0.20168871865E+04  0.00000000000E+00 0.  1.
         22   -1    0    0    0    0 -0.00000000000E+00 -0.00000000000E+00 -0.11380296020E+03  0.11380296020E+03  0.00000000000E+00 0. -1.
        -24    2    1    2    0    0 -0.14426744489E+02 -0.20441754581E+02 -0.84829599139E+02  0.12145609916E+03  0.83243779622E+02 0.  0.
         25    2    1    2    0    0 -0.45955887514E+02 -0.25693866074E+02  0.52272865928E+03  0.54006106009E+03  0.12509428062E+03 0.  0.
         24    2    1    2    0    0  0.60382632003E+02  0.46135620655E+02  0.14651851662E+04  0.14691729875E+04  0.76987909264E+02 0.  0.
        -11    1    5    5    0    0  0.26667757422E+02  0.48042738135E+02  0.12624076865E+04  0.12636029602E+04  0.00000000000E+00 0.  1.
         12    1    5    5    0    0  0.33714874581E+02 -0.19071174801E+01  0.20277747968E+03  0.20557002731E+03  0.00000000000E+00 0. -1.
         13    1    3    3    0    0 -0.36200287843E+02 -0.86240891823E+01 -0.88877460745E+02  0.96353717015E+02  0.00000000000E+00 0. -1.
        -14    1    3    3    0    0  0.21773543354E+02 -0.11817665399E+02  0.40478616068E+01  0.25102382143E+02  0.00000000000E+00 0.  1.
          5    1    4    4  501    0  0.48864086384E+01  0.36262260681E+02  0.59826099133E+02  0.70252851021E+02  0.41800000000E+01 0. -1.
         -5    1    4    4    0  501 -0.50842296153E+02 -0.61956126754E+02  0.46290256015E+03  0.46980820907E+03  0.41800000000E+01 0. -1.
</event>
<event>
11    1  0.8453735E-009  0.1375139E+03  0.7561462E-02  0.1110367E+00
         22   -1    0    0    0    0  0.00000000000E+00  0.00000000000E+00  0.65257526376E+03  0.65257526376E+03  0.00000000000E+00 0.  1.
         22   -1    0    0    0    0 -0.00000000000E+00 -0.00000000000E+00 -0.19499161725E+03  0.19499161725E+03  0.00000000000E+00 0. -1.
        -24    2    1    2    0    0 -0.25380433465E+02 -0.49321436485E+02 -0.14767908068E+03  0.17690364939E+03  0.80056353866E+02 0.  0.
         25    2    1    2    0    0  0.43582128948E+01  0.88481402017E+02  0.18448633099E+03  0.23985020887E+03  0.12507982991E+03 0.  0.
         24    2    1    2    0    0  0.21022220570E+02 -0.39159965532E+02  0.42077639620E+03  0.43081302276E+03  0.81065703729E+02 0.  0.
        -11    1    5    5    0    0  0.59821202352E+01 -0.62584389876E+02  0.32714027511E+03  0.33312662940E+03  0.00000000000E+00 0.  1.
         12    1    5    5    0    0  0.15040100335E+02  0.23424424344E+02  0.93636121091E+02  0.97686393356E+02  0.00000000000E+00 0. -1.
         11    1    3    3    0    0 -0.15185273537E+02  0.11935007962E+02 -0.31117438910E+01  0.19563228197E+02  0.00000000000E+00 0. -1.
        -12    1    3    3    0    0 -0.10195159928E+02 -0.61256444447E+02 -0.14456733679E+03  0.15734042119E+03  0.00000000000E+00 0.  1.
          5    1    4    4  501    0  0.49130544009E+02 -0.44075633499E+01  0.50381426868E+02  0.70632836150E+02  0.41800000000E+01 0.  1.
         -5    1    4    4    0  501 -0.44772331114E+02  0.92888965367E+02  0.13410490412E+03  0.16921737272E+03  0.41800000000E+01 0.  1.
</event>
<event>
11    1  0.8453735E-009  0.1854017E+03  0.7561462E-02  0.1065355E+00
         22   -1    0    0    0    0  0.00000000000E+00  0.00000000000E+00  0.59716494420E+03  0.59716494420E+03  0.00000000000E+00 0. -1.
         22   -1    0    0    0    0 -0.00000000000E+00 -0.00000000000E+00 -0.23523521415E+03  0.23523521415E+03  0.00000000000E+00 0. -1.
         24    2    1    2    0    0 -0.14808424335E+02  0.33377545266E+02 -0.13247378065E+03  0.15948798433E+03  0.80955324869E+02 0.  0.
         25    2    1    2    0    0  0.42974586062E+02 -0.16175262961E+03  0.68361029051E+02  0.21984037566E+03  0.12508330122E+03 0.  0.
        -24    2    1    2    0    0 -0.28166161727E+02  0.12837508434E+03  0.42604248165E+03  0.45307179836E+03  0.80550377746E+02 0.  0.
        -13    1    3    3    0    0 -0.91600040622E+01  0.21844413167E+02  0.25779245945E+01  0.23827080313E+02  0.00000000000E+00 0.  1.
         14    1    3    3    0    0 -0.56484202733E+01  0.11533132099E+02 -0.13505170525E+03  0.13566090401E+03  0.00000000000E+00 0. -1.
         13    1    5    5    0    0  0.26358537981E+01  0.11349076666E+03  0.37352666382E+03  0.39039629920E+03  0.00000000000E+00 0. -1.
        -14    1    5    5    0    0 -0.30802015525E+02  0.14884317682E+02  0.52515817825E+02  0.62675499161E+02  0.00000000000E+00 0.  1.
          5    1    4    4  501    0  0.68633584351E+02 -0.41415794002E+02  0.27084049927E+01  0.80315905967E+02  0.41800000000E+01 0. -1.
         -5    1    4    4    0  501 -0.25658998289E+02 -0.12033683560E+03  0.65652624058E+02  0.13952446969E+03  0.41800000000E+01 0. -1.
</event>
<event>
11    1  0.8453735E-009  0.1919898E+03  0.7561462E-02  0.1060337E+00
         22   -1    0    0    0    0  0.00000000000E+00  0.00000000000E+00  0.63044947679E+03  0.63044947679E+03  0.00000000000E+00 0. -1.
         22   -1    0    0    0    0 -0.00000000000E+00 -0.00000000000E+00 -0.98113495335E+03  0.98113495335E+03  0.00000000000E+00 0. -1.
        -24    2    1    2    0    0  0.64286243480E+02 -0.12960996161E+03 -0.87423704111E+03  0.88968644971E+03  0.79499128914E+02 0.  0.
         25    2    1    2    0    0  0.86324959003E+01  0.18406143079E+03  0.43740448432E+02  0.22696904318E+03  0.12509432218E+03 0.  0.
         24    2    1    2    0    0 -0.72918739381E+02 -0.54451469183E+02  0.47981111612E+03  0.49492893725E+03  0.80335799730E+02 0.  0.
        -13    1    5    5    0    0 -0.40370234565E+02  0.57317907288E+01  0.29602201437E+03  0.29881707156E+03  0.00000000000E+00 0.  1.
         14    1    5    5    0    0 -0.32548504816E+02 -0.60183259912E+02  0.18378910175E+03  0.19611186568E+03  0.00000000000E+00 0. -1.
         11    1    3    3    0    0  0.13077172613E+01 -0.40932298645E+02 -0.44511390558E+03  0.44699390615E+03  0.00000000000E+00 0. -1.
        -12    1    3    3    0    0  0.62978526219E+02 -0.88677662966E+02 -0.42912313553E+03  0.44269254356E+03  0.00000000000E+00 0.  1.
          5    1    4    4  501    0 -0.14212888432E+02  0.53156988233E+02 -0.41495270970E+02  0.69043475495E+02  0.41800000000E+01 0.  1.
         -5    1    4    4    0  501  0.22845384332E+02  0.13090444256E+03  0.85235719402E+02  0.15792556769E+03  0.41800000000E+01 0.  1.
</event>
<event>
11    1  0.8453735E-009  0.1479588E+03  0.7561462E-02  0.1098983E+00
         22   -1    0    0    0    0  0.00000000000E+00  0.00000000000E+00  0.10473939866E+03  0.10473939866E+03  0.00000000000E+00 0. -1.
         22   -1    0    0    0    0 -0.00000000000E+00 -0.00000000000E+00 -0.12935282739E+04  0.12935282739E+04  0.00000000000E+00 0.  1.
         24    2    1    2    0    0  0.75353814719E+02  0.24393651338E+02 -0.10352990423E+04  0.10441709277E+04  0.11034297273E+03 0.  0.
         25    2    1    2    0    0 -0.39152564555E+02 -0.11152140397E+03 -0.15696144990E+03  0.23292500482E+03  0.12508882549E+03 0.  0.
        -24    2    1    2    0    0 -0.36201250164E+02  0.87127752630E+02  0.34716169965E+01  0.12117174002E+03  0.75952371011E+02 0.  0.
        -11    1    3    3    0    0  0.92975641512E+02  0.44577224659E+02 -0.92196132413E+03  0.92770915812E+03  0.00000000000E+00 0.  1.
         12    1    3    3    0    0 -0.17621826792E+02 -0.20183573321E+02 -0.11333771822E+03  0.11646176961E+03  0.00000000000E+00 0. -1.
         13    1    5    5    0    0 -0.37048989173E+02  0.75144994188E+02  0.32415440995E+02  0.89834061275E+02  0.00000000000E+00 0. -1.
        -14    1    5    5    0    0  0.84773900817E+00  0.11982758442E+02 -0.28943823998E+02  0.31337678742E+02  0.00000000000E+00 0.  1.
          5    1    4    4  501    0 -0.58137196061E+02 -0.10278014270E+03 -0.17067219972E+03  0.20758170309E+03  0.41800000000E+01 0.  1.
         -5    1    4    4    0  501  0.18984631507E+02 -0.87412612710E+01  0.13710749823E+02  0.25343301734E+02  0.41800000000E+01 0.  1.
</event>
<event>
11    1  0.8453735E-009  0.2348956E+03  0.7561462E-02  0.1032268E+00
         22   -1    0    0    0    0  0.00000000000E+00  0.00000000000E+00  0.98673209404E+03  0.98673209404E+03  0.00000000000E+00 0.  1.
         22   -1    0    0    0    0 -0.00000000000E+00 -0.00000000000E+00 -0.14064634354E+04  0.14064634354E+04  0.00000000000E+00 0.  1.
         24    2    1    2    0    0 -0.69159767684E+01  0.12950324213E+02 -0.13416983287E+04  0.13443412332E+04  0.82966284987E+02 0.  0.
         25    2    1    2    0    0  0.19111652895E+03 -0.79738839330E+02  0.26601692031E+03  0.35957721146E+03  0.12508780505E+03 0.  0.
        -24    2    1    2    0    0 -0.18420055218E+03  0.66788515117E+02  0.65595006702E+03  0.68927708478E+03  0.80261198616E+02 0.  0.
        -13    1    3    3    0    0 -0.20220958006E+02  0.21000834823E+02 -0.12905933531E+04  0.12909225868E+04  0.00000000000E+00 0.  1.
         14    1    3    3    0    0  0.13304981238E+02 -0.80505106100E+01 -0.51104975630E+02  0.53418646379E+02  0.00000000000E+00 0. -1.
         11    1    5    5    0    0 -0.30173320537E+02 -0.18381944727E+02  0.12627205005E+03  0.13112191193E+03  0.00000000000E+00 0. -1.
        -12    1    5    5    0    0 -0.15402723165E+03  0.85170459844E+02  0.52967801697E+03  0.55815517285E+03  0.00000000000E+00 0.  1.
          5    1    4    4  501    0  0.17202883403E+02 -0.64927085605E+02  0.71075383915E+02  0.97880785863E+02  0.41800000000E+01 0. -1.
         -5    1    4    4    0  501  0.17391364555E+03 -0.14811753725E+02  0.19494153640E+03  0.26169642560E+03  0.41800000000E+01 0. -1.
</event>
<event>
11    1  0.8453735E-009  0.2509334E+03  0.7561462E-02  0.1023403E+00
         22   -1    0    0    0    0  0.00000000000E+00  0.00000000000E+00  0.26420992827E+03  0.26420992827E+03  0.00000000000E+00 0.  1.
         22   -1    0    0    0    0 -0.00000000000E+00 -0.00000000000E+00 -0.92192676642E+03  0.92192676642E+03  0.00000000000E+00 0.  1.
         24    2    1    2    0    0 -0.10164585959E+02 -0.14654637013E+02 -0.15176898208E+03  0.17259513298E+03  0.80232031090E+02 0.  0.
         25    2    1    2    0    0  0.12791255278E+02 -0.20395147374E+03 -0.68219257383E+03  0.72304530283E+03  0.12509189544E+03 0.  0.
        -24    2    1    2    0    0 -0.26266693193E+01  0.21860611076E+03  0.17624471777E+03  0.29049625888E+03  0.74366288256E+02 0.  0.
        -11    1    3    3    0    0  0.32276559385E+02 -0.92612000498E+01 -0.36270842448E+02  0.49427928583E+02  0.00000000000E+00 0.  1.
         12    1    3    3    0    0 -0.42441145344E+02 -0.53934369628E+01 -0.11549813963E+03  0.12316720440E+03  0.00000000000E+00 0. -1.
         13    1    5    5    0    0 -0.26878319899E+01  0.14430781993E+02 -0.68966972421E+01  0.16218395191E+02  0.00000000000E+00 0. -1.
        -14    1    5    5    0    0  0.61162670587E-01  0.20417532876E+03  0.18314141501E+03  0.27427786369E+03  0.00000000000E+00 0.  1.
          5    1    4    4  501    0 -0.25851311617E+02 -0.19863993688E+03 -0.57307801813E+03  0.60709307532E+03  0.41800000000E+01 0. -1.
         -5    1    4    4    0  501  0.38642566895E+02 -0.53115368690E+01 -0.10911455569E+03  0.11595222751E+03  0.41800000000E+01 0. -1.
</event>
<event>
11    1  0.8453735E-009  0.1885144E+03  0.7561462E-02  0.1062956E+00
         22   -1    0    0    0    0  0.00000000000E+00  0.00000000000E+00  0.73522753801E+03  0.73522753801E+03  0.00000000000E+00 0.  1.
         22   -1    0    0    0    0 -0.00000000000E+00 -0.00000000000E+00 -0.18765262952E+03  0.18765262952E+03  0.00000000000E+00 0. -1.
        -24    2    1    2    0    0  0.31927826291E+02 -0.15074276039E+03 -0.98027368751E+02  0.19854312819E+03  0.77892508147E+02 0.  0.
         25    2    1    2    0    0  0.81653480734E+02  0.75492181967E+02  0.28328697170E+03  0.32903713003E+03  0.12509022402E+03 0.  0.
         24    2    1    2    0    0 -0.11358130703E+03  0.75250578427E+02  0.36231530554E+03  0.39529990930E+03  0.80164049354E+02 0.  0.
        -13    1    5    5    0    0 -0.94037586749E+02  0.23097674277E+02  0.17650369819E+03  0.20132095210E+03  0.00000000000E+00 0.  1.
         14    1    5    5    0    0 -0.19543720277E+02  0.52152904149E+02  0.18581160735E+03  0.19397895721E+03  0.00000000000E+00 0. -1.
         13    1    3    3    0    0  0.36164716125E+02 -0.15733934779E+03 -0.82848682215E+02  0.18145925493E+03  0.00000000000E+00 0. -1.
        -14    1    3    3    0    0 -0.42368898330E+01  0.65965873943E+01 -0.15178686537E+02  0.17083873264E+02  0.00000000000E+00 0.  1.
          5    1    4    4  501    0  0.69165560039E+02 -0.12967930305E+02  0.17453411940E+03  0.18823302884E+03  0.41800000000E+01 0. -1.
         -5    1    4    4    0  501  0.12487920695E+02  0.88460112272E+02  0.10875285230E+03  0.14080410119E+03  0.41800000000E+01 0. -1.
</event>
<event>
11    1  0.8453735E-009  0.1605282E+03  0.7561462E-02  0.1086582E+00
         22   -1    0    0    0    0  0.00000000000E+00  0.00000000000E+00  0.10257137550E+04  0.10257137550E+04  0.00000000000E+00 0. -1.
         22   -1    0    0    0    0 -0.00000000000E+00 -0.00000000000E+00 -0.28795995699E+03  0.28795995699E+03  0.00000000000E+00 0.  1.
        -24    2    1    2    0    0 -0.34576976440E+02 -0.46051606781E+02 -0.25064028155E+03  0.26907282341E+03  0.79141113034E+02 0.  0.
         25    2    1    2    0    0  0.86614437022E+02  0.11184537313E+03  0.42712035653E+03  0.46700189504E+03  0.12509005885E+03 0.  0.
         24    2    1    2    0    0 -0.52037460582E+02 -0.65793766347E+02  0.56127372307E+03  0.57759899359E+03  0.10749738688E+03 0.  0.
        -11    1    5    5    0    0  0.12530716688E+02 -0.23689371134E+02  0.27907819588E+02  0.38691750536E+02  0.00000000000E+00 0.  1.
         12    1    5    5    0    0 -0.64568177269E+02 -0.42104395214E+02  0.53336590349E+03  0.53890724305E+03  0.00000000000E+00 0. -1.
         13    1    3    3    0    0  0.21850727447E+02 -0.56505740127E+01 -0.10939445240E+03  0.11169838626E+03  0.00000000000E+00 0. -1.
        -14    1    3    3    0    0 -0.56427703888E+02 -0.40401032768E+02 -0.14124582915E+03  0.15737443714E+03  0.00000000000E+00 0.  1.
          5    1    4    4  501    0 -0.10213438316E+02  0.67218091592E+02  0.86741017839E+02  0.11029080984E+03  0.41800000000E+01 0.  1.
         -5    1    4    4    0  501  0.96827875338E+02  0.44627281536E+02  0.34037933869E+03  0.35671108520E+03  0.41800000000E+01 0.  1.
</event>
<event>
11    1  0.8453735E-009  0.2355645E+03  0.7561462E-02  0.1031883E+00
         22   -1    0    0    0    0  0.00000000000E+00  0.00000000000E+00  0.86978656210E+03  0.86978656210E+03  0.00000000000E+00 0.  1.
         22   -1    0    0    0    0 -0.00000000000E+00 -0.00000000000E+00 -0.86098463486E+03  0.86098463486E+03  0.00000000000E+00 0.  1.
         24    2    1    2    0    0  0.40200408667E+02 -0.32191123532E+02 -0.56294154064E+03  0.57086041312E+03  0.79536732399E+02 0.  0.
         25    2    1    2    0    0 -0.11482508169E+03  0.21496270041E+03 -0.21276091312E+03  0.34685533101E+03  0.12509057736E+03 0.  0.
        -24    2    1    2    0    0  0.74624673023E+02 -0.18277157688E+03  0.78450438100E+03  0.81305545283E+03  0.81472415117E+02 0.  0.
        -13    1    3    3    0    0 -0.40812508710E+01 -0.12451714551E+02 -0.41439957347E+03  0.41460669109E+03  0.00000000000E+00 0.  1.
         14    1    3    3    0    0  0.44281659538E+02 -0.19739408981E+02 -0.14854196717E+03  0.15625372203E+03  0.00000000000E+00 0. -1.
         11    1    5    5    0    0 -0.78429748041E+01  0.23796952402E+01  0.12977463946E+02  0.15348933959E+02  0.00000000000E+00 0. -1.
        -12    1    5    5    0    0  0.82467647827E+02 -0.18515127212E+03  0.77152691706E+03  0.79770651887E+03  0.00000000000E+00 0.  1.
          5    1    4    4  501    0 -0.83217670170E+01  0.14242245076E+03 -0.89384007464E+02  0.16840540216E+03  0.41800000000E+01 0. -1.
         -5    1    4    4    0  501 -0.10650331467E+03  0.72540249649E+02 -0.12337690566E+03  0.17844992885E+03  0.41800000000E+01 0. -1.
</event>
<event>
11    1  0.8453735E-009  0.2063397E+03  0.7561462E-02  0.1050129E+00
         22   -1    0    0    0    0  0.00000000000E+00  0.00000000000E+00  0.46361969882E+03  0.46361969882E+03  0.00000000000E+00 0.  1.
         22   -1    0    0    0    0 -0.00000000000E+00 -0.00000000000E+00 -0.21451082506E+03  0.21451082506E+03  0.00000000000E+00 0. -1.
        -24    2    1    2    0    0  0.24773603095E+02  0.16510916023E+02 -0.98126170063E+02  0.13031175758E+03  0.80411859543E+02 0.  0.
         25    2    1    2    0    0 -0.12453866513E+03 -0.13641869893E+03  0.10140301986E+03  0.24504921570E+03  0.12508639074E+03 0.  0.
         24    2    1    2    0    0  0.99765062036E+02  0.11990778291E+03  0.24583202396E+03  0.30276955060E+03  0.83096767437E+02 0.  0.
        -11    1    5    5    0    0  0.91873333488E+02  0.58500948799E+02  0.19192969243E+03  0.22068093994E+03  0.00000000000E+00 0.  1.
         12    1    5    5    0    0  0.78917285481E+01  0.61406834110E+02  0.53902331526E+02  0.82088610652E+02  0.00000000000E+00 0. -1.
         13    1    3    3    0    0  0.29755810594E+02 -0.65304329544E+00 -0.10649581525E+03  0.11057664037E+03  0.00000000000E+00 0. -1.
        -14    1    3    3    0    0 -0.49822074994E+01  0.17163959318E+02  0.83696451846E+01  0.19735117217E+02  0.00000000000E+00 0.  1.
          5    1    4    4  501    0 -0.61841995797E+02 -0.11212217155E+03  0.11960144041E+03  0.17526491590E+03  0.41800000000E+01 0.  1.
         -5    1    4    4    0  501 -0.62696669334E+02 -0.24296527382E+02 -0.18198420547E+02  0.69784299802E+02  0.41800000000E+01 0.  1.
</event>
<event>
11    1  0.8453735E-009  0.1327937E+03  0.7561462E-02  0.1115883E+00
         22   -1    0    0    0    0  0.00000000000E+00  0.00000000000E+00  0.56105957881E+03  0.56105957881E+03  0.00000000000E+00 0.  1.
         22   -1    0    0    0    0 -0.00000000000E+00 -0.00000000000E+00 -0.37803456824E+03  0.37803456824E+03  0.00000000000E+00 0. -1.
         24    2    1    2    0    0 -0.18010129173E+02  0.44731438076E+02 -0.22642412986E+03  0.24506967083E+03  0.80411383968E+02 0.  0.
         25    2    1    2    0    0 -0.10896906305E+02 -0.37702734211E+02 -0.10701544997E+03  0.16923201650E+03  0.12508768980E+03 0.  0.
        -24    2    1    2    0    0  0.28907035479E+02 -0.70287038648E+01  0.51646459040E+03  0.52479245972E+03  0.88240768730E+02 0.  0.
        -11    1    3    3    0    0 -0.18584459889E+02 -0.69906508109E+01 -0.94033231762E+01  0.21969839209E+02  0.00000000000E+00 0.  1.
         12    1    3    3    0    0  0.57433071520E+00  0.51722088887E+02 -0.21702080669E+03  0.22309983162E+03  0.00000000000E+00 0. -1.
         11    1    5    5    0    0 -0.30987368546E+02  0.65982935649E+01  0.18000079847E+03  0.18276772674E+03  0.00000000000E+00 0. -1.
        -12    1    5    5    0    0  0.59894404025E+02 -0.13626997430E+02  0.33646379193E+03  0.34202473298E+03  0.00000000000E+00 0.  1.
          5    1    4    4  501    0  0.88643056451E+01 -0.56311500571E+01 -0.12623186405E+03  0.12673689939E+03  0.41800000000E+01 0. -1.
         -5    1    4    4    0  501 -0.19761211950E+02 -0.32071584154E+02  0.19216414076E+02  0.42495117106E+02  0.41800000000E+01 0. -1.
</event>
<event>
11    1  0.8453735E-009  0.2804523E+03  0.7561462E-02  0.1008821E+00
         22   -1    0    0    0    0  0.00000000000E+00  0.00000000000E+00  0.10063152412E+04  0.10063152412E+04  0.00000000000E+00 0.  1.
         22   -1    0    0    0    0 -0.00000000000E+00 -0.00000000000E+00 -0.39319801355E+03  0.39319801355E+03  0.00000000000E+00 0.  1.
        -24    2    1    2    0    0  0.24325009118E+03  0.97535982516E+02 -0.27531853524E+03  0.38809107768E+03  0.78297598832E+02 0.  0.
         25    2    1    2    0    0 -0.17353809580E+03 -0.10826159624E+03  0.19322298911E+03  0.30792614289E+03  0.12508933623E+03 0.  0.
         24    2    1    2    0    0 -0.69711995374E+02  0.10725613726E+02  0.69521277379E+03  0.70349603419E+03  0.81308475528E+02 0.  0.
        -13    1    5    5    0    0 -0.29725795542E+02  0.20375198615E+02  0.58073974836E+03  0.58185687842E+03  0.00000000000E+00 0.  1.
         14    1    5    5    0    0 -0.39986199832E+02 -0.96495848885E+01  0.11447302542E+03  0.12163915577E+03  0.00000000000E+00 0. -1.
         11    1    3    3    0    0  0.25522637559E+01 -0.45425631004E+01 -0.27045776676E+02  0.27543111041E+02  0.00000000000E+00 0. -1.
        -12    1    3    3    0    0  0.24069782742E+03  0.10207854562E+03 -0.24827275856E+03  0.36054796663E+03  0.00000000000E+00 0.  1.
          5    1    4    4  501    0 -0.90456204830E+02 -0.54968474270E+02  0.18970569985E+02  0.10761604472E+03  0.41800000000E+01 0. -1.
         -5    1    4    4    0  501 -0.83081890974E+02 -0.53293121972E+02  0.17425241913E+03  0.20031009817E+03  0.41800000000E+01 0. -1.
</event>
<event>
11    1  0.8453735E-009  0.2161899E+03  0.7561462E-02  0.1043631E+00
         22   -1    0    0    0    0  0.00000000000E+00  0.00000000000E+00  0.11493296944E+04  0.11493296944E+04  0.00000000000E+00 0. -1.
         22   -1    0    0    0    0 -0.00000000000E+00 -0.00000000000E+00 -0.75068703318E+02  0.75068703318E+02  0.00000000000E+00 0. -1.
         24    2    1    2    0    0 -0.95502926880E+02  0.15794950578E+03  0.14796833286E+03  0.24643428518E+03  0.69038930806E+02 0.  0.
         25    2    1    2    0    0  0.13056493858E+03 -0.95717213719E+02  0.55630501576E+03  0.59273314731E+03  0.12509326590E+03 0.  0.
        -24    2    1    2    0    0 -0.35062011705E+02 -0.62232292064E+02  0.36998764242E+03  0.38523096517E+03  0.80061464796E+02 0.  0.
        -11    1    3    3    0    0 -0.50642412441E+02  0.10095568777E+03  0.47516422690E+02  0.12253373110E+03  0.00000000000E+00 0.  1.
         12    1    3    3    0    0 -0.44860514439E+02  0.56993818009E+02  0.10045191017E+03  0.12390055409E+03  0.00000000000E+00 0. -1.
         13    1    5    5    0    0 -0.29590089965E+02 -0.69456438691E+02  0.36836782967E+03  0.37602477077E+03  0.00000000000E+00 0. -1.
        -14    1    5    5    0    0 -0.54719217406E+01  0.72241466271E+01  0.16198127521E+01  0.92061944025E+01  0.00000000000E+00 0.  1.
          5    1    4    4  501    0  0.83037970989E+02 -0.12358183958E+03  0.38899126215E+03  0.41653265194E+03  0.41800000000E+01 0. -1.
         -5    1    4    4    0  501  0.47526967596E+02  0.27864625864E+02  0.16731375361E+03  0.17620049538E+03  0.41800000000E+01 0. -1.
</event>
<event>
11    1  0.8453735E-009  0.2122365E+03  0.7561462E-02  0.1046193E+00
         22   -1    0    0    0    0  0.00000000000E+00  0.00000000000E+00  0.71359548595E+03  0.71359548595E+03  0.00000000000E+00 0. -1.
         22   -1    0    0    0    0 -0.00000000000E+00 -0.00000000000E+00 -0.10223320871E+04  0.10223320871E+04  0.00000000000E+00 0.  1.
         24    2    1    2    0    0  0.36321987389E+02 -0.16521379885E+03 -0.75149200545E+03  0.77432811007E+03  0.78923391312E+02 0.  0.
         25    2    1    2    0    0 -0.11163150987E+03  0.15874529517E+03 -0.20238474965E+03  0.30703466516E+03  0.12509610700E+03 0.  0.
        -24    2    1    2    0    0  0.75309522485E+02  0.64685036779E+01  0.64514015391E+03  0.65456479784E+03  0.80844855517E+02 0.  0.
        -13    1    3    3    0    0  0.10904656995E+02 -0.15971569882E+03 -0.66589338351E+03  0.68486642069E+03  0.00000000000E+00 0.  1.
         14    1    3    3    0    0  0.25417330394E+02 -0.54981000281E+01 -0.85598621944E+02  0.89461689381E+02  0.00000000000E+00 0. -1.
         11    1    5    5    0    0  0.19860373362E+02 -0.29549921743E+02  0.36476816869E+03  0.36650163601E+03  0.00000000000E+00 0. -1.
        -12    1    5    5    0    0  0.55449149123E+02  0.36018425421E+02  0.28037198522E+03  0.28806316184E+03  0.00000000000E+00 0.  1.
          5    1    4    4  501    0 -0.12255671513E+03  0.72375483301E+02 -0.10922659274E+03  0.17946108204E+03  0.41800000000E+01 0.  1.
         -5    1    4    4    0  501  0.10925205252E+02  0.86369811868E+02 -0.93158156909E+02  0.12757358312E+03  0.41800000000E+01 0.  1.
</event>
<event>
11    1  0.8453735E-009  0.3020913E+03  0.7561462E-02  0.9993100E-01
         22   -1    0    0    0    0  0.00000000000E+00  0.00000000000E+00  0.37925333282E+03  0.37925333282E+03  0.00000000000E+00 0. -1.
         22   -1    0    0    0    0 -0.00000000000E+00 -0.00000000000E+00 -0.59256470011E+03  0.59256470011E+03  0.00000000000E+00 0. -1.
        -24    2    1    2    0    0 -0.18210852354E+03 -0.21188541812E+03 -0.40551112796E+03  0.49887854348E+03  0.79884801371E+02 0.  0.
         25    2    1    2    0    0  0.23866379306E+03  0.12299802485E+03  0.15563099605E+03  0.33459965772E+03  0.12508798417E+03 0.  0.
         24    2    1    2    0    0 -0.56555269519E+02  0.88887393269E+02  0.36568764629E+02  0.13833983173E+03  0.81860657851E+02 0.  0.
        -11    1    5    5    0    0  0.90761633923E+01  0.60782272995E+02  0.10576117155E+02  0.62359567882E+02  0.00000000000E+00 0.  1.
         12    1    5    5    0    0 -0.65631432911E+02  0.28105120274E+02  0.25992647474E+02  0.75980263847E+02  0.00000000000E+00 0. -1.
         11    1    3    3    0    0 -0.13840192697E+03 -0.15318451902E+03 -0.23194712973E+03  0.31051579870E+03  0.00000000000E+00 0. -1.
        -12    1    3    3    0    0 -0.43706596575E+02 -0.58700899104E+02 -0.17356399822E+03  0.18836274478E+03  0.00000000000E+00 0.  1.
          5    1    4    4  501    0  0.15111529393E+03  0.85328815060E+02  0.16402965601E+03  0.23883056587E+03  0.41800000000E+01 0.  1.
         -5    1    4    4    0  501  0.87548499126E+02  0.37669209793E+02 -0.83986599686E+01  0.95769091856E+02  0.41800000000E+01 0.  1.
</event>
<event>
11    1  0.8453735E-009  0.1936945E+03  0.7561462E-02  0.1059074E+00
         22   -1    0    0    0    0  0.00000000000E+00  0.00000000000E+00  0.37913949778E+03  0.37913949778E+03  0.00000000000E+00 0.  1.
         22   -1    0    0    0    0 -0.00000000000E+00 -0.00000000000E+00 -0.16476926514E+04  0.16476926514E+04  0.00000000000E+00 0. -1.
        -24    2    1    2    0    0  0.56779094148E+02  0.13356395777E+03 -0.14419043610E+04  0.14514031978E+04  0.80124028763E+02 0.  0.
         25    2    1    2    0    0 -0.14504788798E+03 -0.14615847003E+03 -0.11222225773E+03  0.26578661322E+03  0.12508996949E+03 0.  0.
         24    2    1    2    0    0  0.88268793833E+02  0.12594512256E+02  0.28557346510E+03  0.30964233816E+03  0.79850935563E+02 0.  0.
        -13    1    5    5    0    0  0.69322169489E+02 -0.27969562160E+02  0.18647092299E+03  0.20089615405E+03  0.00000000000E+00 0.  1.
         14    1    5    5    0    0  0.18946624344E+02  0.40564074415E+02  0.99102542102E+02  0.10874618411E+03  0.00000000000E+00 0. -1.
         13    1    3    3    0    0  0.38780721163E+02  0.12401950314E+03 -0.13826887069E+04  0.13887810633E+04  0.00000000000E+00 0. -1.
        -14    1    3    3    0    0  0.17998372985E+02  0.95444546355E+01 -0.59215654134E+02  0.62622134577E+02  0.00000000000E+00 0.  1.
          5    1    4    4  501    0 -0.17392871778E+02  0.42818705386E+01 -0.58406309881E+02  0.61234106819E+02  0.41800000000E+01 0.  1.
         -5    1    4    4    0  501 -0.12765501620E+03 -0.15044034057E+03 -0.53815947847E+02  0.20455250640E+03  0.41800000000E+01 0.  1.
</event>
<event>
11    1  0.8453735E-009  0.1546254E+03  0.7561462E-02  0.1092244E+00
         22   -1    0    0    0    0  0.00000000000E+00  0.00000000000E+00  0.23676331497E+04  0.23676331497E+04  0.00000000000E+00 0.  1.
         22   -1    0    0    0    0 -0.00000000000E+00 -0.00000000000E+00 -0.72016536241E+03  0.72016536241E+03  0.00000000000E+00 0.  1.
        -24    2    1    2    0    0  0.38954914336E+02 -0.21394047335E+02 -0.70196727754E+03  0.70813711424E+03  0.82005629154E+02 0.  0.
         25    2    1    2    0    0  0.19569023391E+02  0.92139055416E+02  0.45417003024E+03  0.48040606156E+03  0.12508803064E+03 0.  0.
         24    2    1    2    0    0 -0.58523937727E+02 -0.70745008081E+02  0.18952650345E+04  0.18992553363E+04  0.81922974459E+02 0.  0.
        -13    1    5    5    0    0 -0.44317624742E+02 -0.81482755647E+02  0.11356581193E+04  0.11394397112E+04  0.00000000000E+00 0.  1.
         14    1    5    5    0    0 -0.14206312985E+02  0.10737747566E+02  0.75960691519E+03  0.75981562511E+03  0.00000000000E+00 0. -1.
         11    1    3    3    0    0  0.15396072961E+02  0.49906142378E+01 -0.22322163976E+02  0.27572165270E+02  0.00000000000E+00 0. -1.
        -12    1    3    3    0    0  0.23558841375E+02 -0.26384661573E+02 -0.67964511356E+03  0.68056494897E+03  0.00000000000E+00 0.  1.
          5    1    4    4  501    0  0.32383115020E+02  0.73587124800E+02  0.11453684059E+03  0.13999961188E+03  0.41800000000E+01 0.  1.
         -5    1    4    4    0  501 -0.12814091629E+02  0.18551930616E+02  0.33963318965E+03  0.34040644968E+03  0.41800000000E+01 0.  1.
</event>
<event>
11    1  0.8453735E-009  0.2215318E+03  0.7561462E-02  0.1040262E+00
         22   -1    0    0    0    0  0.00000000000E+00  0.00000000000E+00  0.16655916532E+03  0.16655916532E+03  0.00000000000E+00 0. -1.
         22   -1    0    0    0    0 -0.00000000000E+00 -0.00000000000E+00 -0.26790662013E+04  0.26790662013E+04  0.00000000000E+00 0. -1.
         24    2    1    2    0    0 -0.13488407266E+03  0.83362704743E+02 -0.21705556986E+04  0.21778169072E+04  0.80195928789E+02 0.  0.
         25    2    1    2    0    0  0.44095543093E+02 -0.23922025124E+03 -0.37929999109E+03  0.46763968701E+03  0.12509055960E+03 0.  0.
        -24    2    1    2    0    0  0.90788529567E+02  0.15585754650E+03  0.37348653730E+02  0.20016877238E+03  0.78348475427E+02 0.  0.
        -11    1    3    3    0    0 -0.91967622061E+01 -0.14713056195E+02 -0.28836291157E+03  0.28888444615E+03  0.00000000000E+00 0.  1.
         12    1    3    3    0    0 -0.12568731045E+03  0.98075760938E+02 -0.18821927871E+04  0.18889324611E+04  0.00000000000E+00 0. -1.
         11    1    5    5    0    0  0.67044575607E+02  0.13539958252E+03 -0.41930994540E+00  0.15109003239E+03  0.00000000000E+00 0. -1.
        -12    1    5    5    0    0  0.23743953960E+02  0.20457963973E+02  0.37767963676E+02  0.49078739998E+02  0.00000000000E+00 0.  1.
          5    1    4    4  501    0  0.23352836615E+02  0.10396138727E+01 -0.78899470902E+02  0.82395598690E+02  0.41800000000E+01 0. -1.
         -5    1    4    4    0  501  0.20742706479E+02 -0.24025986511E+03 -0.30040052019E+03  0.38524408832E+03  0.41800000000E+01 0. -1.
</event>
<event>
11    1  0.8453735E-009  0.1334485E+03  0.7561462E-02  0.1115103E+00
         22   -1    0    0    0    0  0.00000000000E+00  0.00000000000E+00  0.95426267853E+03  0.95426267853E+03  0.00000000000E+00 0.  1.
         22   -1    0    0    0    0 -0.00000000000E+00 -0.00000000000E+00 -0.17868795375E+04  0.17868795375E+04  0.00000000000E+00 0. -1.
        -24    2    1    2    0    0  0.14412307137E+02 -0.44411890972E+02 -0.17614354977E+04  0.17638008671E+04  0.78475192462E+02 0.  0.
         25    2    1    2    0    0 -0.37468671780E+01  0.13321214757E+02  0.15984727514E+03  0.20344737674E+03  0.12509272544E+03 0.  0.
         24    2    1    2    0    0 -0.10665439959E+02  0.31090676215E+02  0.76897136355E+03  0.77389397215E+03  0.80712702913E+02 0.  0.
        -11    1    5    5    0    0 -0.37131698292E+02 -0.11613467125E+01  0.53060620676E+03  0.53190512161E+03  0.00000000000E+00 0.  1.
         12    1    5    5    0    0  0.26466258332E+02  0.32252022927E+02  0.23836515680E+03  0.24198885054E+03  0.00000000000E+00 0. -1.
         13    1    3    3    0    0 -0.12736550369E+02 -0.57619870936E+02 -0.13312353468E+04  0.13325426139E+04  0.00000000000E+00 0. -1.
        -14    1    3    3    0    0  0.27148857506E+02  0.13207979963E+02 -0.43020015083E+03  0.43125825323E+03  0.00000000000E+00 0.  1.
          5    1    4    4  501    0 -0.12807202008E+02 -0.42140518573E+02  0.13462497370E+03  0.14170816375E+03  0.41800000000E+01 0.  1.
         -5    1    4    4    0  501  0.90603348296E+01  0.55461733330E+02  0.25222301439E+02  0.61739212994E+02  0.41800000000E+01 0.  1.
</event>
<event>
11    1  0.8453735E-009  0.1270495E+03  0.7561462E-02  0.1122948E+00
         22   -1    0    0    0    0  0.00000000000E+00  0.00000000000E+00  0.21772580601E+03  0.21772580601E+03  0.00000000000E+00 0.  1.
         22   -1    0    0    0    0 -0.00000000000E+00 -0.00000000000E+00 -0.78720276803E+03  0.78720276803E+03  0.00000000000E+00 0. -1.
        -24    2    1    2    0    0  0.23251492763E+02 -0.12229246642E+02 -0.29220615237E+03  0.30497496051E+03  0.83277275807E+02 0.  0.
         25    2    1    2    0    0 -0.97724056792E+01  0.15938164961E+02 -0.47248165789E+03  0.48911735735E+03  0.12508935689E+03 0.  0.
         24    2    1    2    0    0 -0.13479087083E+02 -0.37089183192E+01  0.19521084823E+03  0.21083625618E+03  0.78416897340E+02 0.  0.
        -13    1    5    5    0    0 -0.24049562816E+02  0.22730095996E+02  0.16875526341E+03  0.17196911834E+03  0.00000000000E+00 0.  1.
         14    1    5    5    0    0  0.10570475733E+02 -0.26439014316E+02  0.26455584823E+02  0.38867137835E+02  0.00000000000E+00 0. -1.
         13    1    3    3    0    0 -0.30559832244E+02  0.16697773367E+01 -0.12840232216E+03  0.13199942363E+03  0.00000000000E+00 0. -1.
        -14    1    3    3    0    0  0.53811325007E+02 -0.13899023979E+02 -0.16380383021E+03  0.17297553688E+03  0.00000000000E+00 0.  1.
          5    1    4    4  501    0 -0.81201217509E+01 -0.29794468613E+02 -0.41190984608E+03  0.41308696474E+03  0.41800000000E+01 0. -1.
         -5    1    4    4    0  501 -0.16522839283E+01  0.45732633574E+02 -0.60571811809E+02  0.76030392618E+02  0.41800000000E+01 0. -1.
</event>
<event>
11    1  0.8453735E-009  0.1522258E+03  0.7561462E-02  0.1094626E+00
         22   -1    0    0    0    0  0.00000000000E+00  0.00000000000E+00  0.88783673074E+03  0.88783673074E+03  0.00000000000E+00 0. -1.
         22   -1    0    0    0    0 -0.00000000000E+00 -0.00000000000E+00 -0.35498443384E+03  0.35498443384E+03  0.00000000000E+00 0. -1.
        -24    2    1    2    0    0 -0.14914624160E+02 -0.28955912723E+02 -0.31881587982E+03  0.32851678394E+03  0.72241409244E+02 0.  0.
         25    2    1    2    0    0  0.91384773268E+02  0.59875527025E+02  0.23921839754E+03  0.29121945681E+03  0.12508826795E+03 0.  0.
         24    2    1    2    0    0 -0.76470149108E+02 -0.30919614303E+02  0.61244977918E+03  0.62308492384E+03  0.79601407310E+02 0.  0.
        -13    1    5    5    0    0  0.10354857994E+02 -0.18831635378E+02  0.60204294101E+02  0.63925038939E+02  0.00000000000E+00 0.  1.
         14    1    5    5    0    0 -0.86825007102E+02 -0.12087978924E+02  0.55224548508E+03  0.55915988490E+03  0.00000000000E+00 0. -1.
         11    1    3    3    0    0 -0.17353818570E+02 -0.51196522698E+02 -0.26063843435E+03  0.26618533471E+03  0.00000000000E+00 0. -1.
        -12    1    3    3    0    0  0.24391944102E+01  0.22240609976E+02 -0.58177445468E+02  0.62331449226E+02  0.00000000000E+00 0.  1.
          5    1    4    4  501    0  0.46142204961E+02  0.28373741706E+02  0.22854146654E+03  0.23491029484E+03  0.41800000000E+01 0.  1.
         -5    1    4    4    0  501  0.45242568306E+02  0.31501785319E+02  0.10676931003E+02  0.56309161962E+02  0.41800000000E+01 0.  1.
</event>
<event>
11    1  0.8453735E-009  0.1474766E+03  0.7561462E-02  0.1099485E+00
         22   -1    0    0    0    0  0.00000000000E+00  0.00000000000E+00  0.20068332482E+04  0.20068332482E+04  0.00000000000E+00 0. -1.
         22   -1    0    0    0    0 -0.00000000000E+00 -0.00000000000E+00 -0.10968402366E+03  0.10968402366E+03  0.00000000000E+00 0.  1.
         24    2    1    2    0    0  0.59109077066E+02 -0.49525504253E+02 -0.73091898713E+02  0.12725338505E+03  0.70030991614E+02 0.  0.
         25    2    1    2    0    0 -0.79183514132E+02  0.91006777035E+02  0.11016488732E+04  0.11152710047E+04  0.12508761617E+03 0.  0.
        -24    2    1    2    0    0  0.20074437067E+02 -0.41481272783E+02  0.86859225002E+03  0.87399288207E+03  0.85366164817E+02 0.  0.
        -11    1    3    3    0    0  0.63055518995E+02 -0.58814043578E+02 -0.77781242526E+02  0.11612498390E+03  0.00000000000E+00 0.  1.
         12    1    3    3    0    0 -0.39464419298E+01  0.92885393251E+01  0.46893438131E+01  0.11128401147E+02  0.00000000000E+00 0. -1.
         11    1    5    5    0    0  0.24162963328E+02 -0.66969172564E+02  0.63500536650E+03  0.63898398600E+03  0.00000000000E+00 0. -1.
        -12    1    5    5    0    0 -0.40885262616E+01  0.25487899781E+02  0.23358688352E+03  0.23500889607E+03  0.00000000000E+00 0.  1.
          5    1    4    4  501    0 -0.18427508305E+02  0.14670025679E+02  0.74813942423E+03  0.74852177871E+03  0.41800000000E+01 0. -1.
         -5    1    4    4    0  501 -0.60756005828E+02  0.76336751357E+02  0.35350944898E+03  0.36674922600E+03  0.41800000000E+01 0. -1.
</event>
<event>
11    1  0.8453735E-009  0.1340138E+03  0.7561462E-02  0.1114433E+00
         22   -1    0    0    0    0  0.00000000000E+00  0.00000000000E+00  0.21098191753E+04  0.21098191753E+04  0.00000000000E+00 0. -1.
         22   -1    0    0    0    0 -0.00000000000E+00 -0.00000000000E+00 -0.19094171028E+04  0.19094171028E+04  0.00000000000E+00 0. -1.
         24    2    1    2    0    0 -0.15234274106E+02  0.39733149452E+02 -0.11344654538E+04  0.11379211465E+04  0.77729425011E+02 0.  0.
         25    2    1    2    0    0  0.22775522146E+02 -0.65391901419E+02 -0.76574220675E+03  0.77897652724E+03  0.12509387518E+03 0.  0.
        -24    2    1    2    0    0 -0.75412480396E+01  0.25658751968E+02  0.21006097330E+04  0.21023386043E+04  0.80938957014E+02 0.  0.
        -13    1    3    3    0    0 -0.79428405311E+01  0.34877162410E+02 -0.18561458217E+03  0.18902983439E+03  0.00000000000E+00 0.  1.
         14    1    3    3    0    0 -0.72914335751E+01  0.48559870417E+01 -0.94885087163E+03  0.94889131212E+03  0.00000000000E+00 0. -1.
         11    1    5    5    0    0 -0.14785157857E+02  0.44106469015E+02  0.19332298075E+04  0.19337894069E+04  0.00000000000E+00 0. -1.
        -12    1    5    5    0    0  0.72439098179E+01 -0.18447717047E+02  0.16737992552E+03  0.16854919745E+03  0.00000000000E+00 0.  1.
          5    1    4    4  501    0  0.48734814963E+02 -0.78852749872E+02 -0.70861131386E+03  0.71466097198E+03  0.41800000000E+01 0.  1.
         -5    1    4    4    0  501 -0.25959292817E+02  0.13460848453E+02 -0.57130892893E+02  0.64315555252E+02  0.41800000000E+01 0.  1.
</event>
<event>
11    1  0.1156768E-008  0.1730550E+03  0.7561462E-02  0.1075403E+00
         22   -1    0    0    0    0  0.00000000000E+00  0.00000000000E+00  0.28862615464E+03  0.28862615464E+03  0.00000000000E+00 0. -1.
         22   -1    0    0    0    0 -0.00000000000E+00 -0.00000000000E+00 -0.99036504804E+03  0.99036504804E+03  0.00000000000E+00 0. -1.
         24    2    1    2    0    0 -0.93042569967E+02 -0.48976724496E+02 -0.53704104535E+03  0.55308961721E+03  0.80245877803E+02 0.  0.
         25    2    1    2    0    0  0.18160954540E+03  0.10204356258E+02 -0.40089721763E+03  0.45765398226E+03  0.12506971060E+03 0.  0.
        -24    2    1    2    0    0 -0.88566975429E+02  0.38772368238E+02  0.23619936959E+03  0.26824760321E+03  0.82578621674E+02 0.  0.
        -13    1    3    3    0    0 -0.22108492761E+01  0.14771138451E+02 -0.24665976891E+02  0.28835478176E+02  0.00000000000E+00 0.  1.
         14    1    3    3    0    0 -0.90831720691E+02 -0.63747862947E+02 -0.51237506846E+03  0.52425413903E+03  0.00000000000E+00 0. -1.
         13    1    5    5    0    0 -0.67555903465E+02 -0.36664459437E+00  0.19949550312E+03  0.21062381225E+03  0.00000000000E+00 0. -1.
        -14    1    5    5    0    0 -0.21011071964E+02  0.39139012832E+02  0.36703866462E+02  0.57623790954E+02  0.00000000000E+00 0.  1.
          5    1    4    4  501    0  0.10826955663E+03 -0.51808341486E+02 -0.26752128915E+03  0.29324309657E+03  0.41800000000E+01 0.  1.
         -5    1    4    4    0  501  0.73339988765E+02  0.62012697744E+02 -0.13337592849E+03  0.16441088569E+03  0.41800000000E+01 0.  1.
</event>
<event>
11    1  0.8453735E-009  0.1794349E+03  0.7561462E-02  0.1070101E+00
         22   -1    0    0    0    0  0.00000000000E+00  0.00000000000E+00  0.19384190623E+04  0.19384190623E+04  0.00000000000E+00 0. -1.
         22   -1    0    0    0    0 -0.00000000000E+00 -0.00000000000E+00 -0.38561743437E+03  0.38561743437E+03  0.00000000000E+00 0. -1.
         24    2    1    2    0    0 -0.35382210560E+02  0.56716416171E+02 -0.35140309791E+03  0.36705773395E+03  0.82332193847E+02 0.  0.
         25    2    1    2    0    0  0.12091440569E+03 -0.14000836024E+03  0.52818962733E+03  0.57345980842E+03  0.12509690246E+03 0.  0.
        -24    2    1    2    0    0 -0.85532195134E+02  0.83291944069E+02  0.13760150985E+04  0.13835189543E+04  0.80335803031E+02 0.  0.
        -11    1    3    3    0    0 -0.23696182338E+02  0.59729146614E+02 -0.12700486226E+03  0.14233522070E+03  0.00000000000E+00 0.  1.
         12    1    3    3    0    0 -0.11686028222E+02 -0.30127304430E+01 -0.22439823565E+03  0.22472251326E+03  0.00000000000E+00 0. -1.
         11    1    5    5    0    0 -0.69310219934E+02  0.72662091456E+02  0.13271817459E+04  0.13309752337E+04  0.00000000000E+00 0. -1.
        -12    1    5    5    0    0 -0.16221975200E+02  0.10629852613E+02  0.48833352580E+02  0.52543720559E+02  0.00000000000E+00 0.  1.
          5    1    4    4  501    0  0.91720819476E+02 -0.86381733315E+02  0.17893126292E+03  0.21887983421E+03  0.41800000000E+01 0.  1.
         -5    1    4    4    0  501  0.29193586218E+02 -0.53626626925E+02  0.34925836441E+03  0.35457997420E+03  0.41800000000E+01 0.  1.
</event>
<event>
11    1  0.8453735E-009  0.2609661E+03  0.7561462E-02  0.1018214E+00
         22   -1    0    0    0    0  0.00000000000E+00  0.00000000000E+00  0.24276751289E+04  0.24276751289E+04  0.00000000000E+00 0.  1.
         22   -1    0    0    0    0 -0.00000000000E+00 -0.00000000000E+00 -0.48343526223E+03  0.48343526223E+03  0.00000000000E+00 0.  1.
         24    2    1    2    0    0  0.23814041121E+02  0.17851521979E+02 -0.42006434805E+03  0.42860124766E+03  0.79744514591E+02 0.  0.
         25    2    1    2    0    0 -0.11921488599E+03 -0.22254419397E+03  0.33045054885E+03  0.43426039789E+03  0.12508565317E+03 0.  0.
        -24    2    1    2    0    0  0.95400844870E+02  0.20469267199E+03  0.20338536658E+04  0.20482487455E+04  0.88100955780E+02 0.  0.
        -13    1    3    3    0    0 -0.31733384334E+01  0.35984280087E+02 -0.34383847359E+03  0.34573086991E+03  0.00000000000E+00 0.  1.
         14    1    3    3    0    0  0.26987379555E+02 -0.18132758109E+02 -0.76225874461E+02  0.82870377755E+02  0.00000000000E+00 0. -1.
         13    1    5    5    0    0  0.26326244800E+02  0.56489472437E+01  0.12908571130E+03  0.13186395502E+03  0.00000000000E+00 0. -1.
        -14    1    5    5    0    0  0.69074600069E+02  0.19904372475E+03  0.19047679545E+04  0.19163847905E+04  0.00000000000E+00 0.  1.
          5    1    4    4  501    0 -0.86005203398E+02 -0.11500781806E+03  0.27142853426E+03  0.30710684597E+03  0.41800000000E+01 0. -1.
         -5    1    4    4    0  501 -0.33209682592E+02 -0.10753637591E+03  0.59022014585E+02  0.12715355192E+03  0.41800000000E+01 0. -1.
</event>
<event>
11    1  0.8453735E-009  0.2435343E+03  0.7561462E-02  0.1027401E+00
         22   -1    0    0    0    0  0.00000000000E+00  0.00000000000E+00  0.31059145722E+04  0.31059145722E+04  0.00000000000E+00 0.  1.
         22   -1    0    0    0    0 -0.00000000000E+00 -0.00000000000E+00 -0.13688528514E+04  0.13688528514E+04  0.00000000000E+00 0.  1.
        -24    2    1    2    0    0  0.16873544493E+03 -0.12203289902E+03 -0.13354723928E+04  0.13539714313E+04  0.79927755517E+02 0.  0.
         25    2    1    2    0    0 -0.28362879273E+03  0.20438163888E+03  0.18013337492E+04  0.18392029675E+04  0.12508850179E+03 0.  0.
         24    2    1    2    0    0  0.11489334781E+03 -0.82348739863E+02  0.12712003644E+04  0.12815930248E+04  0.80922916727E+02 0.  0.
        -13    1    5    5    0    0  0.73295741867E+02 -0.55187361799E+02  0.10852224475E+04  0.10890939680E+04  0.00000000000E+00 0.  1.
         14    1    5    5    0    0  0.41597605940E+02 -0.27161378064E+02  0.18597791688E+03  0.19249905674E+03  0.00000000000E+00 0. -1.
         13    1    3    3    0    0 -0.26675148887E+01 -0.10024897192E+02 -0.18788948545E+02  0.21462497218E+02  0.00000000000E+00 0. -1.
        -14    1    3    3    0    0  0.17140295982E+03 -0.11200800183E+03 -0.13166834442E+04  0.13325089341E+04  0.00000000000E+00 0.  1.
          5    1    4    4  501    0 -0.96322975373E+02  0.12171311394E+03  0.56159099193E+03  0.58266123288E+03  0.41800000000E+01 0. -1.
         -5    1    4    4    0  501 -0.18730581736E+03  0.82668524945E+02  0.12397427572E+04  0.12565417346E+04  0.41800000000E+01 0. -1.
</event>
<event>
11    1  0.8453735E-009  0.1555879E+03  0.7561462E-02  0.1091302E+00
         22   -1    0    0    0    0  0.00000000000E+00  0.00000000000E+00  0.58030510165E+03  0.58030510165E+03  0.00000000000E+00 0.  1.
         22   -1    0    0    0    0 -0.00000000000E+00 -0.00000000000E+00 -0.67473233226E+03  0.67473233226E+03  0.00000000000E+00 0. -1.
        -24    2    1    2    0    0  0.71592441458E+02 -0.60136475066E+02 -0.61641416504E+03  0.62866410710E+03  0.80686203244E+02 0.  0.
         25    2    1    2    0    0 -0.52333635483E+02  0.54144918777E+02  0.61149318234E+02  0.15829778398E+03  0.12509383543E+03 0.  0.
         24    2    1    2    0    0 -0.19258805975E+02  0.59915562893E+01  0.46083761619E+03  0.46807554282E+03  0.79477071742E+02 0.  0.
        -11    1    5    5    0    0 -0.16780611250E+02  0.25603243820E+02  0.43217235933E+03  0.43325519406E+03  0.00000000000E+00 0.  1.
         12    1    5    5    0    0 -0.24781947250E+01 -0.19611687531E+02  0.28665256861E+02  0.34820348761E+02  0.00000000000E+00 0. -1.
         13    1    3    3    0    0  0.73335139096E+02 -0.74921588682E+02 -0.47300547524E+03  0.48448474350E+03  0.00000000000E+00 0. -1.
        -14    1    3    3    0    0 -0.17426976383E+01  0.14785113616E+02 -0.14340868980E+03  0.14417936360E+03  0.00000000000E+00 0.  1.
          5    1    4    4  501    0 -0.37215321616E+02  0.17973557717E+02  0.96678667407E+02  0.10522483581E+03  0.41800000000E+01 0.  1.
         -5    1    4    4    0  501 -0.15118313867E+02  0.36171361060E+02 -0.35529349173E+02  0.53072948173E+02  0.41800000000E+01 0.  1.
</event>
<event>
11    1  0.8453735E-009  0.1403646E+03  0.7561462E-02  0.1107152E+00
         22   -1    0    0    0    0  0.00000000000E+00  0.00000000000E+00  0.58320697123E+02  0.58320697123E+02  0.00000000000E+00 0. -1.
         22   -1    0    0    0    0 -0.00000000000E+00 -0.00000000000E+00 -0.97017980754E+03  0.97017980754E+03  0.00000000000E+00 0. -1.
        -24    2    1    2    0    0  0.59763400007E+02  0.17902384127E+02 -0.70338946604E+03  0.71061259190E+03  0.79506952482E+02 0.  0.
         25    2    1    2    0    0 -0.70456334377E+02 -0.18291471685E+02 -0.18056958534E+03  0.23141219166E+03  0.12509018469E+03 0.  0.
         24    2    1    2    0    0  0.10692934370E+02  0.38908755787E+00 -0.27900059037E+02  0.86475721109E+02  0.81148917507E+02 0.  0.
        -11    1    5    5    0    0 -0.18382751784E+02 -0.24389685823E+02 -0.36220401262E+02  0.47378263004E+02  0.00000000000E+00 0.  1.
         12    1    5    5    0    0  0.29075686154E+02  0.24778773381E+02  0.83203422247E+01  0.39097458106E+02  0.00000000000E+00 0. -1.
         13    1    3    3    0    0 -0.32070129296E+01  0.98881570046E+01 -0.42298593296E+03  0.42311364911E+03  0.00000000000E+00 0. -1.
        -14    1    3    3    0    0  0.62970412936E+02  0.80142271222E+01 -0.28040353308E+03  0.28749894279E+03  0.00000000000E+00 0.  1.
          5    1    4    4  501    0 -0.43830424643E+02 -0.45395635116E+02 -0.18249324172E+03  0.19314017057E+03  0.41800000000E+01 0. -1.
         -5    1    4    4    0  501 -0.26625909734E+02  0.27104163431E+02  0.19236563804E+01  0.38272021091E+02  0.41800000000E+01 0. -1.
</event>
<event>
11    1  0.8453735E-009  0.1411921E+03  0.7561462E-02  0.1106234E+00
         22   -1    0    0    0    0  0.00000000000E+00  0.00000000000E+00  0.24372621416E+03  0.24372621416E+03  0.00000000000E+00 0. -1.
         22   -1    0    0    0    0 -0.00000000000E+00 -0.00000000000E+00 -0.76322541880E+03  0.76322541880E+03  0.00000000000E+00 0. -1.
         24    2    1    2    0    0  0.47037658303E+02 -0.29338245890E+02 -0.57674258403E+03  0.58504499162E+03  0.81070093237E+02 0.  0.
         25    2    1    2    0    0 -0.11904970851E+02 -0.30164670615E+02 -0.14409907357E+03  0.19355374187E+03  0.12508745861E+03 0.  0.
        -24    2    1    2    0    0 -0.35132687452E+02  0.59502916505E+02  0.20134245295E+03  0.22835289947E+03  0.82652044961E+02 0.  0.
        -13    1    3    3    0    0  0.11815951540E+02  0.48239262529E+01 -0.10083362517E+02  0.16265336607E+02  0.00000000000E+00 0.  1.
         14    1    3    3    0    0  0.35221706763E+02 -0.34162172143E+02 -0.56665922151E+03  0.56877965501E+03  0.00000000000E+00 0. -1.
         13    1    5    5    0    0 -0.56379114498E+02  0.34702322416E+02  0.17255491063E+03  0.18481897337E+03  0.00000000000E+00 0. -1.
        -14    1    5    5    0    0  0.21246427046E+02  0.24800594090E+02  0.28787542320E+02  0.43533926106E+02  0.00000000000E+00 0.  1.
          5    1    4    4  501    0  0.20763250362E+02  0.27763785107E+02 -0.14020810892E+00  0.34920372097E+02  0.41800000000E+01 0.  1.
         -5    1    4    4    0  501 -0.32668221213E+02 -0.57928455722E+02 -0.14395886546E+03  0.15863336977E+03  0.41800000000E+01 0.  1.
</event>
<event>
11    1  0.8453735E-009  0.1691128E+03  0.7561462E-02  0.1078806E+00
         22   -1    0    0    0    0  0.00000000000E+00  0.00000000000E+00  0.67707470555E+03  0.67707470555E+03  0.00000000000E+00 0. -1.
         22   -1    0    0    0    0 -0.00000000000E+00 -0.00000000000E+00 -0.20415064631E+03  0.20415064631E+03  0.00000000000E+00 0.  1.
        -24    2    1    2    0    0 -0.89830717502E+02  0.55223703391E+02 -0.11774909440E+03  0.17773734591E+03  0.81280376936E+02 0.  0.
         25    2    1    2    0    0  0.16333382237E+03 -0.99027391558E+02  0.23005641281E+03  0.32412652061E+03  0.12509071300E+03 0.  0.
         24    2    1    2    0    0 -0.73503104867E+02  0.43803688167E+02  0.36061674084E+03  0.37936148534E+03  0.80927333247E+02 0.  0.
        -11    1    5    5    0    0 -0.20861422774E+02  0.85309512837E+01  0.13004772323E+02  0.26021148959E+02  0.00000000000E+00 0.  1.
         12    1    5    5    0    0 -0.52641682093E+02  0.35272736883E+02  0.34761196852E+03  0.35334033639E+03  0.00000000000E+00 0. -1.
         11    1    3    3    0    0 -0.88664241483E+01  0.41015278884E+02 -0.72854096379E+02  0.84074882921E+02  0.00000000000E+00 0. -1.
        -12    1    3    3    0    0 -0.80964293354E+02  0.14208424507E+02 -0.44894998025E+02  0.93662462988E+02  0.00000000000E+00 0.  1.
          5    1    4    4  501    0  0.11050073880E+03 -0.59469845211E+02  0.55150582690E+02  0.13713546199E+03  0.41800000000E+01 0.  1.
         -5    1    4    4    0  501  0.52833083568E+02 -0.39557546346E+02  0.17490583012E+03  0.18699105861E+03  0.41800000000E+01 0.  1.
</event>
<event>
11    1  0.8453735E-009  0.1328179E+03  0.7561462E-02  0.1115854E+00
         22   -1    0    0    0    0  0.00000000000E+00  0.00000000000E+00  0.30019575174E+03  0.30019575174E+03  0.00000000000E+00 0. -1.
         22   -1    0    0    0    0 -0.00000000000E+00 -0.00000000000E+00 -0.97438088423E+03  0.97438088423E+03  0.00000000000E+00 0.  1.
         24    2    1    2    0    0  0.24299843688E+02  0.18224098324E+02 -0.91948561981E+03  0.92420178262E+03  0.88161952087E+02 0.  0.
         25    2    1    2    0    0  0.14737189138E+02  0.14887457220E+02  0.56477267190E+02  0.13884040599E+03  0.12509258771E+03 0.  0.
        -24    2    1    2    0    0 -0.39037032826E+02 -0.33111555544E+02  0.18882322013E+03  0.21153444735E+03  0.80450909968E+02 0.  0.
        -11    1    3    3    0    0 -0.21021546277E+02 -0.21588654667E+02 -0.42149190876E+03  0.42256763313E+03  0.00000000000E+00 0.  1.
         12    1    3    3    0    0  0.45321389965E+02  0.39812752991E+02 -0.49799371105E+03  0.50163414949E+03  0.00000000000E+00 0. -1.
         11    1    5    5    0    0  0.13080478538E+01 -0.50185454938E+02  0.83000084127E+02  0.97001571336E+02  0.00000000000E+00 0. -1.
        -12    1    5    5    0    0 -0.40345080680E+02  0.17073899393E+02  0.10582313600E+03  0.11453287602E+03  0.00000000000E+00 0.  1.
          5    1    4    4  501    0  0.53601674514E+02 -0.23591260452E+02 -0.18927546405E+01  0.58743016611E+02  0.41800000000E+01 0.  1.
         -5    1    4    4    0  501 -0.38864485376E+02  0.38478717672E+02  0.58370021831E+02  0.80097389381E+02  0.41800000000E+01 0.  1.
</event>
<event>
11    1  0.8453735E-009  0.1762787E+03  0.7561462E-02  0.1072693E+00
         22   -1    0    0    0    0  0.00000000000E+00  0.00000000000E+00  0.89447642135E+02  0.89447642135E+02  0.00000000000E+00 0. -1.
         22   -1    0    0    0    0 -0.00000000000E+00 -0.00000000000E+00 -0.14604120744E+04  0.14604120744E+04  0.00000000000E+00 0.  1.
        -24    2    1    2    0    0 -0.78568842873E+02  0.94472862725E+02 -0.10837894976E+04  0.10936672278E+04  0.80063382428E+02 0.  0.
         25    2    1    2    0    0  0.12013863958E+03 -0.68803519190E+02 -0.30676798803E+03  0.35905748617E+03  0.12509381648E+03 0.  0.
         24    2    1    2    0    0 -0.41569796708E+02 -0.25669343534E+02  0.19593053371E+02  0.97135002554E+02  0.81635517913E+02 0.  0.
        -11    1    5    5    0    0  0.21260597154E+02 -0.19528818870E+02  0.17929881946E+02  0.33983355108E+02  0.00000000000E+00 0.  1.
         12    1    5    5    0    0 -0.62830393862E+02 -0.61405246645E+01  0.16631714245E+01  0.63151647446E+02  0.00000000000E+00 0. -1.
         11    1    3    3    0    0 -0.20613890169E+01  0.92296466334E+01 -0.99170382088E+01  0.13703406456E+02  0.00000000000E+00 0. -1.
        -12    1    3    3    0    0 -0.76507453856E+02  0.85243216091E+02 -0.10738724594E+04  0.10799638214E+04  0.00000000000E+00 0.  1.
          5    1    4    4  501    0 -0.25377866789E+02 -0.17790845419E+02 -0.67237053463E+02  0.74154191128E+02  0.41800000000E+01 0. -1.
         -5    1    4    4    0  501  0.14551650637E+03 -0.51012673771E+02 -0.23953093457E+03  0.28490329504E+03  0.41800000000E+01 0. -1.
</event>
<event>
11    1  0.8453735E-009  0.1459841E+03  0.7561462E-02  0.1101054E+00
         22   -1    0    0    0    0  0.00000000000E+00  0.00000000000E+00  0.28184067371E+04  0.28184067371E+04  0.00000000000E+00 0.  1.
         22   -1    0    0    0    0 -0.00000000000E+00 -0.00000000000E+00 -0.64112384277E+02  0.64112384277E+02  0.00000000000E+00 0. -1.
         24    2    1    2    0    0 -0.15854407831E+02  0.75578193400E+02  0.78884893359E+01  0.11139916936E+03  0.79900695266E+02 0.  0.
         25    2    1    2    0    0  0.72831540098E+02 -0.41658785276E+02  0.49908216775E+03  0.52131583829E+03  0.12508919004E+03 0.  0.
        -24    2    1    2    0    0 -0.56977132267E+02 -0.33919408124E+02  0.22473236958E+04  0.22498041137E+04  0.82206063486E+02 0.  0.
        -11    1    3    3    0    0 -0.30989711483E+01  0.52767513030E+02  0.42642787405E+02  0.67914809660E+02  0.00000000000E+00 0.  1.
         12    1    3    3    0    0 -0.12755436683E+02  0.22810680371E+02 -0.34754298069E+02  0.43484359696E+02  0.00000000000E+00 0. -1.
         11    1    5    5    0    0 -0.34210742481E+02  0.55964654310E+01  0.30806570338E+03  0.31000995617E+03  0.00000000000E+00 0. -1.
        -12    1    5    5    0    0 -0.22766389786E+02 -0.39515873555E+02  0.19392579924E+04  0.19397941576E+04  0.00000000000E+00 0.  1.
          5    1    4    4  501    0  0.62756129106E+02  0.19935611032E+02  0.11852335240E+03  0.13565035124E+03  0.41800000000E+01 0.  1.
         -5    1    4    4    0  501  0.10075410992E+02 -0.61594396308E+02  0.38055881535E+03  0.38566548705E+03  0.41800000000E+01 0.  1.
</event>
<event>
11    1  0.8453735E-009  0.1354090E+03  0.7561462E-02  0.1112796E+00
         22   -1    0    0    0    0  0.00000000000E+00  0.00000000000E+00  0.32419156709E+02  0.32419156709E+02  0.00000000000E+00 0. -1.
         22   -1    0    0    0    0 -0.00000000000E+00 -0.00000000000E+00 -0.17956516940E+04  0.17956516940E+04  0.00000000000E+00 0. -1.
         24    2    1    2    0    0 -0.34663363113E+02  0.45704662222E+02 -0.12150247574E+04  0.12190980759E+04  0.81390986544E+02 0.  0.
         25    2    1    2    0    0  0.23470707274E+02 -0.18786780301E+02 -0.48798237198E+03  0.50465670249E+03  0.12509106599E+03 0.  0.
        -24    2    1    2    0    0  0.11192655839E+02 -0.26917881921E+02 -0.60225407976E+02  0.10431607238E+03  0.80030589643E+02 0.  0.
        -13    1    3    3    0    0  0.20111919641E+02 -0.55171477415E+01 -0.15093688472E+03  0.15237083513E+03  0.00000000000E+00 0.  1.
         14    1    3    3    0    0 -0.54775282754E+02  0.51221809964E+02 -0.10640878726E+04  0.10667272407E+04  0.00000000000E+00 0. -1.
         11    1    5    5    0    0 -0.92779649386E+01  0.38025554044E+01  0.16422416708E+02  0.19241513234E+02  0.00000000000E+00 0. -1.
        -12    1    5    5    0    0  0.20470620778E+02 -0.30720437326E+02 -0.76647824685E+02  0.85074559143E+02  0.00000000000E+00 0.  1.
          5    1    4    4  501    0  0.24133234658E+02  0.94719109449E+01 -0.13896512559E+02  0.29710529671E+02  0.41800000000E+01 0.  1.
         -5    1    4    4    0  501 -0.66252738425E+00 -0.28258691246E+02 -0.47408585942E+03  0.47494617282E+03  0.41800000000E+01 0.  1.
</event>
<event>
11    1  0.8453735E-009  0.1638348E+03  0.7561462E-02  0.1083525E+00
         22   -1    0    0    0    0  0.00000000000E+00  0.00000000000E+00  0.31093897830E+03  0.31093897830E+03  0.00000000000E+00 0. -1.
         22   -1    0    0    0    0 -0.00000000000E+00 -0.00000000000E+00 -0.14585944049E+04  0.14585944049E+04  0.00000000000E+00 0. -1.
         24    2    1    2    0    0 -0.10636677292E+03  0.74402667653E+01 -0.13960474190E+04  0.14023666665E+04  0.79464603878E+02 0.  0.
         25    2    1    2    0    0  0.64509729341E+02  0.66448450670E+02  0.14133033017E+03  0.21023356388E+03  0.12508791860E+03 0.  0.
        -24    2    1    2    0    0  0.41857043575E+02 -0.73888717435E+02  0.10706166224E+03  0.15693315281E+03  0.77163853381E+02 0.  0.
        -11    1    3    3    0    0 -0.29184849661E+02  0.37401933809E+02 -0.37962790177E+03  0.38258071554E+03  0.00000000000E+00 0.  1.
         12    1    3    3    0    0 -0.77181923255E+02 -0.29961667044E+02 -0.10164195172E+04  0.10197859509E+04  0.00000000000E+00 0. -1.
         11    1    5    5    0    0  0.46629297013E+01 -0.57621073989E+02  0.20520726399E+02  0.61343551356E+02  0.00000000000E+00 0. -1.
        -12    1    5    5    0    0  0.37194113874E+02 -0.16267643446E+02  0.86540935837E+02  0.95589601452E+02  0.00000000000E+00 0.  1.
          5    1    4    4  501    0 -0.13686665126E+02  0.49758911350E+02  0.11471642090E+03  0.12585946005E+03  0.41800000000E+01 0.  1.
         -5    1    4    4    0  501  0.78196394467E+02  0.16689539320E+02  0.26613909272E+02  0.84374103830E+02  0.41800000000E+01 0.  1.
</event>
<event>
11    1  0.8453735E-009  0.3375630E+03  0.7561462E-02  0.9854383E-01
         22   -1    0    0    0    0  0.00000000000E+00  0.00000000000E+00  0.33584906775E+04  0.33584906775E+04  0.00000000000E+00 0. -1.
         22   -1    0    0    0    0 -0.00000000000E+00 -0.00000000000E+00 -0.10129367217E+04  0.10129367217E+04  0.00000000000E+00 0. -1.
         24    2    1    2    0    0 -0.17821471640E+02  0.30867978712E+03 -0.91231877792E+03  0.96660380678E+03  0.79978440253E+02 0.  0.
         25    2    1    2    0    0  0.67225695778E+02 -0.42024389228E+03  0.61706034988E+03  0.75995736717E+03  0.12508997300E+03 0.  0.
        -24    2    1    2    0    0 -0.49404224138E+02  0.11156410516E+03  0.26408123838E+04  0.26448662252E+04  0.80870119862E+02 0.  0.
        -13    1    3    3    0    0 -0.20689722926E+01  0.48617594180E+02 -0.72637893816E+02  0.87431199970E+02  0.00000000000E+00 0.  1.
         14    1    3    3    0    0 -0.15752499348E+02  0.26006219294E+03 -0.83968088410E+03  0.87917260681E+03  0.00000000000E+00 0. -1.
         11    1    5    5    0    0 -0.54243522965E+02  0.83821580289E+02  0.24451556495E+04  0.24471932019E+04  0.00000000000E+00 0. -1.
        -12    1    5    5    0    0  0.48392988273E+01  0.27742524869E+02  0.19565673427E+03  0.19767302337E+03  0.00000000000E+00 0.  1.
          5    1    4    4  501    0 -0.18971069568E+02 -0.21593289427E+03  0.24824000080E+03  0.32958684243E+03  0.41800000000E+01 0. -1.
         -5    1    4    4    0  501  0.86196765347E+02 -0.20431099801E+03  0.36882034908E+03  0.43037052474E+03  0.41800000000E+01 0. -1.
</event>
<event>
11    1  0.8453735E-009  0.1318756E+03  0.7561462E-02  0.1116986E+00
         22   -1    0    0    0    0  0.00000000000E+00  0.00000000000E+00  0.95245869367E+03  0.95245869367E+03  0.00000000000E+00 0. -1.
         22   -1    0    0    0    0 -0.00000000000E+00 -0.00000000000E+00 -0.16634641271E+04  0.16634641271E+04  0.00000000000E+00 0.  1.
         24    2    1    2    0    0  0.31441550287E+01 -0.22801788799E+02 -0.16387412958E+04  0.16408686131E+04  0.80292984511E+02 0.  0.
         25    2    1    2    0    0 -0.25424100577E+02 -0.14921391223E+02  0.17634113467E+03  0.21820210456E+03  0.12508768866E+03 0.  0.
        -24    2    1    2    0    0  0.22279945548E+02  0.37723180021E+02  0.75139472776E+03  0.75685210313E+03  0.79445797961E+02 0.  0.
        -13    1    3    3    0    0 -0.13066899881E+02 -0.42875944908E+02 -0.14036664825E+04  0.14043819582E+04  0.00000000000E+00 0.  1.
         14    1    3    3    0    0  0.16211054910E+02  0.20074156109E+02 -0.23507481338E+03  0.23648665487E+03  0.00000000000E+00 0. -1.
         13    1    5    5    0    0  0.52202908403E+02  0.28143657509E+02  0.49038933240E+03  0.49396245448E+03  0.00000000000E+00 0. -1.
        -14    1    5    5    0    0 -0.29922962855E+02  0.95795225120E+01  0.26100539536E+03  0.26288964864E+03  0.00000000000E+00 0.  1.
          5    1    4    4  501    0 -0.47222697398E+02  0.31613097170E+01  0.18278279113E+03  0.18885708396E+03  0.41800000000E+01 0.  1.
         -5    1    4    4    0  501  0.21798596821E+02 -0.18082700940E+02 -0.64416564554E+01  0.29345020609E+02  0.41800000000E+01 0.  1.
</event>
<event>
11    1  0.8453735E-009  0.1489381E+03  0.7561462E-02  0.1097969E+00
         22   -1    0    0    0    0  0.00000000000E+00  0.00000000000E+00  0.77450592593E+03  0.77450592593E+03  0.00000000000E+00 0. -1.
         22   -1    0    0    0    0 -0.00000000000E+00 -0.00000000000E+00 -0.81182242246E+03  0.81182242246E+03  0.00000000000E+00 0. -1.
        -24    2    1    2    0    0  0.26435242023E+02  0.75409503662E+01 -0.77908247149E+03  0.78372463846E+03  0.80617142014E+02 0.  0.
         25    2    1    2    0    0  0.33510978280E+02 -0.65442064486E+02  0.18949031231E+03  0.23866522954E+03  0.12509541903E+03 0.  0.
         24    2    1    2    0    0 -0.59946220304E+02  0.57901114120E+02  0.55227566265E+03  0.56393848039E+03  0.77923768929E+02 0.  0.
        -11    1    5    5    0    0  0.63362380463E+01  0.22727740540E+02  0.29503995675E+03  0.29598188151E+03  0.00000000000E+00 0.  1.
         12    1    5    5    0    0 -0.66282458350E+02  0.35173373580E+02  0.25723570590E+03  0.26795659888E+03  0.00000000000E+00 0. -1.
         11    1    3    3    0    0 -0.28765800224E+02 -0.93884265696E+00 -0.30852674398E+03  0.30986626864E+03  0.00000000000E+00 0. -1.
        -12    1    3    3    0    0  0.55201042248E+02  0.84797930232E+01 -0.47055572751E+03  0.47385836982E+03  0.00000000000E+00 0.  1.
          5    1    4    4  501    0  0.21247371662E+02 -0.32402515568E+02 -0.64799729371E+01  0.39507420403E+02  0.41800000000E+01 0.  1.
         -5    1    4    4    0  501  0.12263606618E+02 -0.33039548918E+02  0.19597028525E+03  0.19915780914E+03  0.41800000000E+01 0.  1.
</event>
<event>
11    1  0.8453735E-009  0.1487708E+03  0.7561462E-02  0.1098141E+00
         22   -1    0    0    0    0  0.00000000000E+00  0.00000000000E+00  0.74450832774E+02  0.74450832774E+02  0.00000000000E+00 0.  1.
         22   -1    0    0    0    0 -0.00000000000E+00 -0.00000000000E+00 -0.27900820350E+04  0.27900820350E+04  0.00000000000E+00 0.  1.
         24    2    1    2    0    0 -0.28475579972E+01  0.25723847413E+02 -0.22989973221E+04  0.23006033736E+04  0.81959570074E+02 0.  0.
         25    2    1    2    0    0 -0.76493669042E+02 -0.73389526980E+01 -0.42323828446E+03  0.44797661355E+03  0.12508900522E+03 0.  0.
        -24    2    1    2    0    0  0.79341227039E+02 -0.18384894715E+02  0.66044042871E+01  0.11595288057E+03  0.82270393796E+02 0.  0.
        -13    1    3    3    0    0 -0.25971452839E+02 -0.21062377175E+02 -0.80266853323E+03  0.80336474552E+03  0.00000000000E+00 0.  1.
         14    1    3    3    0    0  0.23123894842E+02  0.46786224588E+02 -0.14963287888E+04  0.14972386281E+04  0.00000000000E+00 0. -1.
         11    1    5    5    0    0 -0.68236319151E+01 -0.27828599345E+02 -0.26710000098E+01  0.28777198180E+02  0.00000000000E+00 0. -1.
        -12    1    5    5    0    0  0.86164858954E+02  0.94437046303E+01  0.92754042969E+01  0.87175682392E+02  0.00000000000E+00 0.  1.
          5    1    4    4  501    0 -0.36129036567E+02 -0.33016164650E+02 -0.38060186405E+03  0.38375855134E+03  0.41800000000E+01 0.  1.
         -5    1    4    4    0  501 -0.40364632474E+02  0.25677211952E+02 -0.42636420407E+02  0.64218062206E+02  0.41800000000E+01 0.  1.
</event>
<event>
11    1  0.8453735E-009  0.1286504E+03  0.7561462E-02  0.1120938E+00
         22   -1    0    0    0    0  0.00000000000E+00  0.00000000000E+00  0.20322392395E+03  0.20322392395E+03  0.00000000000E+00 0.  1.
         22   -1    0    0    0    0 -0.00000000000E+00 -0.00000000000E+00 -0.42969172713E+03  0.42969172713E+03  0.00000000000E+00 0. -1.
        -24    2    1    2    0    0  0.90325498361E+01  0.10017683402E+02 -0.36114713069E+03  0.36962520141E+03  0.77547395675E+02 0.  0.
         25    2    1    2    0    0  0.66252178872E+01  0.19383073801E+02  0.34890677136E+02  0.13146931949E+03  0.12508887062E+03 0.  0.
         24    2    1    2    0    0 -0.15657767723E+02 -0.29400757203E+02  0.99788650377E+02  0.13182113018E+03  0.79432143388E+02 0.  0.
        -11    1    5    5    0    0 -0.26276587171E+02 -0.53162391201E+02  0.60693855313E+02  0.84855423776E+02  0.00000000000E+00 0.  1.
         12    1    5    5    0    0  0.10618819448E+02  0.23761633998E+02  0.39094795064E+02  0.46965706402E+02  0.00000000000E+00 0. -1.
         13    1    3    3    0    0 -0.11053437490E+02  0.17529444402E+02 -0.33573463499E+03  0.33637360930E+03  0.00000000000E+00 0. -1.
        -14    1    3    3    0    0  0.20085987326E+02 -0.75117610009E+01 -0.25412495694E+02  0.33251592106E+02  0.00000000000E+00 0.  1.
          5    1    4    4  501    0 -0.19975376051E+02  0.11242040898E+02  0.77212434135E+02  0.80651295817E+02  0.41800000000E+01 0. -1.
         -5    1    4    4    0  501  0.26600593938E+02  0.81410329030E+01 -0.42321756998E+02  0.50818023673E+02  0.41800000000E+01 0. -1.
</event>
<event>
11    1  0.8453735E-009  0.1329438E+03  0.7561462E-02  0.1115704E+00
         22   -1    0    0    0    0  0.00000000000E+00  0.00000000000E+00  0.85687592251E+03  0.85687592251E+03  0.00000000000E+00 0.  1.
         22   -1    0    0    0    0 -0.00000000000E+00 -0.00000000000E+00 -0.17449662284E+03  0.17449662284E+03  0.00000000000E+00 0. -1.
         24    2    1    2    0    0 -0.25659078850E+02  0.20938697997E-01 -0.95455586580E+02  0.12658024618E+03  0.79072124971E+02 0.  0.
         25    2    1    2    0    0  0.25574933900E+02  0.44984375613E+02  0.14818412645E+02  0.13617938879E+03  0.12509024456E+03 0.  0.
        -24    2    1    2    0    0  0.84144949631E-01 -0.45005314311E+02  0.76301647360E+03  0.76861291039E+03  0.80908476862E+02 0.  0.
        -11    1    3    3    0    0  0.23253707512E+02 -0.26628009489E+01 -0.53342990307E+01  0.24005836125E+02  0.00000000000E+00 0.  1.
         12    1    3    3    0    0 -0.48912786362E+02  0.26837396469E+01 -0.90121287549E+02  0.10257441005E+03  0.00000000000E+00 0. -1.
         13    1    5    5    0    0  0.16660286942E+02  0.18518581186E+02  0.28902981097E+03  0.29010124894E+03  0.00000000000E+00 0. -1.
        -14    1    5    5    0    0 -0.16576141992E+02 -0.63523895497E+02  0.47398666263E+03  0.47851166144E+03  0.00000000000E+00 0.  1.
          5    1    4    4  501    0  0.18950663757E+02  0.88115443082E+02  0.10560862698E+01  0.90233290334E+02  0.41800000000E+01 0.  1.
         -5    1    4    4    0  501  0.66242701434E+01 -0.43131067469E+02  0.13762326375E+02  0.45946098455E+02  0.41800000000E+01 0.  1.
</event>
<event>
11    1  0.8453735E-009  0.1333949E+03  0.7561462E-02  0.1115167E+00
         22   -1    0    0    0    0  0.00000000000E+00  0.00000000000E+00  0.16588575247E+03  0.16588575247E+03  0.00000000000E+00 0. -1.
         22   -1    0    0    0    0 -0.00000000000E+00 -0.00000000000E+00 -0.12175506206E+04  0.12175506206E+04  0.00000000000E+00 0.  1.
         24    2    1    2    0    0 -0.42033197555E+02 -0.16959004044E+02 -0.11028684958E+04  0.11067587869E+04  0.80880751671E+02 0.  0.
         25    2    1    2    0    0  0.63224647195E+02  0.52060876243E+02 -0.32552577705E+02  0.15301159425E+03  0.12508072119E+03 0.  0.
        -24    2    1    2    0    0 -0.21191449640E+02 -0.35101872199E+02  0.83756205323E+02  0.12366599190E+03  0.81221651376E+02 0.  0.
        -11    1    3    3    0    0 -0.15152829683E+02 -0.83312985719E+01 -0.99820402152E+03  0.99835378868E+03  0.00000000000E+00 0.  1.
         12    1    3    3    0    0 -0.26880367872E+02 -0.86277054719E+01 -0.10466447424E+03  0.10840499826E+03  0.00000000000E+00 0. -1.
         11    1    5    5    0    0 -0.23544619403E+02  0.59575670990E+01  0.78540456124E+02  0.82209761931E+02  0.00000000000E+00 0. -1.
        -12    1    5    5    0    0  0.23531697630E+01 -0.41059439298E+02  0.52157491991E+01  0.41456229967E+02  0.00000000000E+00 0.  1.
          5    1    4    4  501    0  0.27090893073E+02  0.18061137083E+02  0.48096361451E+02  0.58231035927E+02  0.41800000000E+01 0.  1.
         -5    1    4    4    0  501  0.36133754122E+02  0.33999739159E+02 -0.80648939156E+02  0.94780558327E+02  0.41800000000E+01 0.  1.
</event>
<event>
11    1  0.8453735E-009  0.1845836E+03  0.7561462E-02  0.1065994E+00
         22   -1    0    0    0    0  0.00000000000E+00  0.00000000000E+00  0.63890341482E+03  0.63890341482E+03  0.00000000000E+00 0.  1.
         22   -1    0    0    0    0 -0.00000000000E+00 -0.00000000000E+00 -0.17576825907E+04  0.17576825907E+04  0.00000000000E+00 0. -1.
        -24    2    1    2    0    0  0.12699890503E+03  0.51890677290E+02 -0.16691509360E+04  0.16767223830E+04  0.80695342967E+02 0.  0.
         25    2    1    2    0    0 -0.81789998159E+02 -0.71614121475E+02  0.43318879727E+01  0.16578410519E+03  0.12508964020E+03 0.  0.
         24    2    1    2    0    0 -0.45208906870E+02  0.19723444185E+02  0.54603987216E+03  0.55407951728E+03  0.80073153818E+02 0.  0.
        -13    1    5    5    0    0 -0.64568029637E+02  0.31002276344E+02  0.41163139380E+03  0.41781643810E+03  0.00000000000E+00 0.  1.
         14    1    5    5    0    0  0.19359122766E+02 -0.11278832159E+02  0.13440847837E+03  0.13626307917E+03  0.00000000000E+00 0. -1.
         13    1    3    3    0    0  0.90474797745E+01  0.32216020929E+02 -0.59400954098E+03  0.59495131202E+03  0.00000000000E+00 0. -1.
        -14    1    3    3    0    0  0.11795142525E+03  0.19674656361E+02 -0.10751413950E+04  0.10817710710E+04  0.00000000000E+00 0.  1.
          5    1    4    4  501    0  0.28638627301E+02 -0.34563182358E+01 -0.17686670703E+02  0.34094102569E+02  0.41800000000E+01 0. -1.
         -5    1    4    4    0  501 -0.11042862546E+03 -0.68157803239E+02  0.22018558676E+02  0.13169000262E+03  0.41800000000E+01 0. -1.
</event>
<event>
11    1  0.8453735E-009  0.1745712E+03  0.7561462E-02  0.1074121E+00
         22   -1    0    0    0    0  0.00000000000E+00  0.00000000000E+00  0.54353561077E+03  0.54353561077E+03  0.00000000000E+00 0.  1.
         22   -1    0    0    0    0 -0.00000000000E+00 -0.00000000000E+00 -0.29758274636E+04  0.29758274636E+04  0.00000000000E+00 0. -1.
         24    2    1    2    0    0 -0.12014287719E+03  0.18173062207E+02 -0.28877387314E+04  0.28913891085E+04  0.79570252578E+02 0.  0.
         25    2    1    2    0    0  0.12743486299E+03 -0.13355991372E+03  0.99337286566E+02  0.24411537831E+03  0.12508607662E+03 0.  0.
        -24    2    1    2    0    0 -0.72919858031E+01  0.11538685151E+03  0.35610959198E+03  0.38385858754E+03  0.84652673723E+02 0.  0.
        -13    1    3    3    0    0  0.85889508804E+01 -0.10020114984E+02 -0.21683237851E+03  0.21723363725E+03  0.00000000000E+00 0.  1.
         14    1    3    3    0    0 -0.12873182807E+03  0.28193177192E+02 -0.26709063529E+04  0.26741554713E+04  0.00000000000E+00 0. -1.
         13    1    5    5    0    0 -0.12155335666E+02  0.22950896668E+02  0.14115278495E+02  0.29559041426E+02  0.00000000000E+00 0. -1.
        -14    1    5    5    0    0  0.48633498628E+01  0.92435954845E+02  0.34199431349E+03  0.35429954612E+03  0.00000000000E+00 0.  1.
          5    1    4    4  501    0  0.78267943793E+02 -0.10959925950E+03  0.12478297207E+03  0.18364675665E+03  0.41800000000E+01 0. -1.
         -5    1    4    4    0  501  0.49166919196E+02 -0.23960654218E+02 -0.25445685508E+02  0.60468621655E+02  0.41800000000E+01 0. -1.
</event>
<event>
11    1  0.8453735E-009  0.1384349E+03  0.7561462E-02  0.1109319E+00
         22   -1    0    0    0    0  0.00000000000E+00  0.00000000000E+00  0.78520721951E+03  0.78520721951E+03  0.00000000000E+00 0.  1.
         22   -1    0    0    0    0 -0.00000000000E+00 -0.00000000000E+00 -0.10380813034E+03  0.10380813034E+03  0.00000000000E+00 0.  1.
        -24    2    1    2    0    0  0.47752653796E+00 -0.60769918847E+02 -0.58588413572E+02  0.11716033226E+03  0.81244877875E+02 0.  0.
         25    2    1    2    0    0  0.96978669542E+01  0.40404919333E+02  0.36855845849E+03  0.39141805822E+03  0.12508458279E+03 0.  0.
         24    2    1    2    0    0 -0.10175393492E+02  0.20364999514E+02  0.37142904426E+03  0.38043695937E+03  0.79085228077E+02 0.  0.
        -11    1    5    5    0    0 -0.38252503661E+02  0.27658624118E+02  0.29373802730E+03  0.29750677674E+03  0.00000000000E+00 0.  1.
         12    1    5    5    0    0  0.28077110169E+02 -0.72936246043E+01  0.77691016957E+02  0.82930182631E+02  0.00000000000E+00 0. -1.
         13    1    3    3    0    0 -0.57081938268E+01 -0.38352525120E+02  0.13777237477E+02  0.41149871596E+02  0.00000000000E+00 0. -1.
        -14    1    3    3    0    0  0.61857203648E+01 -0.22417393727E+02 -0.72365651048E+02  0.76010460659E+02  0.00000000000E+00 0.  1.
          5    1    4    4  501    0 -0.49663251760E+02 -0.56826080979E+01  0.20990822136E+03  0.21581859142E+03  0.41800000000E+01 0.  1.
         -5    1    4    4    0  501  0.59361118714E+02  0.46087527431E+02  0.15865023713E+03  0.17559946680E+03  0.41800000000E+01 0.  1.
</event>
<event>
11    1  0.8453735E-009  0.1273022E+03  0.7561462E-02  0.1122629E+00
         22   -1    0    0    0    0  0.00000000000E+00  0.00000000000E+00  0.34189670403E+03  0.34189670403E+03  0.00000000000E+00 0.  1.
         22   -1    0    0    0    0 -0.00000000000E+00 -0.00000000000E+00 -0.52754100706E+03  0.52754100706E+03  0.00000000000E+00 0.  1.
         24    2    1    2    0    0 -0.21581855738E+02  0.33170367554E+01 -0.39554990907E+03  0.40419018340E+03  0.80207197707E+02 0.  0.
         25    2    1    2    0    0  0.42436373830E+02  0.58169877930E+01 -0.85936941739E+02  0.15769542192E+03  0.12509198603E+03 0.  0.
        -24    2    1    2    0    0 -0.20854518091E+02 -0.91340245484E+01  0.29584254778E+03  0.30755210577E+03  0.80914419970E+02 0.  0.
        -13    1    3    3    0    0 -0.42010261819E+02  0.83421807035E+01 -0.11278432409E+03  0.12064310108E+03  0.00000000000E+00 0.  1.
         14    1    3    3    0    0  0.20428406080E+02 -0.50251439480E+01 -0.28276558498E+03  0.28354708232E+03  0.00000000000E+00 0. -1.
         11    1    5    5    0    0 -0.29670201352E+02  0.30129048825E+02  0.18065388519E+03  0.18553680676E+03  0.00000000000E+00 0. -1.
        -12    1    5    5    0    0  0.88156832608E+01 -0.39263073373E+02  0.11518866259E+03  0.12201529901E+03  0.00000000000E+00 0.  1.
          5    1    4    4  501    0  0.62458103490E+02  0.50072462817E+02 -0.35894351170E+02  0.87830194523E+02  0.41800000000E+01 0. -1.
         -5    1    4    4    0  501 -0.20021729660E+02 -0.44255475024E+02 -0.50042590569E+02  0.69865227396E+02  0.41800000000E+01 0. -1.
</event>
<event>
11    1  0.8453735E-009  0.1406446E+03  0.7561462E-02  0.1106841E+00
         22   -1    0    0    0    0  0.00000000000E+00  0.00000000000E+00  0.60696424854E+03  0.60696424854E+03  0.00000000000E+00 0.  1.
         22   -1    0    0    0    0 -0.00000000000E+00 -0.00000000000E+00 -0.26980809533E+03  0.26980809533E+03  0.00000000000E+00 0. -1.
        -24    2    1    2    0    0 -0.10947661173E+02  0.57929208298E+02 -0.17912054129E+03  0.20504032798E+03  0.80509150563E+02 0.  0.
         25    2    1    2    0    0  0.31585168827E+02 -0.96072245935E+02  0.14231667139E+02  0.16148707370E+03  0.12509210725E+03 0.  0.
         24    2    1    2    0    0 -0.20637507654E+02  0.38143037637E+02  0.50204502736E+03  0.51024494220E+03  0.80124237861E+02 0.  0.
        -11    1    5    5    0    0  0.14512445420E+02  0.50598142332E+02  0.33307655404E+03  0.33721028147E+03  0.00000000000E+00 0.  1.
         12    1    5    5    0    0 -0.35149953074E+02 -0.12455104696E+02  0.16896847333E+03  0.17303466073E+03  0.00000000000E+00 0. -1.
         11    1    3    3    0    0  0.27404567248E+02  0.46493541785E+02 -0.13544703573E+03  0.14580315231E+03  0.00000000000E+00 0. -1.
        -12    1    3    3    0    0 -0.38352228420E+02  0.11435666514E+02 -0.43673505560E+02  0.59237175670E+02  0.00000000000E+00 0.  1.
          5    1    4    4  501    0 -0.18325463520E+02  0.24158160464E+02  0.31671039743E+01  0.30772427233E+02  0.41800000000E+01 0. -1.
         -5    1    4    4    0  501  0.49910632347E+02 -0.12023040640E+03  0.11064563165E+02  0.13071464647E+03  0.41800000000E+01 0. -1.
</event>
<event>
11    1  0.8453735E-009  0.1642131E+03  0.7561462E-02  0.1083180E+00
         22   -1    0    0    0    0  0.00000000000E+00  0.00000000000E+00  0.15288853977E+04  0.15288853977E+04  0.00000000000E+00 0.  1.
         22   -1    0    0    0    0 -0.00000000000E+00 -0.00000000000E+00 -0.44667938528E+03  0.44667938528E+03  0.00000000000E+00 0. -1.
         24    2    1    2    0    0 -0.36127150593E+02  0.10376629013E+03 -0.37326301791E+03  0.39736263687E+03  0.80617434009E+02 0.  0.
         25    2    1    2    0    0  0.78729039537E+01 -0.81304185893E+02  0.32904008593E+02  0.15297235325E+03  0.12508202835E+03 0.  0.
        -24    2    1    2    0    0  0.28254246639E+02 -0.22462104232E+02  0.14225650217E+04  0.14252297929E+04  0.79283496676E+02 0.  0.
        -11    1    3    3    0    0 -0.43682208741E+02  0.13562533548E+02 -0.12213924631E+03  0.13042267121E+03  0.00000000000E+00 0.  1.
         12    1    3    3    0    0  0.75550581477E+01  0.90203756578E+02 -0.25112377160E+03  0.26693996566E+03  0.00000000000E+00 0. -1.
         13    1    5    5    0    0 -0.20825656576E+02  0.29947339174E+01  0.15047428664E+03  0.15193810365E+03  0.00000000000E+00 0. -1.
        -14    1    5    5    0    0  0.49079903216E+02 -0.25456838150E+02  0.12720907351E+04  0.12732916892E+04  0.00000000000E+00 0.  1.
          5    1    4    4  501    0 -0.16472035802E+02 -0.41868174747E+02 -0.44010648907E+02  0.63076791591E+02  0.41800000000E+01 0.  1.
         -5    1    4    4    0  501  0.24344939756E+02 -0.39436011146E+02  0.76914657501E+02  0.89895561655E+02  0.41800000000E+01 0.  1.
</event>
<event>
11    1  0.8453735E-009  0.1503416E+03  0.7561462E-02  0.1096530E+00
         22   -1    0    0    0    0  0.00000000000E+00  0.00000000000E+00  0.23715956905E+03  0.23715956905E+03  0.00000000000E+00 0. -1.
         22   -1    0    0    0    0 -0.00000000000E+00 -0.00000000000E+00 -0.18749794101E+04  0.18749794101E+04  0.00000000000E+00 0.  1.
        -24    2    1    2    0    0  0.57039912239E+02  0.55559619550E+02 -0.14367820131E+04  0.14412722860E+04  0.81134618483E+02 0.  0.
         25    2    1    2    0    0 -0.75878895960E+02 -0.81622468213E+02 -0.40583435575E+03  0.43905365910E+03  0.12508699809E+03 0.  0.
         24    2    1    2    0    0  0.18838983721E+02  0.26062848663E+02  0.20479652782E+03  0.23181303404E+03  0.10373758025E+03 0.  0.
        -13    1    5    5    0    0  0.48137486575E+02 -0.60823347466E+01  0.44903621720E+02  0.66110117631E+02  0.00000000000E+00 0.  1.
         14    1    5    5    0    0 -0.29298502853E+02  0.32145183410E+02  0.15989290610E+03  0.16570291641E+03  0.00000000000E+00 0. -1.
         11    1    3    3    0    0 -0.15880676831E+02  0.61932305574E+01 -0.89065152661E+02  0.90681604639E+02  0.00000000000E+00 0. -1.
        -12    1    3    3    0    0  0.72920589070E+02  0.49366388993E+02 -0.13477168605E+04  0.13505906814E+04  0.00000000000E+00 0.  1.
          5    1    4    4  501    0 -0.69073147368E+02 -0.35100584048E+02 -0.86305639076E+02  0.11605725494E+03  0.41800000000E+01 0. -1.
         -5    1    4    4    0  501 -0.68057485929E+01 -0.46521884166E+02 -0.31952871668E+03  0.32299640416E+03  0.41800000000E+01 0. -1.
</event>
<event>
11    1  0.8453735E-009  0.1749241E+03  0.7561462E-02  0.1073824E+00
         22   -1    0    0    0    0  0.00000000000E+00  0.00000000000E+00  0.60474929007E+03  0.60474929007E+03  0.00000000000E+00 0. -1.
         22   -1    0    0    0    0 -0.00000000000E+00 -0.00000000000E+00 -0.20594861969E+03  0.20594861969E+03  0.00000000000E+00 0.  1.
         24    2    1    2    0    0  0.72025559956E+02  0.54726039306E+02 -0.30712812405E+02  0.12356685867E+03  0.78376470013E+02 0.  0.
         25    2    1    2    0    0 -0.72137245381E+02 -0.17209785677E+03 -0.10425789766E+02  0.22489526586E+03  0.12509088311E+03 0.  0.
        -24    2    1    2    0    0  0.11168542464E+00  0.11737181746E+03  0.43993927255E+03  0.46223578522E+03  0.79619103256E+02 0.  0.
        -13    1    3    3    0    0  0.73805854447E+02  0.16416492358E+02 -0.19608727438E+01  0.75634981285E+02  0.00000000000E+00 0.  1.
         14    1    3    3    0    0 -0.17802944913E+01  0.38309546947E+02 -0.28751939661E+02  0.47931877390E+02  0.00000000000E+00 0. -1.
         11    1    5    5    0    0 -0.35200954574E+02  0.74510178006E+02  0.31326996209E+03  0.32392737300E+03  0.00000000000E+00 0. -1.
        -12    1    5    5    0    0  0.35312639999E+02  0.42861639459E+02  0.12666931046E+03  0.13830841223E+03  0.00000000000E+00 0.  1.
          5    1    4    4  501    0  0.29329460682E+02 -0.33588042944E+02  0.22338277392E+02  0.50048425845E+02  0.41800000000E+01 0. -1.
         -5    1    4    4    0  501 -0.10146670606E+03 -0.13850981383E+03 -0.32764067158E+02  0.17484684001E+03  0.41800000000E+01 0. -1.
</event>
<event>
11    1  0.8453735E-009  0.1377450E+03  0.7561462E-02  0.1110103E+00
         22   -1    0    0    0    0  0.00000000000E+00  0.00000000000E+00  0.17435850473E+03  0.17435850473E+03  0.00000000000E+00 0. -1.
         22   -1    0    0    0    0 -0.00000000000E+00 -0.00000000000E+00 -0.39812606425E+03  0.39812606425E+03  0.00000000000E+00 0.  1.
         24    2    1    2    0    0 -0.32852196334E+02 -0.41209807820E+02 -0.27006141576E+03  0.28654524510E+03  0.79984336850E+02 0.  0.
         25    2    1    2    0    0  0.58228051677E+02  0.74982316783E+02 -0.38151014776E+02  0.16160282853E+03  0.12508845042E+03 0.  0.
        -24    2    1    2    0    0 -0.25375855343E+02 -0.33772508964E+02  0.84444871015E+02  0.12433649535E+03  0.80895682454E+02 0.  0.
        -11    1    3    3    0    0 -0.56111651847E+01 -0.48625321759E+02 -0.24140604629E+03  0.24631846516E+03  0.00000000000E+00 0.  1.
         12    1    3    3    0    0 -0.27241031150E+02  0.74155139393E+01 -0.28655369468E+02  0.40226779941E+02  0.00000000000E+00 0. -1.
         13    1    5    5    0    0 -0.39286115069E+02 -0.47727406593E+02  0.84419910460E+02  0.10463281254E+03  0.00000000000E+00 0. -1.
        -14    1    5    5    0    0  0.13910259726E+02  0.13954897629E+02  0.24960555144E-01  0.19703682816E+02  0.00000000000E+00 0.  1.
          5    1    4    4  501    0  0.66427949623E+00  0.13434920185E+02  0.42566240380E+02  0.44836319738E+02  0.41800000000E+01 0.  1.
         -5    1    4    4    0  501  0.57563772181E+02  0.61547396598E+02 -0.80717255156E+02  0.11676650879E+03  0.41800000000E+01 0.  1.
</event>
<event>
11    1  0.8453735E-009  0.1457795E+03  0.7561462E-02  0.1101271E+00
         22   -1    0    0    0    0  0.00000000000E+00  0.00000000000E+00  0.84343639453E+02  0.84343639453E+02  0.00000000000E+00 0. -1.
         22   -1    0    0    0    0 -0.00000000000E+00 -0.00000000000E+00 -0.24951327604E+04  0.24951327604E+04  0.00000000000E+00 0.  1.
         24    2    1    2    0    0 -0.39670448932E+02 -0.90052880101E+01 -0.22472172576E+04  0.22490303602E+04  0.80605944171E+02 0.  0.
         25    2    1    2    0    0  0.61820785498E+02  0.73268877523E+02 -0.14005970528E+03  0.21084301615E+03  0.12509164034E+03 0.  0.
        -24    2    1    2    0    0 -0.22150336566E+02 -0.64263589513E+02 -0.23512158052E+02  0.11960302355E+03  0.95559485760E+02 0.  0.
        -11    1    3    3    0    0 -0.60525859283E+02  0.10111753612E+02 -0.16559965563E+04  0.16571331333E+04  0.00000000000E+00 0.  1.
         12    1    3    3    0    0  0.20855410351E+02 -0.19117041622E+02 -0.59122070134E+03  0.59189722682E+03  0.00000000000E+00 0. -1.
         11    1    5    5    0    0 -0.52686541694E+02 -0.12097877582E+02  0.17606875128E+01  0.54086323023E+02  0.00000000000E+00 0. -1.
        -12    1    5    5    0    0  0.30536205128E+02 -0.52165711931E+02 -0.25272845565E+02  0.65516700526E+02  0.00000000000E+00 0.  1.
          5    1    4    4  501    0  0.60899178919E+02 -0.13828718271E+02 -0.92005497060E+02  0.11127635567E+03  0.41800000000E+01 0. -1.
         -5    1    4    4    0  501  0.92160657907E+00  0.87097595794E+02 -0.48054208222E+02  0.99566660483E+02  0.41800000000E+01 0. -1.
</event>
<event>
11    1  0.8453735E-009  0.1814389E+03  0.7561462E-02  0.1068485E+00
         22   -1    0    0    0    0  0.00000000000E+00  0.00000000000E+00  0.31938319424E+03  0.31938319424E+03  0.00000000000E+00 0.  1.
         22   -1    0    0    0    0 -0.00000000000E+00 -0.00000000000E+00 -0.81977080504E+03  0.81977080504E+03  0.00000000000E+00 0. -1.
         24    2    1    2    0    0  0.10037897240E+02  0.28066696220E+02 -0.67180071455E+03  0.67716666754E+03  0.79686866770E+02 0.  0.
         25    2    1    2    0    0  0.58204315981E+02  0.89886329979E+02 -0.65343280591E+02  0.17715799031E+03  0.12509162440E+03 0.  0.
        -24    2    1    2    0    0 -0.68242213221E+02 -0.11795302620E+03  0.23675638434E+03  0.28482934143E+03  0.80648943943E+02 0.  0.
        -11    1    3    3    0    0  0.12087389604E+02  0.38908794912E+00 -0.12902446078E+02  0.17684159343E+02  0.00000000000E+00 0.  1.
         12    1    3    3    0    0 -0.20494923641E+01  0.27677608271E+02 -0.65889826847E+03  0.65948250820E+03  0.00000000000E+00 0. -1.
         13    1    5    5    0    0 -0.30447482811E+02 -0.10350693890E+03  0.12055243834E+03  0.16178265049E+03  0.00000000000E+00 0. -1.
        -14    1    5    5    0    0 -0.37794730410E+02 -0.14446087296E+02  0.11620394600E+03  0.12304669094E+03  0.00000000000E+00 0.  1.
          5    1    4    4  501    0 -0.22100068622E+02  0.20908890321E+02 -0.64245939278E+02  0.71208200661E+02  0.41800000000E+01 0. -1.
         -5    1    4    4    0  501  0.80304384603E+02  0.68977439658E+02 -0.10973413121E+01  0.10594978965E+03  0.41800000000E+01 0. -1.
</event>
<event>
11    1  0.8453735E-009  0.5434038E+03  0.7561462E-02  0.9301443E-01
         22   -1    0    0    0    0  0.00000000000E+00  0.00000000000E+00  0.35599783475E+04  0.35599783475E+04  0.00000000000E+00 0.  1.
         22   -1    0    0    0    0 -0.00000000000E+00 -0.00000000000E+00 -0.14441382841E+04  0.14441382841E+04  0.00000000000E+00 0.  1.
        -24    2    1    2    0    0 -0.49537228703E+03 -0.18211469821E+03 -0.13194622295E+04  0.14234231074E+04  0.81199147445E+02 0.  0.
         25    2    1    2    0    0  0.50170767592E+03  0.23142441834E+03  0.10470675024E+04  0.11904895916E+04  0.12508900696E+03 0.  0.
         24    2    1    2    0    0 -0.63353888879E+01 -0.49309720122E+02  0.23882347906E+04  0.23902039325E+04  0.83293688731E+02 0.  0.
        -11    1    5    5    0    0  0.17586518101E+02  0.56146843847E+01  0.14186648015E+04  0.14187849130E+04  0.00000000000E+00 0.  1.
         12    1    5    5    0    0 -0.23921906989E+02 -0.54924404507E+02  0.96956998909E+03  0.97141901957E+03  0.00000000000E+00 0. -1.
         11    1    3    3    0    0 -0.15020756571E+03 -0.30324937876E+02 -0.30925185281E+03  0.34513565901E+03  0.00000000000E+00 0. -1.
        -12    1    3    3    0    0 -0.34516472132E+03 -0.15178976034E+03 -0.10102103767E+04  0.10782874484E+04  0.00000000000E+00 0.  1.
          5    1    4    4  501    0  0.68633066468E+02  0.83125330416E+02  0.17525223310E+03  0.20579391627E+03  0.41800000000E+01 0. -1.
         -5    1    4    4    0  501  0.43307460945E+03  0.14829908792E+03  0.87181526932E+03  0.98469567535E+03  0.41800000000E+01 0. -1.
</event>
<event>
11    1  0.8453735E-009  0.2696528E+03  0.7561462E-02  0.1013921E+00
         22   -1    0    0    0    0  0.00000000000E+00  0.00000000000E+00  0.24471447892E+03  0.24471447892E+03  0.00000000000E+00 0. -1.
         22   -1    0    0    0    0 -0.00000000000E+00 -0.00000000000E+00 -0.99038523848E+03  0.99038523848E+03  0.00000000000E+00 0. -1.
        -24    2    1    2    0    0  0.66879592030E+02 -0.21680113938E+03 -0.60147672015E+03  0.64816734480E+03  0.82891785585E+02 0.  0.
         25    2    1    2    0    0 -0.15693749871E+03  0.23646217494E+03 -0.26566389466E+03  0.40837554130E+03  0.12509811803E+03 0.  0.
         24    2    1    2    0    0  0.90057906680E+02 -0.19661035555E+02  0.12146985525E+03  0.17855683129E+03  0.92901202321E+02 0.  0.
        -11    1    5    5    0    0  0.12225359358E+02 -0.29998828399E+02 -0.17567830782E+01  0.32441877312E+02  0.00000000000E+00 0.  1.
         12    1    5    5    0    0  0.77832547323E+02  0.10337792844E+02  0.12322663833E+03  0.14611495398E+03  0.00000000000E+00 0. -1.
         11    1    3    3    0    0  0.40531982985E+02 -0.20591077798E+03 -0.55817256266E+03  0.59632097049E+03  0.00000000000E+00 0. -1.
        -12    1    3    3    0    0  0.26347609045E+02 -0.10890361396E+02 -0.43304157492E+02  0.51846374317E+02  0.00000000000E+00 0.  1.
          5    1    4    4  501    0 -0.87632936302E+02  0.18793987779E+03 -0.11931007252E+03  0.23927660770E+03  0.41800000000E+01 0. -1.
         -5    1    4    4    0  501 -0.69304562409E+02  0.48522297143E+02 -0.14635382214E+03  0.16909893360E+03  0.41800000000E+01 0. -1.
</event>
<event>
11    1  0.8453735E-009  0.1353509E+03  0.7561462E-02  0.1112864E+00
         22   -1    0    0    0    0  0.00000000000E+00  0.00000000000E+00  0.71976299091E+02  0.71976299091E+02  0.00000000000E+00 0.  1.
         22   -1    0    0    0    0 -0.00000000000E+00 -0.00000000000E+00 -0.22038307047E+04  0.22038307047E+04  0.00000000000E+00 0. -1.
        -24    2    1    2    0    0  0.14261710184E+02 -0.14830631013E+02 -0.16850502757E+04  0.16869346045E+04  0.77010286583E+02 0.  0.
         25    2    1    2    0    0  0.18723793102E+02 -0.26828639355E+02 -0.47267907152E+03  0.49004428876E+03  0.12509014341E+03 0.  0.
         24    2    1    2    0    0 -0.32985503286E+02  0.41659270367E+02  0.25874941569E+02  0.98828110567E+02  0.79208235698E+02 0.  0.
        -11    1    5    5    0    0 -0.41895401681E+02  0.42232802421E+01  0.39764881134E+02  0.57916375488E+02  0.00000000000E+00 0.  1.
         12    1    5    5    0    0  0.89098983953E+01  0.37435990125E+02 -0.13889939565E+02  0.40911735079E+02  0.00000000000E+00 0. -1.
         11    1    3    3    0    0  0.34022293150E+01  0.27418796069E+02 -0.10618757636E+04  0.10622351448E+04  0.00000000000E+00 0. -1.
        -12    1    3    3    0    0  0.10859480869E+02 -0.42249427082E+02 -0.62317451215E+03  0.62469945975E+03  0.00000000000E+00 0.  1.
          5    1    4    4  501    0  0.54916550623E+02  0.26291105470E+02 -0.28970478629E+03  0.29606314421E+03  0.41800000000E+01 0.  1.
         -5    1    4    4    0  501 -0.36192757521E+02 -0.53119744825E+02 -0.18297428522E+03  0.19398114455E+03  0.41800000000E+01 0.  1.
</event>
<event>
11    1  0.8453735E-009  0.2125529E+03  0.7561462E-02  0.1045985E+00
         22   -1    0    0    0    0  0.00000000000E+00  0.00000000000E+00  0.11012366992E+04  0.11012366992E+04  0.00000000000E+00 0. -1.
         22   -1    0    0    0    0 -0.00000000000E+00 -0.00000000000E+00 -0.27476020110E+03  0.27476020110E+03  0.00000000000E+00 0.  1.
        -24    2    1    2    0    0  0.14103563095E+03 -0.92599914747E+02 -0.18522983750E+03  0.26345895981E+03  0.81453897356E+02 0.  0.
         25    2    1    2    0    0 -0.17383621836E+03  0.88493380599E+02  0.22864576507E+03  0.32553772281E+03  0.12508322776E+03 0.  0.
         24    2    1    2    0    0  0.32800587411E+02  0.41065341480E+01  0.78306057057E+03  0.78700021771E+03  0.71363459425E+02 0.  0.
        -11    1    5    5    0    0  0.30112389330E+02 -0.10213284045E+02  0.13196948777E+03  0.13574613388E+03  0.00000000000E+00 0.  1.
         12    1    5    5    0    0  0.26881980812E+01  0.14319818193E+02  0.65109108280E+03  0.65125408383E+03  0.00000000000E+00 0. -1.
         11    1    3    3    0    0  0.27035305101E+02 -0.29394789424E+02 -0.38820936529E+01  0.40125204278E+02  0.00000000000E+00 0. -1.
        -12    1    3    3    0    0  0.11400032585E+03 -0.63205125322E+02 -0.18134774385E+03  0.22333375553E+03  0.00000000000E+00 0.  1.
          5    1    4    4  501    0 -0.11845215230E+03  0.11189013280E+03  0.20221589045E+03  0.25972880655E+03  0.41800000000E+01 0. -1.
         -5    1    4    4    0  501 -0.55384066061E+02 -0.23396752201E+02  0.26429874618E+02  0.65808916260E+02  0.41800000000E+01 0. -1.
</event>
<event>
11    1  0.8453735E-009  0.1369071E+03  0.7561462E-02  0.1111062E+00
         22   -1    0    0    0    0  0.00000000000E+00  0.00000000000E+00  0.76574617227E+03  0.76574617227E+03  0.00000000000E+00 0.  1.
         22   -1    0    0    0    0 -0.00000000000E+00 -0.00000000000E+00 -0.53037656605E+03  0.53037656605E+03  0.00000000000E+00 0.  1.
         24    2    1    2    0    0 -0.50095454198E+02 -0.16063062773E+02 -0.41094378780E+03  0.42185930401E+03  0.79516659422E+02 0.  0.
         25    2    1    2    0    0  0.81142098821E+02  0.21922289944E+02 -0.60434863633E+02  0.16237166585E+03  0.12509019999E+03 0.  0.
        -24    2    1    2    0    0 -0.31046644623E+02 -0.58592271717E+01  0.70674825766E+03  0.71189176846E+03  0.79363503011E+02 0.  0.
        -13    1    3    3    0    0 -0.45944475439E+02  0.17335696180E+02 -0.33771750010E+03  0.34126900102E+03  0.00000000000E+00 0.  1.
         14    1    3    3    0    0 -0.41509787592E+01 -0.33398758952E+02 -0.73226287708E+02  0.80590302988E+02  0.00000000000E+00 0. -1.
         13    1    5    5    0    0  0.33711733213E+01  0.27425187925E+02  0.11766162760E+03  0.12086258458E+03  0.00000000000E+00 0. -1.
        -14    1    5    5    0    0 -0.34417817944E+02 -0.33284415096E+02  0.58908663006E+03  0.59102918388E+03  0.00000000000E+00 0.  1.
          5    1    4    4  501    0  0.10813606797E+03  0.15281843288E+02 -0.16958020135E+02  0.11059833080E+03  0.41800000000E+01 0.  1.
         -5    1    4    4    0  501 -0.26993969144E+02  0.66404466560E+01 -0.43476843498E+02  0.51773335053E+02  0.41800000000E+01 0.  1.
</event>
<event>
11    1  0.8453735E-009  0.1936606E+03  0.7561462E-02  0.1059099E+00
         22   -1    0    0    0    0  0.00000000000E+00  0.00000000000E+00  0.29185666755E+03  0.29185666755E+03  0.00000000000E+00 0. -1.
         22   -1    0    0    0    0 -0.00000000000E+00 -0.00000000000E+00 -0.50130156126E+03  0.50130156126E+03  0.00000000000E+00 0. -1.
        -24    2    1    2    0    0  0.29029125905E+02 -0.74165018938E+02 -0.36288685065E+03  0.38026595838E+03  0.81069060326E+02 0.  0.
         25    2    1    2    0    0 -0.14342399489E+03 -0.30562894018E+02  0.16952747199E+02  0.19348485118E+03  0.12507781258E+03 0.  0.
         24    2    1    2    0    0  0.11439486898E+03  0.10472791296E+03  0.13648920973E+03  0.21940741925E+03  0.73866023643E+02 0.  0.
        -11    1    5    5    0    0  0.77569736478E+02  0.10773568487E+03  0.91709584918E+02  0.16135268754E+03  0.00000000000E+00 0.  1.
         12    1    5    5    0    0  0.36825132503E+02 -0.30077719097E+01  0.44779624816E+02  0.58054731714E+02  0.00000000000E+00 0. -1.
         13    1    3    3    0    0 -0.31715260628E+01 -0.51067555797E+02 -0.30992245880E+03  0.31411762813E+03  0.00000000000E+00 0. -1.
        -14    1    3    3    0    0  0.32200651968E+02 -0.23097463140E+02 -0.52964391845E+02  0.66148330245E+02  0.00000000000E+00 0.  1.
          5    1    4    4  501    0 -0.10050778639E+03  0.18253560343E+02 -0.37185296062E+02  0.10878982597E+03  0.41800000000E+01 0.  1.
         -5    1    4    4    0  501 -0.42916208494E+02 -0.48816454362E+02  0.54138043261E+02  0.84695025215E+02  0.41800000000E+01 0.  1.
</event>
<event>
11    1  0.8453735E-009  0.1523948E+03  0.7561462E-02  0.1094457E+00
         22   -1    0    0    0    0  0.00000000000E+00  0.00000000000E+00  0.22391497931E+04  0.22391497931E+04  0.00000000000E+00 0.  1.
         22   -1    0    0    0    0 -0.00000000000E+00 -0.00000000000E+00 -0.28477255284E+03  0.28477255284E+03  0.00000000000E+00 0. -1.
         24    2    1    2    0    0 -0.63221397114E+01 -0.86533323167E+02 -0.25690162366E+03  0.28303554328E+03  0.81133772569E+02 0.  0.
         25    2    1    2    0    0 -0.47268566105E+02  0.10527755425E+03  0.52670060926E+03  0.55350245295E+03  0.12503500649E+03 0.  0.
        -24    2    1    2    0    0  0.53590705816E+02 -0.18744231078E+02  0.16845782547E+04  0.16873843497E+04  0.78985680022E+02 0.  0.
        -11    1    3    3    0    0 -0.36814146599E+02 -0.37400515186E+02 -0.17555000414E+03  0.18322631875E+03  0.00000000000E+00 0.  1.
         12    1    3    3    0    0  0.30492006888E+02 -0.49132807981E+02 -0.81351619515E+02  0.99809224533E+02  0.00000000000E+00 0. -1.
         11    1    5    5    0    0  0.20240760228E+02  0.28857498477E+02  0.42221720340E+03  0.42368598094E+03  0.00000000000E+00 0. -1.
        -12    1    5    5    0    0  0.33349945589E+02 -0.47601729555E+02  0.12623610513E+04  0.12636983688E+04  0.00000000000E+00 0.  1.
          5    1    4    4  501    0 -0.15623171690E+02  0.11010263995E+03  0.23496344799E+03  0.25998455552E+03  0.41800000000E+01 0. -1.
         -5    1    4    4    0  501 -0.31645394415E+02 -0.48250857082E+01  0.29173716128E+03  0.29351789743E+03  0.41800000000E+01 0. -1.
</event>
<event>
11    1  0.8453735E-009  0.1318951E+03  0.7561462E-02  0.1116962E+00
         22   -1    0    0    0    0  0.00000000000E+00  0.00000000000E+00  0.52858427521E+03  0.52858427521E+03  0.00000000000E+00 0.  1.
         22   -1    0    0    0    0 -0.00000000000E+00 -0.00000000000E+00 -0.15570756296E+03  0.15570756296E+03  0.00000000000E+00 0. -1.
        -24    2    1    2    0    0 -0.18047020095E+02  0.38977826193E+02 -0.98631016484E+02  0.13401752789E+03  0.79922803386E+02 0.  0.
         25    2    1    2    0    0 -0.15615318441E+02 -0.42563223845E+02  0.92562345538E+02  0.16208542687E+03  0.12509369128E+03 0.  0.
         24    2    1    2    0    0  0.33662338536E+02  0.35853976519E+01  0.37894538320E+03  0.38818888340E+03  0.77103810775E+02 0.  0.
        -13    1    5    5    0    0  0.57260750153E+02 -0.69015098123E+01  0.28380815871E+03  0.28960921135E+03  0.00000000000E+00 0.  1.
         14    1    5    5    0    0 -0.23598411617E+02  0.10486907464E+02  0.95137224489E+02  0.98579672055E+02  0.00000000000E+00 0. -1.
         13    1    3    3    0    0 -0.27606625872E+02  0.48921216091E+02 -0.29353328163E+02  0.63380036684E+02  0.00000000000E+00 0. -1.
        -14    1    3    3    0    0  0.95596057774E+01 -0.99433898976E+01 -0.69277688322E+02  0.70637491210E+02  0.00000000000E+00 0.  1.
          5    1    4    4  501    0  0.40745295934E+02 -0.54393235661E+02  0.75949086486E+02  0.10200264391E+03  0.41800000000E+01 0.  1.
         -5    1    4    4    0  501 -0.56360614375E+02  0.11830011815E+02  0.16613259052E+02  0.60082782963E+02  0.41800000000E+01 0.  1.
</event>
<event>
11    1  0.8453735E-009  0.1396530E+03  0.7561462E-02  0.1107946E+00
         22   -1    0    0    0    0  0.00000000000E+00  0.00000000000E+00  0.87457493729E+03  0.87457493729E+03  0.00000000000E+00 0.  1.
         22   -1    0    0    0    0 -0.00000000000E+00 -0.00000000000E+00 -0.38208171839E+03  0.38208171839E+03  0.00000000000E+00 0. -1.
         24    2    1    2    0    0  0.39043647774E+02  0.26921121856E+01 -0.34212172935E+03  0.35369535028E+03  0.80755614154E+02 0.  0.
         25    2    1    2    0    0 -0.86163898201E+02  0.31454302789E+02  0.17183395772E+03  0.23149078731E+03  0.12508990794E+03 0.  0.
        -24    2    1    2    0    0  0.47120250427E+02 -0.34146414975E+02  0.66278099054E+03  0.67147051808E+03  0.90596465580E+02 0.  0.
        -11    1    3    3    0    0  0.46268253221E+01  0.39002111427E+02 -0.16791323460E+03  0.17244543068E+03  0.00000000000E+00 0.  1.
         12    1    3    3    0    0  0.34416822452E+02 -0.36309999241E+02 -0.17420849475E+03  0.18124991961E+03  0.00000000000E+00 0. -1.
         13    1    5    5    0    0  0.40116288036E+01 -0.40518894898E+02  0.11567641725E+03  0.12263322355E+03  0.00000000000E+00 0. -1.
        -14    1    5    5    0    0  0.43108621624E+02  0.63724799235E+01  0.54710457329E+03  0.54883729453E+03  0.00000000000E+00 0.  1.
          5    1    4    4  501    0 -0.23501744640E+02  0.43960251316E+02  0.20860990616E+01  0.50066554766E+02  0.41800000000E+01 0.  1.
         -5    1    4    4    0  501 -0.62662153561E+02 -0.12505948526E+02  0.16974785866E+03  0.18142423255E+03  0.41800000000E+01 0.  1.
</event>
<event>
11    1  0.8453735E-009  0.1662283E+03  0.7561462E-02  0.1081361E+00
         22   -1    0    0    0    0  0.00000000000E+00  0.00000000000E+00  0.61800504777E+03  0.61800504777E+03  0.00000000000E+00 0.  1.
         22   -1    0    0    0    0 -0.00000000000E+00 -0.00000000000E+00 -0.22481715913E+03  0.22481715913E+03  0.00000000000E+00 0.  1.
        -24    2    1    2    0    0 -0.33882542029E+02  0.35352902755E+01 -0.16548601055E+03  0.18703976665E+03  0.80235464052E+02 0.  0.
         25    2    1    2    0    0  0.12266108081E+03 -0.54127071949E+02  0.18824739262E+03  0.26279193115E+03  0.12508811928E+03 0.  0.
         24    2    1    2    0    0 -0.88778538786E+02  0.50591781674E+02  0.37042650655E+03  0.39299050909E+03  0.82368599341E+02 0.  0.
        -11    1    5    5    0    0 -0.22881936037E+02  0.52693369535E+02  0.10708238383E+03  0.12151876858E+03  0.00000000000E+00 0.  1.
         12    1    5    5    0    0 -0.65896602749E+02 -0.21015878608E+01  0.26334412273E+03  0.27147174052E+03  0.00000000000E+00 0. -1.
         11    1    3    3    0    0  0.12971166662E+02  0.15479145199E+02 -0.70511913722E+01  0.21390988767E+02  0.00000000000E+00 0. -1.
        -12    1    3    3    0    0 -0.46853708690E+02 -0.11943854924E+02 -0.15843481917E+03  0.16564877789E+03  0.00000000000E+00 0.  1.
          5    1    4    4  501    0  0.63686403196E+02  0.37550674235E+02  0.82553690027E+02  0.11089903167E+03  0.41800000000E+01 0.  1.
         -5    1    4    4    0  501  0.58974677618E+02 -0.91677746184E+02  0.10569370260E+03  0.15189289949E+03  0.41800000000E+01 0.  1.
</event>
<event>
11    1  0.8453735E-009  0.1622188E+03  0.7561462E-02  0.1085009E+00
         22   -1    0    0    0    0  0.00000000000E+00  0.00000000000E+00  0.39815617992E+03  0.39815617992E+03  0.00000000000E+00 0.  1.
         22   -1    0    0    0    0 -0.00000000000E+00 -0.00000000000E+00 -0.13148238967E+04  0.13148238967E+04  0.00000000000E+00 0. -1.
         24    2    1    2    0    0  0.11506403713E+01 -0.39516750296E+02 -0.12428117316E+04  0.12460474351E+04  0.80562476119E+02 0.  0.
         25    2    1    2    0    0  0.87023258283E+02  0.84692071331E+02  0.85586394957E+02  0.19421523694E+03  0.12509489529E+03 0.  0.
        -24    2    1    2    0    0 -0.88173898654E+02 -0.45175321035E+02  0.24055761987E+03  0.27271740467E+03  0.81800784226E+02 0.  0.
        -13    1    3    3    0    0  0.88305621015E+01  0.22849935718E+02 -0.23349245767E+03  0.23477398957E+03  0.00000000000E+00 0.  1.
         14    1    3    3    0    0 -0.76799217302E+01 -0.62366686014E+02 -0.10093192740E+04  0.10112734455E+04  0.00000000000E+00 0. -1.
         11    1    5    5    0    0 -0.73978937184E+02  0.54941955461E+01  0.16184263574E+03  0.17803400820E+03  0.00000000000E+00 0. -1.
        -12    1    5    5    0    0 -0.14194961470E+02 -0.50669516581E+02  0.78714984131E+02  0.94683396477E+02  0.00000000000E+00 0.  1.
          5    1    4    4  501    0 -0.15618381213E+02  0.67621069748E+02  0.25947604442E+02  0.74211141224E+02  0.41800000000E+01 0.  1.
         -5    1    4    4    0  501  0.10264163950E+03  0.17071001584E+02  0.59638790515E+02  0.12000409571E+03  0.41800000000E+01 0.  1.
</event>
<event>
11    1  0.8453735E-009  0.2099351E+03  0.7561462E-02  0.1047712E+00
         22   -1    0    0    0    0  0.00000000000E+00  0.00000000000E+00  0.23246323844E+04  0.23246323844E+04  0.00000000000E+00 0. -1.
         22   -1    0    0    0    0 -0.00000000000E+00 -0.00000000000E+00 -0.35243695584E+03  0.35243695584E+03  0.00000000000E+00 0. -1.
        -24    2    1    2    0    0  0.89391905957E+02  0.54730778583E+02 -0.30513701060E+03  0.33154305053E+03  0.76327112758E+02 0.  0.
         25    2    1    2    0    0 -0.24098398593E+03 -0.76031643578E+01  0.59771831449E+03  0.65654188112E+03  0.12509583768E+03 0.  0.
         24    2    1    2    0    0  0.15159207997E+03 -0.47127614226E+02  0.16796141247E+04  0.16889844086E+04  0.79771886685E+02 0.  0.
        -13    1    5    5    0    0  0.44272392022E+01 -0.18241389516E+00  0.40776214178E+03  0.40778621604E+03  0.00000000000E+00 0.  1.
         14    1    5    5    0    0  0.14716484077E+03 -0.46945200331E+02  0.12718519829E+04  0.12811981925E+04  0.00000000000E+00 0. -1.
         11    1    3    3    0    0  0.88414431700E+02  0.59407437665E+02 -0.30805052662E+03  0.32594705449E+03  0.00000000000E+00 0. -1.
        -12    1    3    3    0    0  0.97747425674E+00 -0.46766590813E+01  0.29135160168E+01  0.55959960388E+01  0.00000000000E+00 0.  1.
          5    1    4    4  501    0 -0.16317273219E+03 -0.37771227268E+02  0.50332807842E+03  0.53047962549E+03  0.41800000000E+01 0. -1.
         -5    1    4    4    0  501 -0.77811253739E+02  0.30168062910E+02  0.94390236078E+02  0.12606225563E+03  0.41800000000E+01 0. -1.
</event>
<event>
11    1  0.8453735E-009  0.1760445E+03  0.7561462E-02  0.1072888E+00
         22   -1    0    0    0    0  0.00000000000E+00  0.00000000000E+00  0.35377995990E+03  0.35377995990E+03  0.00000000000E+00 0.  1.
         22   -1    0    0    0    0 -0.00000000000E+00 -0.00000000000E+00 -0.66056309842E+03  0.66056309842E+03  0.00000000000E+00 0. -1.
        -24    2    1    2    0    0 -0.67688357627E+02 -0.70185066951E+02 -0.50302802122E+03  0.51890942237E+03  0.81988664533E+02 0.  0.
         25    2    1    2    0    0  0.15367874165E+03 -0.18618745903E+02 -0.52685791651E+02  0.20588216118E+03  0.12509139985E+03 0.  0.
         24    2    1    2    0    0 -0.85990384024E+02  0.88803812854E+02  0.24893067435E+03  0.28955147477E+03  0.81197983866E+02 0.  0.
        -11    1    5    5    0    0 -0.81664383350E+02  0.91145319789E+02  0.25433356308E+03  0.28224475573E+03  0.00000000000E+00 0.  1.
         12    1    5    5    0    0 -0.43260006748E+01 -0.23415069342E+01 -0.54028887252E+01  0.73067190406E+01  0.00000000000E+00 0. -1.
         11    1    3    3    0    0 -0.17854558669E+02 -0.23401877974E+02 -0.35088430417E+03  0.35211678186E+03  0.00000000000E+00 0. -1.
        -12    1    3    3    0    0 -0.49833798957E+02 -0.46783188977E+02 -0.15214371706E+03  0.16679264051E+03  0.00000000000E+00 0.  1.
          5    1    4    4  501    0  0.35759319809E+02 -0.31821794849E+02  0.34010156979E+02  0.58868656841E+02  0.41800000000E+01 0. -1.
         -5    1    4    4    0  501  0.11791942184E+03  0.13203048946E+02 -0.86695948630E+02  0.14701350434E+03  0.41800000000E+01 0. -1.
</event>
<event>
11    1  0.8453735E-009  0.1955974E+03  0.7561462E-02  0.1057681E+00
         22   -1    0    0    0    0  0.00000000000E+00  0.00000000000E+00  0.33753468173E+03  0.33753468173E+03  0.00000000000E+00 0.  1.
         22   -1    0    0    0    0 -0.00000000000E+00 -0.00000000000E+00 -0.31646449103E+03  0.31646449103E+03  0.00000000000E+00 0.  1.
         24    2    1    2    0    0  0.62975593113E+02 -0.15108112652E+03 -0.19621179864E+03  0.26744722461E+03  0.78977945731E+02 0.  0.
         25    2    1    2    0    0 -0.46462892989E+02  0.10400182639E+03  0.23957213085E+02  0.17088856263E+03  0.12511503692E+03 0.  0.
        -24    2    1    2    0    0 -0.16512700124E+02  0.47079300126E+02  0.19332477625E+03  0.21566338552E+03  0.81529730628E+02 0.  0.
        -13    1    3    3    0    0  0.28450156216E+01 -0.22263524465E+02 -0.82219144376E+02  0.85227614875E+02  0.00000000000E+00 0.  1.
         14    1    3    3    0    0  0.60130577491E+02 -0.12881760205E+03 -0.11399265426E+03  0.18221960974E+03  0.00000000000E+00 0. -1.
         13    1    5    5    0    0 -0.32185535794E+02  0.19174677118E+02  0.26730681719E+02  0.46022888893E+02  0.00000000000E+00 0. -1.
        -14    1    5    5    0    0  0.15672835671E+02  0.27904623008E+02  0.16659409453E+03  0.16964049663E+03  0.00000000000E+00 0.  1.
          5    1    4    4  501    0  0.29405139664E+01  0.10830180839E+03  0.44302518650E+02  0.11712435221E+03  0.41800000000E+01 0.  1.
         -5    1    4    4    0  501 -0.49403406956E+02 -0.42999819957E+01 -0.20345305565E+02  0.53764210424E+02  0.41800000000E+01 0.  1.
</event>
<event>
11    1  0.8453735E-009  0.1793297E+03  0.7561462E-02  0.1070186E+00
         22   -1    0    0    0    0  0.00000000000E+00  0.00000000000E+00  0.32348151142E+03  0.32348151142E+03  0.00000000000E+00 0.  1.
         22   -1    0    0    0    0 -0.00000000000E+00 -0.00000000000E+00 -0.14859451740E+04  0.14859451740E+04  0.00000000000E+00 0.  1.
         24    2    1    2    0    0  0.12694974538E+03  0.22031283066E+02 -0.14234708769E+04  0.14317992022E+04  0.84723093690E+02 0.  0.
         25    2    1    2    0    0 -0.11510065954E+03 -0.15789096019E+02  0.98699950645E+02  0.19719641546E+03  0.12508912276E+03 0.  0.
        -24    2    1    2    0    0 -0.11849085839E+02 -0.62421870478E+01  0.16230726376E+03  0.18043106772E+03  0.77668247016E+02 0.  0.
        -13    1    3    3    0    0  0.46782360358E+02  0.41066159207E+02 -0.87054051589E+03  0.87276331756E+03  0.00000000000E+00 0.  1.
         14    1    3    3    0    0  0.80167385019E+02 -0.19034876141E+02 -0.55293036106E+03  0.55903588464E+03  0.00000000000E+00 0. -1.
         13    1    5    5    0    0 -0.11028937104E+02 -0.50467559228E+01 -0.49989571640E+01  0.13118565917E+02  0.00000000000E+00 0. -1.
        -14    1    5    5    0    0 -0.82014873557E+00 -0.11954311250E+01  0.16730622092E+03  0.16731250180E+03  0.00000000000E+00 0.  1.
          5    1    4    4  501    0 -0.20226825777E+02  0.40340347123E+02  0.69693635206E+02  0.83133286205E+02  0.41800000000E+01 0.  1.
         -5    1    4    4    0  501 -0.94873833762E+02 -0.56129443142E+02  0.29006315439E+02  0.11406312926E+03  0.41800000000E+01 0.  1.
</event>
<event>
11    1  0.8453735E-009  0.1570336E+03  0.7561462E-02  0.1089901E+00
         22   -1    0    0    0    0  0.00000000000E+00  0.00000000000E+00  0.24247311547E+03  0.24247311547E+03  0.00000000000E+00 0.  1.
         22   -1    0    0    0    0 -0.00000000000E+00 -0.00000000000E+00 -0.39991124635E+03  0.39991124635E+03  0.00000000000E+00 0.  1.
         24    2    1    2    0    0  0.62592527848E+02 -0.63278609596E+02 -0.25999287935E+03  0.28647628581E+03  0.80934282267E+02 0.  0.
         25    2    1    2    0    0 -0.14416648988E+03  0.96150884056E+02  0.10299091566E+03  0.23726663064E+03  0.12513734853E+03 0.  0.
        -24    2    1    2    0    0  0.81573962029E+02 -0.32872274460E+02 -0.43616717840E+00  0.11864144537E+03  0.79628541415E+02 0.  0.
        -11    1    3    3    0    0  0.59247399376E+02 -0.47085346650E+02 -0.25908999841E+03  0.26991648982E+03  0.00000000000E+00 0.  1.
         12    1    3    3    0    0  0.33451284720E+01 -0.16193262946E+02 -0.90288094199E+00  0.16559795993E+02  0.00000000000E+00 0. -1.
         13    1    5    5    0    0  0.50343348604E+02 -0.10317593181E+02 -0.38709438673E+02  0.64337594920E+02  0.00000000000E+00 0. -1.
        -14    1    5    5    0    0  0.31230613425E+02 -0.22554681279E+02  0.38273271495E+02  0.54303850448E+02  0.00000000000E+00 0.  1.
          5    1    4    4  501    0 -0.34422373016E+02  0.90865358074E+02  0.19459434584E+02  0.99184449670E+02  0.41800000000E+01 0. -1.
         -5    1    4    4    0  501 -0.10974411686E+03  0.52855259817E+01  0.83531481075E+02  0.13808218097E+03  0.41800000000E+01 0. -1.
</event>
<event>
11    1  0.8453735E-009  0.1450289E+03  0.7561462E-02  0.1102069E+00
         22   -1    0    0    0    0  0.00000000000E+00  0.00000000000E+00  0.11293374846E+03  0.11293374846E+03  0.00000000000E+00 0. -1.
         22   -1    0    0    0    0 -0.00000000000E+00 -0.00000000000E+00 -0.30351841665E+04  0.30351841665E+04  0.00000000000E+00 0. -1.
         24    2    1    2    0    0  0.32476885759E+02 -0.39853271621E+02 -0.26815838059E+04  0.26834535085E+04  0.85953433442E+02 0.  0.
         25    2    1    2    0    0  0.15776143254E+02  0.94052850370E+02 -0.30367503990E+03  0.34199647171E+03  0.12509289125E+03 0.  0.
        -24    2    1    2    0    0 -0.48253029013E+02 -0.54199578749E+02  0.63008427800E+02  0.12266793473E+03  0.76232611739E+02 0.  0.
        -11    1    3    3    0    0  0.48068343422E+02  0.54851116284E+01 -0.97889788296E+03  0.98009270855E+03  0.00000000000E+00 0.  1.
         12    1    3    3    0    0 -0.15591457663E+02 -0.45338383250E+02 -0.17026859230E+04  0.17033607999E+04  0.00000000000E+00 0. -1.
         11    1    5    5    0    0 -0.50414110588E+02 -0.27767511116E+01  0.16005257813E+02  0.52966604298E+02  0.00000000000E+00 0. -1.
        -12    1    5    5    0    0  0.21610815749E+01 -0.51422827637E+02  0.47003169987E+02  0.69701330436E+02  0.00000000000E+00 0.  1.
          5    1    4    4  501    0  0.26003880007E+02  0.21929938391E+02 -0.51174749386E+01  0.34652343687E+02  0.41800000000E+01 0. -1.
         -5    1    4    4    0  501 -0.10227736753E+02  0.72122911979E+02 -0.29855756496E+03  0.30734412802E+03  0.41800000000E+01 0. -1.
</event>
<event>
11    1  0.8453735E-009  0.1719621E+03  0.7561462E-02  0.1076337E+00
         22   -1    0    0    0    0  0.00000000000E+00  0.00000000000E+00  0.25170511334E+03  0.25170511334E+03  0.00000000000E+00 0. -1.
         22   -1    0    0    0    0 -0.00000000000E+00 -0.00000000000E+00 -0.25604764776E+04  0.25604764776E+04  0.00000000000E+00 0.  1.
        -24    2    1    2    0    0  0.23948817968E+02 -0.27179852164E+02 -0.24356121339E+04  0.24372180445E+04  0.80703404671E+02 0.  0.
         25    2    1    2    0    0 -0.31669973961E+02  0.13820078491E+03 -0.25317714655E+01  0.18912710266E+03  0.12514074834E+03 0.  0.
         24    2    1    2    0    0  0.77211559928E+01 -0.11102093275E+03  0.12937254108E+03  0.18583644378E+03  0.73570820934E+02 0.  0.
        -13    1    5    5    0    0  0.61721402719E+01 -0.61028845743E+02  0.18283373156E+02  0.64007007915E+02  0.00000000000E+00 0.  1.
         14    1    5    5    0    0  0.15490157210E+01 -0.49992087002E+02  0.11108916792E+03  0.12182943586E+03  0.00000000000E+00 0. -1.
         11    1    3    3    0    0 -0.20224925563E+02  0.16522335242E+02 -0.64704302965E+03  0.64756985522E+03  0.00000000000E+00 0. -1.
        -12    1    3    3    0    0  0.44173743531E+02 -0.43702187406E+02 -0.17885691042E+04  0.17896481893E+04  0.00000000000E+00 0.  1.
          5    1    4    4  501    0 -0.12479830170E+00  0.19710760578E+02 -0.52819695350E+02  0.56532488660E+02  0.41800000000E+01 0. -1.
         -5    1    4    4    0  501 -0.31545175659E+02  0.11849002433E+03  0.50287923885E+02  0.13259461400E+03  0.41800000000E+01 0. -1.
</event>
<event>
11    1  0.8453735E-009  0.1720653E+03  0.7561462E-02  0.1076248E+00
         22   -1    0    0    0    0  0.00000000000E+00  0.00000000000E+00  0.89917793941E+03  0.89917793941E+03  0.00000000000E+00 0. -1.
         22   -1    0    0    0    0 -0.00000000000E+00 -0.00000000000E+00 -0.44828208957E+03  0.44828208957E+03  0.00000000000E+00 0. -1.
         24    2    1    2    0    0 -0.62750797315E+02 -0.63953583725E+01 -0.40496815584E+03  0.41770183380E+03  0.80604289840E+02 0.  0.
         25    2    1    2    0    0  0.65733067774E+02  0.12182521637E+03  0.27658636518E+03  0.33362652226E+03  0.12507765351E+03 0.  0.
        -24    2    1    2    0    0 -0.29822704591E+01 -0.11542985800E+03  0.57927764050E+03  0.59613167292E+03  0.80482548575E+02 0.  0.
        -11    1    3    3    0    0  0.17109561232E+02 -0.42216770944E+01 -0.34763052725E+02  0.38974728707E+02  0.00000000000E+00 0.  1.
         12    1    3    3    0    0 -0.79860358546E+02 -0.21736812780E+01 -0.37020510312E+03  0.37872710509E+03  0.00000000000E+00 0. -1.
         13    1    5    5    0    0 -0.17732786335E+02 -0.11252339003E+03  0.56108193453E+03  0.57252851656E+03  0.00000000000E+00 0. -1.
        -14    1    5    5    0    0  0.14750515876E+02 -0.29064679672E+01  0.18195705964E+02  0.23603156360E+02  0.00000000000E+00 0.  1.
          5    1    4    4  501    0  0.52985740657E+01 -0.20306069920E+02  0.84220999751E+02  0.86896838618E+02  0.41800000000E+01 0.  1.
         -5    1    4    4    0  501  0.60434493708E+02  0.14213128629E+03  0.19236536543E+03  0.24672968364E+03  0.41800000000E+01 0.  1.
</event>
<event>
11    1  0.8453735E-009  0.1618658E+03  0.7561462E-02  0.1085335E+00
         22   -1    0    0    0    0  0.00000000000E+00  0.00000000000E+00  0.33653108935E+03  0.33653108935E+03  0.00000000000E+00 0.  1.
         22   -1    0    0    0    0 -0.00000000000E+00 -0.00000000000E+00 -0.23676832930E+03  0.23676832930E+03  0.00000000000E+00 0. -1.
         24    2    1    2    0    0  0.74661568564E+02  0.66374996630E+02 -0.13102226156E+03  0.18349203768E+03  0.80762026156E+02 0.  0.
         25    2    1    2    0    0 -0.12054582183E+03 -0.33849622250E+02  0.49021383858E+02  0.18365009089E+03  0.12508863946E+03 0.  0.
        -24    2    1    2    0    0  0.45884253262E+02 -0.32525374381E+02  0.18176363775E+03  0.20615729008E+03  0.79369664032E+02 0.  0.
        -11    1    3    3    0    0  0.71552890629E+01  0.61643603461E+01  0.11380066682E+02  0.14788624606E+02  0.00000000000E+00 0.  1.
         12    1    3    3    0    0  0.67506279501E+02  0.60210636284E+02 -0.14240232824E+03  0.16870341307E+03  0.00000000000E+00 0. -1.
         13    1    5    5    0    0  0.10709900699E+02 -0.50365422410E+02  0.65069232366E+02  0.82978206465E+02  0.00000000000E+00 0. -1.
        -14    1    5    5    0    0  0.35174352564E+02  0.17840048029E+02  0.11669440539E+03  0.12317908361E+03  0.00000000000E+00 0.  1.
          5    1    4    4  501    0  0.26267857174E+02 -0.53713365783E+01  0.11043020539E+02  0.29296284402E+02  0.41800000000E+01 0. -1.
         -5    1    4    4    0  501 -0.14681367900E+03 -0.28478285671E+02  0.37978363318E+02  0.15435380649E+03  0.41800000000E+01 0. -1.
</event>
<event>
11    1  0.8453735E-009  0.1929935E+03  0.7561462E-02  0.1059592E+00
         22   -1    0    0    0    0  0.00000000000E+00  0.00000000000E+00  0.11540167171E+03  0.11540167171E+03  0.00000000000E+00 0. -1.
         22   -1    0    0    0    0 -0.00000000000E+00 -0.00000000000E+00 -0.11561717118E+04  0.11561717118E+04  0.00000000000E+00 0. -1.
        -24    2    1    2    0    0 -0.14250489314E+03  0.13227091369E+02 -0.85101748193E+03  0.86635670499E+03  0.76554459134E+02 0.  0.
         25    2    1    2    0    0  0.18136232795E+03  0.67520879643E+02 -0.16171494043E+03  0.28151179891E+03  0.12508320342E+03 0.  0.
         24    2    1    2    0    0 -0.38857434810E+02 -0.80747971012E+02 -0.28037617728E+02  0.12370487962E+03  0.80539767639E+02 0.  0.
        -13    1    5    5    0    0 -0.18010480277E+01 -0.83271533549E+02 -0.21071138420E+02  0.85914986749E+02  0.00000000000E+00 0.  1.
         14    1    5    5    0    0 -0.37056386783E+02  0.25235625376E+01 -0.69664793073E+01  0.37789892871E+02  0.00000000000E+00 0. -1.
         13    1    3    3    0    0 -0.14726512903E+03  0.52771518210E+01 -0.71518305050E+03  0.73020658877E+03  0.00000000000E+00 0. -1.
        -14    1    3    3    0    0  0.47602358909E+01  0.79499395477E+01 -0.13583443143E+03  0.13615011622E+03  0.00000000000E+00 0.  1.
          5    1    4    4  501    0  0.31019180491E+02  0.47431703653E+02 -0.10524534605E+03  0.11960773945E+03  0.41800000000E+01 0.  1.
         -5    1    4    4    0  501  0.15034314746E+03  0.20089175990E+02 -0.56469594376E+02  0.16190405946E+03  0.41800000000E+01 0.  1.
</event>
<event>
11    1  0.8453735E-009  0.1633166E+03  0.7561462E-02  0.1083999E+00
         22   -1    0    0    0    0  0.00000000000E+00  0.00000000000E+00  0.11539297601E+04  0.11539297601E+04  0.00000000000E+00 0. -1.
         22   -1    0    0    0    0 -0.00000000000E+00 -0.00000000000E+00 -0.23237813239E+03  0.23237813239E+03  0.00000000000E+00 0.  1.
         24    2    1    2    0    0 -0.56031033078E+02 -0.36673075069E+02 -0.18131305834E+03  0.20953381810E+03  0.80904911469E+02 0.  0.
         25    2    1    2    0    0  0.14672622237E+03  0.72067423065E+02  0.29173931752E+03  0.35704662058E+03  0.12509261402E+03 0.  0.
        -24    2    1    2    0    0 -0.90695189290E+02 -0.35394347996E+02  0.81112536856E+03  0.81972745385E+03  0.67456340190E+02 0.  0.
        -13    1    3    3    0    0 -0.11633514846E+02 -0.66959100547E+01 -0.14310689996E+03  0.14373502947E+03  0.00000000000E+00 0.  1.
         14    1    3    3    0    0 -0.44397518232E+02 -0.29977165014E+02 -0.38206158377E+02  0.65798788631E+02  0.00000000000E+00 0. -1.
         13    1    5    5    0    0 -0.89058669317E+02 -0.43932932403E+02  0.79684307978E+03  0.80300712507E+03  0.00000000000E+00 0. -1.
        -14    1    5    5    0    0 -0.16365199729E+01  0.85385844068E+01  0.14282288785E+02  0.16720328772E+02  0.00000000000E+00 0.  1.
          5    1    4    4  501    0  0.15864490311E+03  0.91100788247E+02  0.25831328854E+03  0.31656087303E+03  0.41800000000E+01 0. -1.
         -5    1    4    4    0  501 -0.11918680738E+02 -0.19033365182E+02  0.33426028985E+02  0.40485747547E+02  0.41800000000E+01 0. -1.
</event>
<event>
11    1  0.8453735E-009  0.1478570E+03  0.7561462E-02  0.1099089E+00
         22   -1    0    0    0    0  0.00000000000E+00  0.00000000000E+00  0.40437004447E+03  0.40437004447E+03  0.00000000000E+00 0. -1.
         22   -1    0    0    0    0 -0.00000000000E+00 -0.00000000000E+00 -0.10643623498E+04  0.10643623498E+04  0.00000000000E+00 0.  1.
        -24    2    1    2    0    0  0.34469498030E+02 -0.16541390098E+02 -0.10030235587E+04  0.10070126267E+04  0.80971644157E+02 0.  0.
         25    2    1    2    0    0  0.46739399867E+02 -0.12335995208E+02  0.46161358322E+02  0.14183272399E+03  0.12509557272E+03 0.  0.
         24    2    1    2    0    0 -0.81208897897E+02  0.28877385305E+02  0.29686989508E+03  0.31988704354E+03  0.82262977967E+02 0.  0.
        -13    1    5    5    0    0  0.13228652925E+02  0.40779507574E+00  0.10160254839E+02  0.16685153083E+02  0.00000000000E+00 0.  1.
         14    1    5    5    0    0 -0.94437550821E+02  0.28469590230E+02  0.28670964024E+03  0.30320189046E+03  0.00000000000E+00 0. -1.
         13    1    3    3    0    0 -0.19369807643E+02 -0.32392909302E+00 -0.81325532910E+02  0.83601056699E+02  0.00000000000E+00 0. -1.
        -14    1    3    3    0    0  0.53839305673E+02 -0.16217461005E+02 -0.92169802579E+03  0.92341157001E+03  0.00000000000E+00 0.  1.
          5    1    4    4  501    0  0.47035387871E+02 -0.22932312459E+02 -0.32901334687E+02  0.61953118494E+02  0.41800000000E+01 0. -1.
         -5    1    4    4    0  501 -0.29598800460E+00  0.10596317252E+02  0.79062693009E+02  0.79879605495E+02  0.41800000000E+01 0. -1.
</event>
<event>
11    1  0.8453735E-009  0.2405097E+03  0.7561462E-02  0.1029080E+00
         22   -1    0    0    0    0  0.00000000000E+00  0.00000000000E+00  0.64613087499E+03  0.64613087499E+03  0.00000000000E+00 0.  1.
         22   -1    0    0    0    0 -0.00000000000E+00 -0.00000000000E+00 -0.43423889485E+03  0.43423889485E+03  0.00000000000E+00 0.  1.
        -24    2    1    2    0    0  0.14783255856E+03 -0.14023877391E+03 -0.35121815492E+03  0.41441118688E+03  0.82831518066E+02 0.  0.
         25    2    1    2    0    0 -0.16706238413E+03  0.15102714303E+03  0.33333288477E+03  0.42128058332E+03  0.12508988642E+03 0.  0.
         24    2    1    2    0    0  0.19229825570E+02 -0.10788369116E+02  0.22977725029E+03  0.24467799965E+03  0.81139162330E+02 0.  0.
        -13    1    5    5    0    0  0.17480699732E+02  0.82928592197E+01  0.22375891163E+03  0.22459384878E+03  0.00000000000E+00 0.  1.
         14    1    5    5    0    0  0.17491258388E+01 -0.19081228335E+02  0.60183386606E+01  0.20084150871E+02  0.00000000000E+00 0. -1.
         11    1    3    3    0    0  0.48452669633E+02 -0.75451015265E+02 -0.21969282411E+03  0.23728770273E+03  0.00000000000E+00 0. -1.
        -12    1    3    3    0    0  0.99379888926E+02 -0.64787758650E+02 -0.13152533081E+03  0.17712348415E+03  0.00000000000E+00 0.  1.
          5    1    4    4  501    0 -0.15779838357E+03  0.13277690386E+03  0.20343038713E+03  0.28970921777E+03  0.41800000000E+01 0.  1.
         -5    1    4    4    0  501 -0.92640005559E+01  0.18250239174E+02  0.12990249764E+03  0.13157136554E+03  0.41800000000E+01 0.  1.
</event>
<event>
11    1  0.8453735E-009  0.1339170E+03  0.7561462E-02  0.1114548E+00
         22   -1    0    0    0    0  0.00000000000E+00  0.00000000000E+00  0.25436298755E+04  0.25436298755E+04  0.00000000000E+00 0. -1.
         22   -1    0    0    0    0 -0.00000000000E+00 -0.00000000000E+00 -0.20146290734E+03  0.20146290734E+03  0.00000000000E+00 0.  1.
        -24    2    1    2    0    0  0.24985228132E+02  0.42921403101E+02 -0.15743498444E+03  0.18397787848E+03  0.81213157666E+02 0.  0.
         25    2    1    2    0    0  0.91096390926E+01 -0.37300419821E+02  0.11297364634E+03  0.17286341314E+03  0.12507760788E+03 0.  0.
         24    2    1    2    0    0 -0.34094867225E+02 -0.56209832796E+01  0.23866283063E+04  0.23882514912E+04  0.80971955827E+02 0.  0.
        -13    1    5    5    0    0 -0.25062335506E+02 -0.30822628479E+02  0.55190906441E+03  0.55333694118E+03  0.00000000000E+00 0.  1.
         14    1    5    5    0    0 -0.90325317192E+01  0.25201645200E+02  0.18347192418E+04  0.18349145500E+04  0.00000000000E+00 0. -1.
         11    1    3    3    0    0 -0.29968074415E+02  0.14977353184E+02 -0.58079230040E+02  0.67049262148E+02  0.00000000000E+00 0. -1.
        -12    1    3    3    0    0  0.54953302548E+02  0.27944049916E+02 -0.99355754397E+02  0.11692861634E+03  0.00000000000E+00 0.  1.
          5    1    4    4  501    0 -0.37875181693E+02  0.21547009176E+02  0.94551819190E+01  0.44784772611E+02  0.41800000000E+01 0. -1.
         -5    1    4    4    0  501  0.46984820785E+02 -0.58847428997E+02  0.10351846442E+03  0.12807864053E+03  0.41800000000E+01 0. -1.
</event>
<event>
11    1  0.1061095E-008  0.2245346E+03  0.7561462E-02  0.1038414E+00
         22   -1    0    0    0    0  0.00000000000E+00  0.00000000000E+00  0.29591238453E+03  0.29591238453E+03  0.00000000000E+00 0.  1.
         22   -1    0    0    0    0 -0.00000000000E+00 -0.00000000000E+00 -0.11330851232E+04  0.11330851232E+04  0.00000000000E+00 0. -1.
        -24    2    1    2    0    0 -0.12135925957E+02  0.38249970473E+02 -0.62758971515E+03  0.63321935586E+03  0.74078074557E+02 0.  0.
         25    2    1    2    0    0  0.19686657664E+03 -0.18124956692E+02 -0.43433639257E+03  0.49333688545E+03  0.12509283584E+03 0.  0.
         24    2    1    2    0    0 -0.18473065068E+03 -0.20125013781E+02  0.22475336902E+03  0.30244126646E+03  0.80163665683E+02 0.  0.
        -13    1    5    5    0    0 -0.17929715201E+03 -0.58334074511E+01  0.22420741844E+03  0.28714188800E+03  0.00000000000E+00 0.  1.
         14    1    5    5    0    0 -0.54334986645E+01 -0.14291606330E+02  0.54595057688E+00  0.15299378460E+02  0.00000000000E+00 0. -1.
         11    1    3    3    0    0 -0.24588304805E+02  0.56009672401E+02 -0.50900287562E+03  0.51266518852E+03  0.00000000000E+00 0. -1.
        -12    1    3    3    0    0  0.12452378848E+02 -0.17759701928E+02 -0.11858683954E+03  0.12055416734E+03  0.00000000000E+00 0.  1.
          5    1    4    4  501    0  0.18378143258E+03 -0.56107422519E+02 -0.37747934896E+03  0.42359389646E+03  0.41800000000E+01 0.  1.
         -5    1    4    4    0  501  0.13085144053E+02  0.37982465827E+02 -0.56857043612E+02  0.69742988992E+02  0.41800000000E+01 0.  1.
</event>
<event>
11    1  0.8453735E-009  0.1895055E+03  0.7561462E-02  0.1062203E+00
         22   -1    0    0    0    0  0.00000000000E+00  0.00000000000E+00  0.60065014405E+03  0.60065014405E+03  0.00000000000E+00 0. -1.
         22   -1    0    0    0    0 -0.00000000000E+00 -0.00000000000E+00 -0.65637265467E+03  0.65637265467E+03  0.00000000000E+00 0. -1.
         24    2    1    2    0    0  0.20799423626E+00  0.48306946078E+02 -0.59280967856E+03  0.59912002783E+03  0.72026998092E+02 0.  0.
         25    2    1    2    0    0 -0.13199511547E+03 -0.87770981272E+02  0.19621551235E+03  0.28156260426E+03  0.12510202702E+03 0.  0.
        -24    2    1    2    0    0  0.13178712123E+03  0.39464035194E+02  0.34087165558E+03  0.37634016663E+03  0.80704275280E+02 0.  0.
        -13    1    3    3    0    0  0.14093777761E+02  0.60058511859E+01 -0.23378610668E+02  0.27951104751E+02  0.00000000000E+00 0.  1.
         14    1    3    3    0    0 -0.13885783524E+02  0.42301094892E+02 -0.56943106789E+03  0.57116892308E+03  0.00000000000E+00 0. -1.
         11    1    5    5    0    0  0.94622960562E+02  0.64649741685E+02  0.24527239464E+03  0.27072429026E+03  0.00000000000E+00 0. -1.
        -12    1    5    5    0    0  0.37164160671E+02 -0.25185706490E+02  0.95599260939E+02  0.10561587637E+03  0.00000000000E+00 0.  1.
          5    1    4    4  501    0 -0.49907595543E+02 -0.53710212023E+02  0.86245424447E+01  0.73941937362E+02  0.41800000000E+01 0.  1.
         -5    1    4    4    0  501 -0.82087519926E+02 -0.34060769249E+02  0.18759096991E+03  0.20762066689E+03  0.41800000000E+01 0.  1.
</event>
<event>
11    1  0.8453735E-009  0.3902798E+03  0.7561462E-02  0.9678881E-01
         22   -1    0    0    0    0  0.00000000000E+00  0.00000000000E+00  0.23178605240E+04  0.23178605240E+04  0.00000000000E+00 0.  1.
         22   -1    0    0    0    0 -0.00000000000E+00 -0.00000000000E+00 -0.16588147152E+03  0.16588147152E+03  0.00000000000E+00 0.  1.
        -24    2    1    2    0    0  0.38744820782E+01  0.13401113459E+02 -0.51963292904E+00  0.82082992156E+02  0.80887243305E+02 0.  0.
         25    2    1    2    0    0 -0.20124734442E+03  0.30083007585E+03  0.24011229204E+03  0.45199671823E+03  0.12509153583E+03 0.  0.
         24    2    1    2    0    0  0.19737286234E+03 -0.31423118930E+03  0.19123863934E+04  0.19496622851E+04  0.79145571148E+02 0.  0.
        -13    1    5    5    0    0  0.19609192789E+03 -0.26247871085E+03  0.16453823745E+04  0.16776859885E+04  0.00000000000E+00 0.  1.
         14    1    5    5    0    0  0.12809344531E+01 -0.51752478449E+02  0.26700401888E+03  0.27197629661E+03  0.00000000000E+00 0. -1.
         11    1    3    3    0    0  0.24245392645E+02  0.32179141113E+02 -0.23009961477E+02  0.46398216717E+02  0.00000000000E+00 0. -1.
        -12    1    3    3    0    0 -0.20370910567E+02 -0.18778027655E+02  0.22490328548E+02  0.35684775439E+02  0.00000000000E+00 0.  1.
          5    1    4    4  501    0 -0.19688571823E+03  0.30388689044E+03  0.20475448841E+03  0.41599651579E+03  0.41800000000E+01 0.  1.
         -5    1    4    4    0  501 -0.43616261853E+01 -0.30568145932E+01  0.35357803631E+02  0.36000202445E+02  0.41800000000E+01 0.  1.
</event>
<event>
11    1  0.8453735E-009  0.1592851E+03  0.7561462E-02  0.1087752E+00
         22   -1    0    0    0    0  0.00000000000E+00  0.00000000000E+00  0.49116709848E+03  0.49116709848E+03  0.00000000000E+00 0.  1.
         22   -1    0    0    0    0 -0.00000000000E+00 -0.00000000000E+00 -0.40522905216E+03  0.40522905216E+03  0.00000000000E+00 0. -1.
        -24    2    1    2    0    0 -0.33720262080E+02  0.68037317667E+02 -0.24330903679E+03  0.26692119867E+03  0.79255954031E+02 0.  0.
         25    2    1    2    0    0  0.38050348652E+02 -0.16219958451E+03 -0.63514923431E+02  0.21777909734E+03  0.12504821268E+03 0.  0.
         24    2    1    2    0    0 -0.43300865724E+01  0.94162266841E+02  0.39276200654E+03  0.41169585462E+03  0.79663045268E+02 0.  0.
        -13    1    5    5    0    0  0.26961974257E+02  0.86937214139E+02  0.30204662002E+03  0.31546344942E+03  0.00000000000E+00 0.  1.
         14    1    5    5    0    0 -0.31292060829E+02  0.72250527018E+01  0.90715386526E+02  0.96232405198E+02  0.00000000000E+00 0. -1.
         11    1    3    3    0    0 -0.24650481370E+02  0.78790227906E+02 -0.13900101144E+03  0.16166888206E+03  0.00000000000E+00 0. -1.
        -12    1    3    3    0    0 -0.90697807100E+01 -0.10752910239E+02 -0.10430802535E+03  0.10525231662E+03  0.00000000000E+00 0.  1.
          5    1    4    4  501    0 -0.44250818800E+02 -0.36238074383E+02 -0.11256882461E+02  0.58442474300E+02  0.41800000000E+01 0. -1.
         -5    1    4    4    0  501  0.82301167452E+02 -0.12596151012E+03 -0.52258040970E+02  0.15933662304E+03  0.41800000000E+01 0. -1.
</event>
<event>
11    1  0.8453735E-009  0.1402095E+03  0.7561462E-02  0.1107325E+00
         22   -1    0    0    0    0  0.00000000000E+00  0.00000000000E+00  0.28450891217E+03  0.28450891217E+03  0.00000000000E+00 0. -1.
         22   -1    0    0    0    0 -0.00000000000E+00 -0.00000000000E+00 -0.64729834568E+03  0.64729834568E+03  0.00000000000E+00 0.  1.
        -24    2    1    2    0    0 -0.43481541386E+02 -0.36510499209E+02 -0.50836792565E+03  0.51786761414E+03  0.80779062572E+02 0.  0.
         25    2    1    2    0    0 -0.21870087823E+02  0.48157286670E+02 -0.84871261732E+02  0.16015201670E+03  0.12509241537E+03 0.  0.
         24    2    1    2    0    0  0.65351629209E+02 -0.11646787461E+02  0.23044975387E+03  0.25378762702E+03  0.83033652624E+02 0.  0.
        -11    1    5    5    0    0  0.40457102078E+02  0.48338732230E+01  0.28693428863E+02  0.49834288385E+02  0.00000000000E+00 0.  1.
         12    1    5    5    0    0  0.24894527131E+02 -0.16480660684E+02  0.20175632501E+03  0.20395333863E+03  0.00000000000E+00 0. -1.
         13    1    3    3    0    0  0.22942958254E+02 -0.57927660604E+01 -0.17276608516E+03  0.17437905738E+03  0.00000000000E+00 0. -1.
        -14    1    3    3    0    0 -0.66424499639E+02 -0.30717733149E+02 -0.33560184049E+03  0.34348855676E+03  0.00000000000E+00 0.  1.
          5    1    4    4  501    0 -0.24723098986E+02 -0.33518011631E+02 -0.62666823379E+02  0.75361076688E+02  0.41800000000E+01 0.  1.
         -5    1    4    4    0  501  0.28530111628E+01  0.81675298302E+02 -0.22204438353E+02  0.84790940011E+02  0.41800000000E+01 0.  1.
</event>
<event>
11    1  0.8453735E-009  0.1453903E+03  0.7561462E-02  0.1101684E+00
         22   -1    0    0    0    0  0.00000000000E+00  0.00000000000E+00  0.43566142194E+03  0.43566142194E+03  0.00000000000E+00 0.  1.
         22   -1    0    0    0    0 -0.00000000000E+00 -0.00000000000E+00 -0.34036601794E+03  0.34036601794E+03  0.00000000000E+00 0. -1.
        -24    2    1    2    0    0 -0.22223836955E+02  0.68107542898E+02 -0.26337457130E+03  0.28479508403E+03  0.81299069802E+02 0.  0.
         25    2    1    2    0    0  0.34909890545E+02 -0.91893742303E+02  0.43750788749E+02  0.16499326098E+03  0.12508191044E+03 0.  0.
         24    2    1    2    0    0 -0.12686053590E+02  0.23786199404E+02  0.31491918655E+03  0.32623909488E+03  0.80815430020E+02 0.  0.
        -11    1    5    5    0    0 -0.30355782755E+02  0.47005466976E+02  0.20111342354E+03  0.20875247687E+03  0.00000000000E+00 0.  1.
         12    1    5    5    0    0  0.17669729165E+02 -0.23219267571E+02  0.11380576302E+03  0.11748661801E+03  0.00000000000E+00 0. -1.
         13    1    3    3    0    0 -0.24178548546E+01  0.39546234836E+02 -0.23919729065E+03  0.24245637662E+03  0.00000000000E+00 0. -1.
        -14    1    3    3    0    0 -0.19805982100E+02  0.28561308062E+02 -0.24177280656E+02  0.42338707409E+02  0.00000000000E+00 0.  1.
          5    1    4    4  501    0  0.15765761463E+02 -0.84499730929E+02  0.83597150325E+02  0.11997799675E+03  0.41800000000E+01 0. -1.
         -5    1    4    4    0  501  0.19144129082E+02 -0.73940113734E+01 -0.39846361576E+02  0.45015264226E+02  0.41800000000E+01 0. -1.
</event>
<event>
11    1  0.8643170E-009  0.2057229E+03  0.7561462E-02  0.1050549E+00
         22   -1    0    0    0    0  0.00000000000E+00  0.00000000000E+00  0.21637575757E+04  0.21637575757E+04  0.00000000000E+00 0. -1.
         22   -1    0    0    0    0 -0.00000000000E+00 -0.00000000000E+00 -0.38673007359E+03  0.38673007359E+03  0.00000000000E+00 0. -1.
        -24    2    1    2    0    0  0.24914772675E+01 -0.46899284597E+02 -0.25405985516E+03  0.27109301439E+03  0.82093008788E+02 0.  0.
         25    2    1    2    0    0  0.15056947170E+03 -0.11803077794E+02 -0.40131951237E+02  0.20017268658E+03  0.12509217597E+03 0.  0.
         24    2    1    2    0    0 -0.15306094897E+03  0.58702362391E+02  0.20712193085E+04  0.20792219483E+04  0.79629548406E+02 0.  0.
        -13    1    5    5    0    0 -0.31041757629E+01 -0.57943140131E+01  0.13272135728E+02  0.14810792309E+02  0.00000000000E+00 0.  1.
         14    1    5    5    0    0 -0.14995677321E+03  0.64496676404E+02  0.20579471728E+04  0.20644111560E+04  0.00000000000E+00 0. -1.
         11    1    3    3    0    0 -0.11961140408E+02  0.60359634662E+01 -0.17112401108E+03  0.17164768831E+03  0.00000000000E+00 0. -1.
        -12    1    3    3    0    0  0.14452617676E+02 -0.52935248063E+02 -0.82935844079E+02  0.99445326076E+02  0.00000000000E+00 0.  1.
          5    1    4    4  501    0  0.22904921838E+02  0.32958249149E+02 -0.50249135290E+02  0.64446331383E+02  0.41800000000E+01 0. -1.
         -5    1    4    4    0  501  0.12766454986E+03 -0.44761326942E+02  0.10117184053E+02  0.13572635520E+03  0.41800000000E+01 0. -1.
</event>
<event>
11    1  0.8453735E-009  0.1433708E+03  0.7561462E-02  0.1103852E+00
         22   -1    0    0    0    0  0.00000000000E+00  0.00000000000E+00  0.23525558647E+04  0.23525558647E+04  0.00000000000E+00 0.  1.
         22   -1    0    0    0    0 -0.00000000000E+00 -0.00000000000E+00 -0.19512010074E+03  0.19512010074E+03  0.00000000000E+00 0. -1.
         24    2    1    2    0    0 -0.64463534863E+02 -0.38559450829E+02 -0.16696896642E+03  0.20019681619E+03  0.80979941279E+02 0.  0.
         25    2    1    2    0    0  0.34947921436E+01 -0.14250330833E+02  0.39156998625E+03  0.41132744043E+03  0.12509166089E+03 0.  0.
        -24    2    1    2    0    0  0.60968742719E+02  0.52809781662E+02  0.19328347441E+04  0.19361517088E+04  0.79543892449E+02 0.  0.
        -11    1    3    3    0    0 -0.89058974646E+01  0.11610190635E+02 -0.95788423121E+02  0.96899605470E+02  0.00000000000E+00 0.  1.
         12    1    3    3    0    0 -0.55557637398E+02 -0.50169641464E+02 -0.71180543295E+02  0.10329721072E+03  0.00000000000E+00 0. -1.
         13    1    5    5    0    0  0.54783043748E+02 -0.15559643185E+01  0.12145710664E+04  0.12158069247E+04  0.00000000000E+00 0. -1.
        -14    1    5    5    0    0  0.61856989713E+01  0.54365745981E+02  0.71826367774E+03  0.72034478409E+03  0.00000000000E+00 0.  1.
          5    1    4    4  501    0 -0.55585233173E+02  0.29878640909E+01  0.11333530405E+03  0.12633688702E+03  0.41800000000E+01 0.  1.
         -5    1    4    4    0  501  0.59080025317E+02 -0.17238194924E+02  0.27823468220E+03  0.28499055341E+03  0.41800000000E+01 0.  1.
</event>
<event>
11    1  0.8453735E-009  0.1437141E+03  0.7561462E-02  0.1103480E+00
         22   -1    0    0    0    0  0.00000000000E+00  0.00000000000E+00  0.16597417227E+03  0.16597417227E+03  0.00000000000E+00 0. -1.
         22   -1    0    0    0    0 -0.00000000000E+00 -0.00000000000E+00 -0.15160740480E+04  0.15160740480E+04  0.00000000000E+00 0. -1.
        -24    2    1    2    0    0 -0.34576861315E+02  0.15984500804E+02 -0.12393386912E+04  0.12426525717E+04  0.82304064410E+02 0.  0.
         25    2    1    2    0    0  0.92385909646E+02  0.22067408342E+02 -0.23022207582E+03  0.27869627762E+03  0.12508910485E+03 0.  0.
         24    2    1    2    0    0 -0.57809048332E+02 -0.38051909145E+02  0.11946089122E+03  0.16069937094E+03  0.82240801507E+02 0.  0.
        -13    1    5    5    0    0 -0.70620644451E+02 -0.11337531586E+02  0.56615164666E+02  0.91220019268E+02  0.00000000000E+00 0.  1.
         14    1    5    5    0    0  0.12811596119E+02 -0.26714377560E+02  0.62845726550E+02  0.69479351675E+02  0.00000000000E+00 0. -1.
         11    1    3    3    0    0  0.93506107465E+01  0.88052269719E+01 -0.93384735151E+03  0.93393567331E+03  0.00000000000E+00 0. -1.
        -12    1    3    3    0    0 -0.43927472061E+02  0.71792738318E+01 -0.30549133965E+03  0.30871689843E+03  0.00000000000E+00 0.  1.
          5    1    4    4  501    0  0.16150772766E+02  0.31943916146E+02 -0.18693152385E+03  0.19037365429E+03  0.41800000000E+01 0. -1.
         -5    1    4    4    0  501  0.76235136881E+02 -0.98765078048E+01 -0.43290551965E+02  0.88322623325E+02  0.41800000000E+01 0. -1.
</event>
<event>
11    1  0.8453735E-009  0.3163500E+03  0.7561462E-02  0.9934995E-01
         22   -1    0    0    0    0  0.00000000000E+00  0.00000000000E+00  0.16881741823E+03  0.16881741823E+03  0.00000000000E+00 0. -1.
         22   -1    0    0    0    0 -0.00000000000E+00 -0.00000000000E+00 -0.14150503246E+04  0.14150503246E+04  0.00000000000E+00 0. -1.
        -24    2    1    2    0    0 -0.18725967538E+03  0.22475348296E+03 -0.99285975506E+03  0.10381493997E+04  0.80021051612E+02 0.  0.
         25    2    1    2    0    0  0.17290849085E+03 -0.22678281548E+03 -0.31459409226E+03  0.44265766462E+03  0.12509425870E+03 0.  0.
         24    2    1    2    0    0  0.14351184530E+02  0.20293325167E+01  0.61220940945E+02  0.10306067854E+03  0.81629805606E+02 0.  0.
        -13    1    5    5    0    0  0.38570855145E+02  0.73613208579E+01  0.25336774725E+01  0.39348690358E+02  0.00000000000E+00 0.  1.
         14    1    5    5    0    0 -0.24219670615E+02 -0.53319883412E+01  0.58687263472E+02  0.63711988183E+02  0.00000000000E+00 0. -1.
         13    1    3    3    0    0 -0.16405725118E+03  0.22463304940E+03 -0.94271022741E+03  0.98289234478E+03  0.00000000000E+00 0. -1.
        -14    1    3    3    0    0 -0.23202424199E+02  0.12043355917E+00 -0.50149527645E+02  0.55257054897E+02  0.00000000000E+00 0.  1.
          5    1    4    4  501    0 -0.12952024541E+02 -0.22790183938E+02 -0.34907758135E+01  0.26773220565E+02  0.41800000000E+01 0. -1.
         -5    1    4    4    0  501  0.18586051539E+03 -0.20399263154E+03 -0.31110331645E+03  0.41588444406E+03  0.41800000000E+01 0. -1.
</event>
<event>
11    1  0.8453735E-009  0.1356854E+03  0.7561462E-02  0.1112474E+00
         22   -1    0    0    0    0  0.00000000000E+00  0.00000000000E+00  0.30304822579E+03  0.30304822579E+03  0.00000000000E+00 0.  1.
         22   -1    0    0    0    0 -0.00000000000E+00 -0.00000000000E+00 -0.58117736224E+03  0.58117736224E+03  0.00000000000E+00 0. -1.
         24    2    1    2    0    0  0.40856225735E+02 -0.12957373161E+02 -0.30918301253E+03  0.32214661032E+03  0.79669182271E+02 0.  0.
         25    2    1    2    0    0 -0.72326631400E+02  0.53676517306E+02 -0.23442883562E+03  0.28057113575E+03  0.12510384936E+03 0.  0.
        -24    2    1    2    0    0  0.31470405665E+02 -0.40719144145E+02  0.26548271171E+03  0.28150784196E+03  0.78212273552E+02 0.  0.
        -11    1    3    3    0    0  0.35214943449E+02 -0.59337632688E+01 -0.43368254489E+02  0.56179242484E+02  0.00000000000E+00 0.  1.
         12    1    3    3    0    0  0.56412822858E+01 -0.70236098920E+01 -0.26581475804E+03  0.26596736784E+03  0.00000000000E+00 0. -1.
         11    1    5    5    0    0 -0.12314642946E+02 -0.22732472113E+02  0.23497438233E+02  0.34936303794E+02  0.00000000000E+00 0. -1.
        -12    1    5    5    0    0  0.43785048611E+02 -0.17986672031E+02  0.24198527348E+03  0.24657153816E+03  0.00000000000E+00 0.  1.
          5    1    4    4  501    0 -0.54547714875E+02  0.22073511195E+02 -0.18860657648E+02  0.61934561445E+02  0.41800000000E+01 0.  1.
         -5    1    4    4    0  501 -0.17778916525E+02  0.31603006111E+02 -0.21556817798E+03  0.21863657430E+03  0.41800000000E+01 0.  1.
</event>
<event>
11    1  0.8453735E-009  0.1607382E+03  0.7561462E-02  0.1086385E+00
         22   -1    0    0    0    0  0.00000000000E+00  0.00000000000E+00  0.99264215663E+03  0.99264215663E+03  0.00000000000E+00 0. -1.
         22   -1    0    0    0    0 -0.00000000000E+00 -0.00000000000E+00 -0.77914357160E+02  0.77914357160E+02  0.00000000000E+00 0.  1.
        -24    2    1    2    0    0  0.27429705839E+02  0.10182779988E+03  0.17371486460E+02  0.13427900595E+03  0.81288334390E+02 0.  0.
         25    2    1    2    0    0 -0.11220782003E+01 -0.82638338811E+02  0.32849887375E+03  0.36109217937E+03  0.12508276398E+03 0.  0.
         24    2    1    2    0    0 -0.26307627639E+02 -0.19189461067E+02  0.56885743926E+03  0.57518532847E+03  0.78606928417E+02 0.  0.
        -11    1    5    5    0    0 -0.16669682883E+01 -0.17284771862E+02  0.52130427159E+03  0.52159341033E+03  0.00000000000E+00 0.  1.
         12    1    5    5    0    0 -0.24640659351E+02 -0.19046892055E+01  0.47553167667E+02  0.53591918135E+02  0.00000000000E+00 0. -1.
         13    1    3    3    0    0 -0.34938274165E+01 -0.11027137482E+02 -0.86030247652E+01  0.14415846356E+02  0.00000000000E+00 0. -1.
        -14    1    3    3    0    0  0.30923533256E+02  0.11285493736E+03  0.25974511225E+02  0.11986315960E+03  0.00000000000E+00 0.  1.
          5    1    4    4  501    0  0.20471667181E+01 -0.41816550795E+02  0.14644211614E+02  0.44550422509E+02  0.41800000000E+01 0.  1.
         -5    1    4    4    0  501 -0.31692449184E+01 -0.40821788016E+02  0.31385466214E+03  0.31654175686E+03  0.41800000000E+01 0.  1.
</event>
<event>
11    1  0.8453735E-009  0.1299539E+03  0.7561462E-02  0.1119326E+00
         22   -1    0    0    0    0  0.00000000000E+00  0.00000000000E+00  0.26777644484E+03  0.26777644484E+03  0.00000000000E+00 0.  1.
         22   -1    0    0    0    0 -0.00000000000E+00 -0.00000000000E+00 -0.33778956641E+03  0.33778956641E+03  0.00000000000E+00 0.  1.
         24    2    1    2    0    0 -0.27248236358E+02 -0.23799844082E+02 -0.27503934256E+03  0.28862317133E+03  0.79673057616E+02 0.  0.
         25    2    1    2    0    0  0.28055221753E+02  0.18791253260E+01  0.42720707953E+02  0.13514174961E+03  0.12509039540E+03 0.  0.
        -24    2    1    2    0    0 -0.80698539518E+00  0.21920718756E+02  0.16230551304E+03  0.18180109030E+03  0.78913799411E+02 0.  0.
        -13    1    3    3    0    0 -0.49579087709E+02 -0.24289731361E+01 -0.21969065862E+03  0.22522870894E+03  0.00000000000E+00 0.  1.
         14    1    3    3    0    0  0.22330851352E+02 -0.21370870946E+02 -0.55348683939E+02  0.63394462383E+02  0.00000000000E+00 0. -1.
         13    1    5    5    0    0  0.13430301260E+02  0.47209246401E+01 -0.33687552883E+01  0.14629033925E+02  0.00000000000E+00 0. -1.
        -14    1    5    5    0    0 -0.14237286655E+02  0.17199794116E+02  0.16567426832E+03  0.16717205638E+03  0.00000000000E+00 0.  1.
          5    1    4    4  501    0  0.29316000670E+02 -0.45249432008E+01  0.86054924799E+02  0.91119841355E+02  0.41800000000E+01 0.  1.
         -5    1    4    4    0  501 -0.12607789178E+01  0.64040685268E+01 -0.43334216846E+02  0.44021908260E+02  0.41800000000E+01 0.  1.
</event>
<event>
11    1  0.8453735E-009  0.1556749E+03  0.7561462E-02  0.1091217E+00
         22   -1    0    0    0    0  0.00000000000E+00  0.00000000000E+00  0.11443927273E+04  0.11443927273E+04  0.00000000000E+00 0.  1.
         22   -1    0    0    0    0 -0.00000000000E+00 -0.00000000000E+00 -0.54595163311E+03  0.54595163311E+03  0.00000000000E+00 0.  1.
        -24    2    1    2    0    0  0.92229090296E+02  0.20702539104E+02 -0.47691694576E+03  0.49274465516E+03  0.80079471859E+02 0.  0.
         25    2    1    2    0    0 -0.76677437218E+02  0.20554341596E+02  0.33702674853E+02  0.15193825399E+03  0.12508977735E+03 0.  0.
         24    2    1    2    0    0 -0.15551653078E+02 -0.41256880700E+02  0.10416553651E+04  0.10456614513E+04  0.80112339189E+02 0.  0.
        -11    1    5    5    0    0  0.20812288429E+02 -0.45063761382E+02  0.76373358298E+03  0.76534494165E+03  0.00000000000E+00 0.  1.
         12    1    5    5    0    0 -0.36363941507E+02  0.38068806819E+01  0.27792178215E+03  0.28031650964E+03  0.00000000000E+00 0. -1.
         13    1    3    3    0    0  0.36017603288E+02 -0.23333867893E+02 -0.95477931853E+02  0.10467938005E+03  0.00000000000E+00 0. -1.
        -14    1    3    3    0    0  0.56211487008E+02  0.44036406997E+02 -0.38143901391E+03  0.38806527511E+03  0.00000000000E+00 0.  1.
          5    1    4    4  501    0  0.31372668870E+02  0.12795613757E+02  0.26633982969E+02  0.43299116991E+02  0.41800000000E+01 0. -1.
         -5    1    4    4    0  501 -0.10805010609E+03  0.77587278391E+01  0.70686918843E+01  0.10863913700E+03  0.41800000000E+01 0. -1.
</event>
<event>
11    1  0.8453735E-009  0.1382733E+03  0.7561462E-02  0.1109502E+00
         22   -1    0    0    0    0  0.00000000000E+00  0.00000000000E+00  0.18713177931E+04  0.18713177931E+04  0.00000000000E+00 0.  1.
         22   -1    0    0    0    0 -0.00000000000E+00 -0.00000000000E+00 -0.43715489410E+02  0.43715489410E+02  0.00000000000E+00 0.  1.
         24    2    1    2    0    0  0.41812524655E+02 -0.19885257496E+02  0.12844697678E+03  0.17309803218E+03  0.10639827169E+03 0.  0.
         25    2    1    2    0    0 -0.32929996512E+02  0.10066335529E+03  0.33445274762E+03  0.37245530257E+03  0.12508723456E+03 0.  0.
        -24    2    1    2    0    0 -0.88825281429E+01 -0.80778097799E+02  0.13647025793E+04  0.13694799477E+04  0.80362908181E+02 0.  0.
        -11    1    3    3    0    0 -0.22812343923E+02 -0.90671986660E+01 -0.44290302804E+01  0.24944607355E+02  0.00000000000E+00 0.  1.
         12    1    3    3    0    0  0.64624868578E+02 -0.10818058830E+02  0.13287600706E+03  0.14815342483E+03  0.00000000000E+00 0. -1.
         11    1    5    5    0    0  0.13184205456E+01 -0.35535784988E+01  0.15361258942E+01  0.40897231747E+01  0.00000000000E+00 0. -1.
        -12    1    5    5    0    0 -0.10200948688E+02 -0.77224519300E+02  0.13631664534E+04  0.13653902246E+04  0.00000000000E+00 0.  1.
          5    1    4    4  501    0 -0.14761236511E+02  0.12808899035E+03  0.24204307364E+03  0.27427541897E+03  0.41800000000E+01 0.  1.
         -5    1    4    4    0  501 -0.18168760001E+02 -0.27425635059E+02  0.92409673985E+02  0.98179883603E+02  0.41800000000E+01 0.  1.
</event>
<event>
11    1  0.8453735E-009  0.1334451E+03  0.7561462E-02  0.1115107E+00
         22   -1    0    0    0    0  0.00000000000E+00  0.00000000000E+00  0.12873009392E+03  0.12873009392E+03  0.00000000000E+00 0.  1.
         22   -1    0    0    0    0 -0.00000000000E+00 -0.00000000000E+00 -0.69197880329E+03  0.69197880329E+03  0.00000000000E+00 0. -1.
         24    2    1    2    0    0 -0.10739853361E+02  0.48942104182E+02 -0.41869931291E+03  0.42905283541E+03  0.79161524283E+02 0.  0.
         25    2    1    2    0    0 -0.15859441438E+02 -0.37305137212E+02 -0.23461605568E+03  0.26895319944E+03  0.12509170540E+03 0.  0.
        -24    2    1    2    0    0  0.26599294799E+02 -0.11636966970E+02  0.90066659216E+02  0.12270286237E+03  0.78109204626E+02 0.  0.
        -11    1    3    3    0    0  0.31234117055E+02  0.39660106799E+02 -0.21153931095E+03  0.21747959494E+03  0.00000000000E+00 0.  1.
         12    1    3    3    0    0 -0.41973970416E+02  0.92819973827E+01 -0.20716000196E+03  0.21157324046E+03  0.00000000000E+00 0. -1.
         11    1    5    5    0    0  0.33744709964E+02 -0.90114284302E+01  0.27285751385E+01  0.35033646901E+02  0.00000000000E+00 0. -1.
        -12    1    5    5    0    0 -0.71454151649E+01 -0.26255385395E+01  0.87338084077E+02  0.87669215468E+02  0.00000000000E+00 0.  1.
          5    1    4    4  501    0  0.41068598089E+02  0.23579109333E+02 -0.96634253286E+02  0.10769519699E+03  0.41800000000E+01 0. -1.
         -5    1    4    4    0  501 -0.56928039527E+02 -0.60884246545E+02 -0.13798180240E+03  0.16125800245E+03  0.41800000000E+01 0. -1.
</event>
<event>
11    1  0.8453735E-009  0.2320661E+03  0.7561462E-02  0.1033912E+00
         22   -1    0    0    0    0  0.00000000000E+00  0.00000000000E+00  0.28893099790E+04  0.28893099790E+04  0.00000000000E+00 0.  1.
         22   -1    0    0    0    0 -0.00000000000E+00 -0.00000000000E+00 -0.48274790721E+03  0.48274790721E+03  0.00000000000E+00 0.  1.
         24    2    1    2    0    0 -0.16013839399E+03 -0.23261677374E+02 -0.73345798287E+02  0.19540442149E+03  0.81350297765E+02 0.  0.
         25    2    1    2    0    0  0.35215187515E+03 -0.19783863575E+01 -0.24294511696E+03  0.44574013395E+03  0.12508828872E+03 0.  0.
        -24    2    1    2    0    0 -0.19201348116E+03  0.25240063731E+02  0.27228529870E+04  0.27309133308E+04  0.80330526504E+02 0.  0.
        -11    1    3    3    0    0 -0.51399577316E+02  0.25244344778E+02 -0.45461218102E+02  0.73115770138E+02  0.00000000000E+00 0.  1.
         12    1    3    3    0    0 -0.10873881668E+03 -0.48506022152E+02 -0.27884580186E+02  0.12228865135E+03  0.00000000000E+00 0. -1.
         13    1    5    5    0    0  0.27048685734E+00  0.15468528508E+02  0.31270006289E+03  0.31308254162E+03  0.00000000000E+00 0. -1.
        -14    1    5    5    0    0 -0.19228396801E+03  0.97715352237E+01  0.24101529241E+04  0.24178307891E+04  0.00000000000E+00 0.  1.
          5    1    4    4  501    0  0.31950019453E+02  0.11969338035E+02  0.11761369457E+02  0.36330029006E+02  0.41800000000E+01 0.  1.
         -5    1    4    4    0  501  0.32020185570E+03 -0.13947724393E+02 -0.25470648641E+03  0.40941010494E+03  0.41800000000E+01 0.  1.
</event>
<event>
11    1  0.8453735E-009  0.2520525E+03  0.7561462E-02  0.1022811E+00
         22   -1    0    0    0    0  0.00000000000E+00  0.00000000000E+00  0.43871927148E+03  0.43871927148E+03  0.00000000000E+00 0.  1.
         22   -1    0    0    0    0 -0.00000000000E+00 -0.00000000000E+00 -0.39035897396E+03  0.39035897396E+03  0.00000000000E+00 0.  1.
        -24    2    1    2    0    0  0.24334251659E+03 -0.90558457194E+02 -0.21148667637E+03  0.34322460948E+03  0.75233660807E+02 0.  0.
         25    2    1    2    0    0 -0.12757085390E+03 -0.41471621342E+02  0.29824233968E+02  0.18583589198E+03  0.12510505855E+03 0.  0.
         24    2    1    2    0    0 -0.11577166270E+03  0.13203007854E+03  0.23002273993E+03  0.30001774398E+03  0.79152803467E+02 0.  0.
        -13    1    5    5    0    0 -0.70494397608E+02  0.40976470638E+02  0.14956757980E+03  0.17034961745E+03  0.00000000000E+00 0.  1.
         14    1    5    5    0    0 -0.45277265089E+02  0.91053607898E+02  0.80455160131E+02  0.12966812653E+03  0.00000000000E+00 0. -1.
         13    1    3    3    0    0  0.41528420017E+02 -0.30479176968E+02 -0.79437684599E+02  0.94678063099E+02  0.00000000000E+00 0. -1.
        -14    1    3    3    0    0  0.20181409658E+03 -0.60079280225E+02 -0.13204899177E+03  0.24854654638E+03  0.00000000000E+00 0.  1.
          5    1    4    4  501    0 -0.13501159209E+01 -0.45212463694E+02 -0.20500322864E+02  0.49836987508E+02  0.41800000000E+01 0. -1.
         -5    1    4    4    0  501 -0.12622073798E+03  0.37408423526E+01  0.50324556832E+02  0.13599890447E+03  0.41800000000E+01 0. -1.
</event>
<event>
11    1  0.8453735E-009  0.6068338E+03  0.7561462E-02  0.9182123E-01
         22   -1    0    0    0    0  0.00000000000E+00  0.00000000000E+00  0.80815801277E+03  0.80815801277E+03  0.00000000000E+00 0.  1.
         22   -1    0    0    0    0 -0.00000000000E+00 -0.00000000000E+00 -0.15667257162E+04  0.15667257162E+04  0.00000000000E+00 0. -1.
         24    2    1    2    0    0  0.53389377800E+03  0.25039953233E+03 -0.12946188022E+04  0.14251995973E+04  0.86102016317E+02 0.  0.
         25    2    1    2    0    0 -0.59082606692E+03 -0.21689681769E+03  0.33882902559E+03  0.72565022767E+03  0.12507387199E+03 0.  0.
        -24    2    1    2    0    0  0.56932288917E+02 -0.33502714631E+02  0.19722207317E+03  0.22403390399E+03  0.83252186657E+02 0.  0.
        -11    1    3    3    0    0  0.30083114873E+02  0.38829614688E+02 -0.12186616448E+03  0.13139290248E+03  0.00000000000E+00 0.  1.
         12    1    3    3    0    0  0.50381066313E+03  0.21156991764E+03 -0.11727526377E+04  0.12938066948E+04  0.00000000000E+00 0. -1.
         11    1    5    5    0    0 -0.11878328352E+02 -0.35116090805E+02  0.78232004553E+02  0.86570670867E+02  0.00000000000E+00 0. -1.
        -12    1    5    5    0    0  0.68810617269E+02  0.16133761744E+01  0.11899006861E+03  0.13746323312E+03  0.00000000000E+00 0.  1.
          5    1    4    4  501    0 -0.10480611929E+03 -0.75582917981E+02  0.30032843634E+02  0.13272733037E+03  0.41800000000E+01 0. -1.
         -5    1    4    4    0  501 -0.48601994763E+03 -0.14131389971E+03  0.30879618196E+03  0.59292289729E+03  0.41800000000E+01 0. -1.
</event>
<event>
11    1  0.8453735E-009  0.1511819E+03  0.7561462E-02  0.1095677E+00
         22   -1    0    0    0    0  0.00000000000E+00  0.00000000000E+00  0.68122887330E+03  0.68122887330E+03  0.00000000000E+00 0.  1.
         22   -1    0    0    0    0 -0.00000000000E+00 -0.00000000000E+00 -0.50398734771E+03  0.50398734771E+03  0.00000000000E+00 0. -1.
        -24    2    1    2    0    0  0.18457070457E+02  0.84131232119E+02 -0.44079279071E+03  0.45627888013E+03  0.80457469786E+02 0.  0.
         25    2    1    2    0    0  0.27081536780E+02 -0.74898790707E+02  0.54702940906E+02  0.15805818738E+03  0.12508693125E+03 0.  0.
         24    2    1    2    0    0 -0.45538607237E+02 -0.92324414119E+01  0.56333137540E+03  0.57087915351E+03  0.80011040993E+02 0.  0.
        -13    1    5    5    0    0  0.32987493201E+01 -0.35314359364E+02  0.27524650937E+03  0.27752229936E+03  0.00000000000E+00 0.  1.
         14    1    5    5    0    0 -0.48837356557E+02  0.26081917952E+02  0.28808486603E+03  0.29335685415E+03  0.00000000000E+00 0. -1.
         13    1    3    3    0    0  0.32673605304E+02  0.66936938152E+01 -0.20483447753E+03  0.20753200526E+03  0.00000000000E+00 0. -1.
        -14    1    3    3    0    0 -0.14216534847E+02  0.77437538304E+02 -0.23595831318E+03  0.24874687487E+03  0.00000000000E+00 0.  1.
          5    1    4    4  501    0 -0.29106046089E+02 -0.68506424917E+01  0.62457501444E+02  0.69372221444E+02  0.41800000000E+01 0. -1.
         -5    1    4    4    0  501  0.56187582869E+02 -0.68048148215E+02 -0.77545605384E+01  0.88685965932E+02  0.41800000000E+01 0. -1.
</event>
<event>
11    1  0.8453735E-009  0.1295550E+03  0.7561462E-02  0.1119817E+00
         22   -1    0    0    0    0  0.00000000000E+00  0.00000000000E+00  0.39840350466E+03  0.39840350466E+03  0.00000000000E+00 0.  1.
         22   -1    0    0    0    0 -0.00000000000E+00 -0.00000000000E+00 -0.10139678647E+04  0.10139678647E+04  0.00000000000E+00 0. -1.
        -24    2    1    2    0    0  0.10683942091E+02  0.75314482532E+01 -0.95962171660E+03  0.96310290656E+03  0.80761997930E+02 0.  0.
         25    2    1    2    0    0  0.22806610134E+02  0.32475137288E+01  0.40727943331E+02  0.13355564893E+03  0.12509059990E+03 0.  0.
         24    2    1    2    0    0 -0.33490552225E+02 -0.10778961982E+02  0.30332941319E+03  0.31571281391E+03  0.80175088716E+02 0.  0.
        -13    1    5    5    0    0 -0.19835310974E+02 -0.28140339366E+02  0.28482418072E+03  0.28689742449E+03  0.00000000000E+00 0.  1.
         14    1    5    5    0    0 -0.13655241250E+02  0.17361377384E+02  0.18505232479E+02  0.28815389419E+02  0.00000000000E+00 0. -1.
         13    1    3    3    0    0 -0.27803476655E+02  0.26869727343E+02 -0.47456787074E+03  0.47614039894E+03  0.00000000000E+00 0. -1.
        -14    1    3    3    0    0  0.38487418746E+02 -0.19338279090E+02 -0.48505384586E+03  0.48696250762E+03  0.00000000000E+00 0.  1.
          5    1    4    4  501    0  0.42957115653E+02 -0.36238932680E+02  0.62359358448E+02  0.84051983992E+02  0.41800000000E+01 0. -1.
         -5    1    4    4    0  501 -0.20150505519E+02  0.39486446409E+02 -0.21631415116E+02  0.49503664941E+02  0.41800000000E+01 0. -1.
</event>
<event>
11    1  0.8453735E-009  0.1477452E+03  0.7561462E-02  0.1099205E+00
         22   -1    0    0    0    0  0.00000000000E+00  0.00000000000E+00  0.13034744639E+04  0.13034744639E+04  0.00000000000E+00 0. -1.
         22   -1    0    0    0    0 -0.00000000000E+00 -0.00000000000E+00 -0.25871435841E+03  0.25871435841E+03  0.00000000000E+00 0.  1.
        -24    2    1    2    0    0  0.26277590090E+01  0.68992187853E+02 -0.18837795007E+03  0.21691177098E+03  0.82447784776E+02 0.  0.
         25    2    1    2    0    0 -0.53283419628E+02 -0.56689870907E+01  0.33342728756E+02  0.14010961162E+03  0.12509078897E+03 0.  0.
         24    2    1    2    0    0  0.50655660619E+02 -0.63323200762E+02  0.11997953268E+04  0.12051674397E+04  0.79648652447E+02 0.  0.
        -11    1    5    5    0    0  0.23611978483E+02  0.12457699805E+02  0.15533532142E+03  0.15761275929E+03  0.00000000000E+00 0.  1.
         12    1    5    5    0    0  0.27043682136E+02 -0.75780900567E+02  0.10444600053E+04  0.10475546804E+04  0.00000000000E+00 0. -1.
         11    1    3    3    0    0  0.23845882010E+02 -0.83877433611E+01 -0.28958072994E+02  0.38438916726E+02  0.00000000000E+00 0. -1.
        -12    1    3    3    0    0 -0.21218123001E+02  0.77379931214E+02 -0.15941987707E+03  0.17847285425E+03  0.00000000000E+00 0.  1.
          5    1    4    4  501    0  0.28180190266E+02 -0.34267564684E+02 -0.63137417031E+01  0.45008053136E+02  0.41800000000E+01 0. -1.
         -5    1    4    4    0  501 -0.81463609893E+02  0.28598577594E+02  0.39656470459E+02  0.95101558486E+02  0.41800000000E+01 0. -1.
</event>
<event>
11    1  0.8453735E-009  0.1434009E+03  0.7561462E-02  0.1103819E+00
         22   -1    0    0    0    0  0.00000000000E+00  0.00000000000E+00  0.89539436380E+02  0.89539436380E+02  0.00000000000E+00 0. -1.
         22   -1    0    0    0    0 -0.00000000000E+00 -0.00000000000E+00 -0.13039063275E+04  0.13039063275E+04  0.00000000000E+00 0.  1.
         24    2    1    2    0    0 -0.14583357085E+01  0.16695070243E+02 -0.10980946228E+04  0.11014857272E+04  0.84723990611E+02 0.  0.
         25    2    1    2    0    0  0.39976465149E+02 -0.70655808429E+02 -0.11360572950E+03  0.18746526711E+03  0.12508638443E+03 0.  0.
        -24    2    1    2    0    0 -0.38518129440E+02  0.53960738186E+02 -0.26665388190E+01  0.10449476952E+03  0.80725701402E+02 0.  0.
        -11    1    3    3    0    0 -0.33757405752E+01  0.47330913639E-01 -0.10583156976E+04  0.10583210825E+04  0.00000000000E+00 0.  1.
         12    1    3    3    0    0  0.19174048667E+01  0.16647739330E+02 -0.39778925189E+02  0.43164644738E+02  0.00000000000E+00 0. -1.
         11    1    5    5    0    0 -0.23091462052E+01  0.62042982861E+02  0.14280834495E+02  0.63707190429E+02  0.00000000000E+00 0. -1.
        -12    1    5    5    0    0 -0.36208983235E+02 -0.80822446756E+01 -0.16947373314E+02  0.40787579092E+02  0.00000000000E+00 0.  1.
          5    1    4    4  501    0  0.72408966007E+02 -0.54156789821E+02 -0.11997188619E+03  0.15028886226E+03  0.41800000000E+01 0. -1.
         -5    1    4    4    0  501 -0.32432500858E+02 -0.16499018608E+02  0.63661566952E+01  0.37176404856E+02  0.41800000000E+01 0. -1.
</event>
<event>
11    1  0.8453735E-009  0.2030326E+03  0.7561462E-02  0.1052400E+00
         22   -1    0    0    0    0  0.00000000000E+00  0.00000000000E+00  0.78095836814E+03  0.78095836814E+03  0.00000000000E+00 0.  1.
         22   -1    0    0    0    0 -0.00000000000E+00 -0.00000000000E+00 -0.21365239817E+03  0.21365239817E+03  0.00000000000E+00 0. -1.
        -24    2    1    2    0    0 -0.15778337231E+02  0.15059435781E+03 -0.70531063787E+02  0.18571519080E+03  0.81165784704E+02 0.  0.
         25    2    1    2    0    0 -0.10287238791E+03 -0.19308680858E+03  0.13840191116E+03  0.28752025531E+03  0.12509022487E+03 0.  0.
         24    2    1    2    0    0  0.11865072515E+03  0.42492450775E+02  0.49943512259E+03  0.52137532019E+03  0.80704274224E+02 0.  0.
        -13    1    5    5    0    0  0.60509378186E+02  0.46562276213E+01  0.36588579189E+03  0.37088472334E+03  0.00000000000E+00 0.  1.
         14    1    5    5    0    0  0.58141346959E+02  0.37836223154E+02  0.13354933071E+03  0.15049059685E+03  0.00000000000E+00 0. -1.
         13    1    3    3    0    0 -0.13887198822E+02  0.13598512901E+03 -0.88225298849E+02  0.16269146554E+03  0.00000000000E+00 0. -1.
        -14    1    3    3    0    0 -0.18911384099E+01  0.14609228799E+02  0.17694235061E+02  0.23023725263E+02  0.00000000000E+00 0.  1.
          5    1    4    4  501    0 -0.52581336856E+02 -0.18564833522E+03  0.77240150322E+02  0.20787884591E+03  0.41800000000E+01 0.  1.
         -5    1    4    4    0  501 -0.50291051057E+02 -0.74384733643E+01  0.61161760838E+02  0.79641409400E+02  0.41800000000E+01 0.  1.
</event>
<event>
11    1  0.8453735E-009  0.1379822E+03  0.7561462E-02  0.1109833E+00
         22   -1    0    0    0    0  0.00000000000E+00  0.00000000000E+00  0.37535705499E+03  0.37535705499E+03  0.00000000000E+00 0. -1.
         22   -1    0    0    0    0 -0.00000000000E+00 -0.00000000000E+00 -0.12022728991E+04  0.12022728991E+04  0.00000000000E+00 0. -1.
         24    2    1    2    0    0 -0.35890879398E+02  0.47690534851E+02 -0.10538813132E+04  0.10586350558E+04  0.80497309472E+02 0.  0.
         25    2    1    2    0    0  0.54964449911E+02 -0.47672526559E+01 -0.10680323757E+03  0.17349018704E+03  0.12509234985E+03 0.  0.
        -24    2    1    2    0    0 -0.19073570514E+02 -0.42923282195E+02  0.33376870658E+03  0.34550471127E+03  0.75932514580E+02 0.  0.
        -11    1    3    3    0    0 -0.26788405862E+02 -0.13721683211E+02 -0.17547725363E+03  0.17803979841E+03  0.00000000000E+00 0.  1.
         12    1    3    3    0    0 -0.91024735358E+01  0.61412218062E+02 -0.87840405954E+03  0.88059525740E+03  0.00000000000E+00 0. -1.
         11    1    5    5    0    0  0.26245797995E+02 -0.40068295595E+01  0.14816751244E+03  0.15052743384E+03  0.00000000000E+00 0. -1.
        -12    1    5    5    0    0 -0.45319368509E+02 -0.38916452636E+02  0.18560119414E+03  0.19497727743E+03  0.00000000000E+00 0.  1.
          5    1    4    4  501    0  0.22577461563E+02 -0.64572616509E+02 -0.51334342162E+02  0.85627400163E+02  0.41800000000E+01 0. -1.
         -5    1    4    4    0  501  0.32386988348E+02  0.59805363853E+02 -0.55468895409E+02  0.87862786877E+02  0.41800000000E+01 0. -1.
</event>
<event>
11    1  0.8453735E-009  0.1571461E+03  0.7561462E-02  0.1089793E+00
         22   -1    0    0    0    0  0.00000000000E+00  0.00000000000E+00  0.18515517161E+04  0.18515517161E+04  0.00000000000E+00 0. -1.
         22   -1    0    0    0    0 -0.00000000000E+00 -0.00000000000E+00 -0.17338977532E+03  0.17338977532E+03  0.00000000000E+00 0. -1.
         24    2    1    2    0    0  0.54446434435E+02 -0.78313169088E+02 -0.14327288293E+03  0.18518768502E+03  0.68337347219E+02 0.  0.
         25    2    1    2    0    0 -0.28126761994E+02  0.84285659721E+02  0.78834340259E+03  0.80313579482E+03  0.12508635949E+03 0.  0.
        -24    2    1    2    0    0 -0.26319672440E+02 -0.59724906331E+01  0.10330914211E+04  0.10366180115E+04  0.81059371735E+02 0.  0.
        -13    1    3    3    0    0  0.73594765351E+01  0.10464996826E+02 -0.39219503087E+01  0.13381320849E+02  0.00000000000E+00 0.  1.
         14    1    3    3    0    0  0.47086957900E+02 -0.88778165915E+02 -0.13935093262E+03  0.17180636417E+03  0.00000000000E+00 0. -1.
         13    1    5    5    0    0  0.20675540149E+02  0.15697348938E+01  0.68198489690E+03  0.68230003784E+03  0.00000000000E+00 0. -1.
        -14    1    5    5    0    0 -0.46995212589E+02 -0.75422255269E+01  0.35110652417E+03  0.35431797370E+03  0.00000000000E+00 0.  1.
          5    1    4    4  501    0 -0.76971139219E+02  0.63698516404E+02  0.53674698234E+03  0.54598246558E+03  0.41800000000E+01 0.  1.
         -5    1    4    4    0  501  0.48844377224E+02  0.20587143318E+02  0.25159642025E+03  0.25715332924E+03  0.41800000000E+01 0.  1.
</event>
<event>
11    1  0.8453735E-009  0.1364963E+03  0.7561462E-02  0.1111535E+00
         22   -1    0    0    0    0  0.00000000000E+00  0.00000000000E+00  0.12011831196E+04  0.12011831196E+04  0.00000000000E+00 0.  1.
         22   -1    0    0    0    0 -0.00000000000E+00 -0.00000000000E+00 -0.22012873368E+03  0.22012873368E+03  0.00000000000E+00 0.  1.
         24    2    1    2    0    0  0.20308686096E+02  0.49843511432E+02 -0.17854539183E+03  0.20322584148E+03  0.80780364826E+02 0.  0.
         25    2    1    2    0    0  0.11411120314E+02 -0.76917067563E+02  0.17292278489E+03  0.22714606495E+03  0.12508635552E+03 0.  0.
        -24    2    1    2    0    0 -0.31719806411E+02  0.27073556131E+02  0.98667699289E+03  0.99093994688E+03  0.81800773003E+02 0.  0.
        -11    1    3    3    0    0  0.33458247193E+02  0.53707165552E+02 -0.17864472126E+03  0.18952005269E+03  0.00000000000E+00 0.  1.
         12    1    3    3    0    0 -0.13149561097E+02 -0.38636541198E+01  0.99329432529E-01  0.13705788796E+02  0.00000000000E+00 0. -1.
         13    1    5    5    0    0  0.22174281461E+02  0.28151390294E+02  0.29570610962E+03  0.29786960705E+03  0.00000000000E+00 0. -1.
        -14    1    5    5    0    0 -0.53894087871E+02 -0.10778341629E+01  0.69097088327E+03  0.69307033984E+03  0.00000000000E+00 0.  1.
          5    1    4    4  501    0 -0.19318225808E+02 -0.27341334049E+02  0.16466929628E+03  0.16808983293E+03  0.41800000000E+01 0.  1.
         -5    1    4    4    0  501  0.30729346122E+02 -0.49575733513E+02  0.82534886162E+01  0.59056232023E+02  0.41800000000E+01 0.  1.
</event>
<event>
11    1  0.8453735E-009  0.1363804E+03  0.7561462E-02  0.1111669E+00
         22   -1    0    0    0    0  0.00000000000E+00  0.00000000000E+00  0.11709727730E+03  0.11709727730E+03  0.00000000000E+00 0. -1.
         22   -1    0    0    0    0 -0.00000000000E+00 -0.00000000000E+00 -0.69235480345E+03  0.69235480345E+03  0.00000000000E+00 0.  1.
        -24    2    1    2    0    0  0.98601474377E+01 -0.18312989356E+02 -0.55460747814E+03  0.56064537151E+03  0.79380033341E+02 0.  0.
         25    2    1    2    0    0  0.46676984798E+02  0.80248514606E+01 -0.55932640806E+02  0.14498408474E+03  0.12509510529E+03 0.  0.
         24    2    1    2    0    0 -0.56537132236E+02  0.10288137895E+02  0.35282592803E+02  0.10382262451E+03  0.78942909135E+02 0.  0.
        -11    1    5    5    0    0 -0.11324281860E+02 -0.32911135938E+01 -0.24771209083E+02  0.27435079511E+02  0.00000000000E+00 0.  1.
         12    1    5    5    0    0 -0.45212850376E+02  0.13579251489E+02  0.60053801886E+02  0.76387545000E+02  0.00000000000E+00 0. -1.
         11    1    3    3    0    0  0.84304370905E+00  0.25629058672E+02 -0.82052965287E+02  0.85966554447E+02  0.00000000000E+00 0. -1.
        -12    1    3    3    0    0  0.90171037287E+01 -0.43942048028E+02 -0.47255451286E+03  0.47467881706E+03  0.00000000000E+00 0.  1.
          5    1    4    4  501    0  0.69360218427E+02 -0.39722080010E+02 -0.40818442309E+02  0.89845985848E+02  0.41800000000E+01 0. -1.
         -5    1    4    4    0  501 -0.22683233629E+02  0.47746931471E+02 -0.15114198497E+02  0.55138098887E+02  0.41800000000E+01 0. -1.
</event>
<event>
11    1  0.8453735E-009  0.1339802E+03  0.7561462E-02  0.1114473E+00
         22   -1    0    0    0    0  0.00000000000E+00  0.00000000000E+00  0.15066229193E+03  0.15066229193E+03  0.00000000000E+00 0. -1.
         22   -1    0    0    0    0 -0.00000000000E+00 -0.00000000000E+00 -0.20156372910E+04  0.20156372910E+04  0.00000000000E+00 0. -1.
        -24    2    1    2    0    0 -0.61882327051E+01 -0.46262412618E+02 -0.17608661721E+04  0.17632618181E+04  0.79145801579E+02 0.  0.
         25    2    1    2    0    0 -0.23789066808E+02  0.76953899953E+02 -0.21561489798E+03  0.26196187890E+03  0.12508564805E+03 0.  0.
         24    2    1    2    0    0  0.29977299513E+02 -0.30691487335E+02  0.11150607100E+03  0.14107588599E+03  0.75021302680E+02 0.  0.
        -13    1    5    5    0    0  0.16084320359E+02  0.18632950897E+02  0.85243005091E+01  0.26049105929E+02  0.00000000000E+00 0.  1.
         14    1    5    5    0    0  0.13892979154E+02 -0.49324438232E+02  0.10298177049E+03  0.11502678006E+03  0.00000000000E+00 0. -1.
         13    1    3    3    0    0  0.11169270662E+02 -0.56378026214E+02 -0.16145750852E+04  0.16155977037E+04  0.00000000000E+00 0. -1.
        -14    1    3    3    0    0 -0.17357503367E+02  0.10115613595E+02 -0.14629108697E+03  0.14766411442E+03  0.00000000000E+00 0.  1.
          5    1    4    4  501    0  0.13570617897E+02 -0.17331411820E+02  0.13306022014E+01  0.22445097638E+02  0.41800000000E+01 0. -1.
         -5    1    4    4    0  501 -0.37359684705E+02  0.94285311773E+02 -0.21694550018E+03  0.23951678126E+03  0.41800000000E+01 0. -1.
</event>
<event>
11    1  0.8453735E-009  0.1849684E+03  0.7561462E-02  0.1065693E+00
         22   -1    0    0    0    0  0.00000000000E+00  0.00000000000E+00  0.90310792000E+03  0.90310792000E+03  0.00000000000E+00 0. -1.
         22   -1    0    0    0    0 -0.00000000000E+00 -0.00000000000E+00 -0.36937850593E+03  0.36937850593E+03  0.00000000000E+00 0.  1.
         24    2    1    2    0    0  0.29854090240E+02  0.13657361901E+03 -0.32584713581E+03  0.36230105573E+03  0.74445140560E+02 0.  0.
         25    2    1    2    0    0 -0.63649559039E+02 -0.65533652173E+02  0.27919694596E+03  0.31928727289E+03  0.12508997588E+03 0.  0.
        -24    2    1    2    0    0  0.33795468800E+02 -0.71039966835E+02  0.58037960392E+03  0.59089809731E+03  0.78302402005E+02 0.  0.
        -13    1    3    3    0    0  0.29660314553E+02  0.12236187556E+02 -0.46098052676E+02  0.56164837806E+02  0.00000000000E+00 0.  1.
         14    1    3    3    0    0  0.19377568715E+00  0.12433743145E+03 -0.27974908314E+03  0.30613621793E+03  0.00000000000E+00 0. -1.
         11    1    5    5    0    0  0.19037418870E+02 -0.34927574064E+02  0.49970895746E+03  0.50128973749E+03  0.00000000000E+00 0. -1.
        -12    1    5    5    0    0  0.14758049929E+02 -0.36112392771E+02  0.80670646454E+02  0.89608359814E+02  0.00000000000E+00 0.  1.
          5    1    4    4  501    0 -0.32644135477E+01 -0.20290046453E+02  0.22576196700E+03  0.22673394215E+03  0.41800000000E+01 0.  1.
         -5    1    4    4    0  501 -0.60385145492E+02 -0.45243605720E+02  0.53434978963E+02  0.92553330742E+02  0.41800000000E+01 0.  1.
</event>
<event>
11    1  0.8453735E-009  0.1447830E+03  0.7561462E-02  0.1102332E+00
         22   -1    0    0    0    0  0.00000000000E+00  0.00000000000E+00  0.10549683980E+04  0.10549683980E+04  0.00000000000E+00 0. -1.
         22   -1    0    0    0    0 -0.00000000000E+00 -0.00000000000E+00 -0.18191979594E+03  0.18191979594E+03  0.00000000000E+00 0.  1.
         24    2    1    2    0    0  0.45750424169E+01  0.10741002289E+02 -0.96296756491E+02  0.12650825888E+03  0.81209445945E+02 0.  0.
         25    2    1    2    0    0 -0.75258588365E+02 -0.27296701194E+02  0.14323067222E+02  0.14920447746E+03  0.12509140986E+03 0.  0.
        -24    2    1    2    0    0  0.70683545948E+02  0.16555698905E+02  0.95502229134E+03  0.96117545762E+03  0.80749170491E+02 0.  0.
        -13    1    3    3    0    0  0.60809770123E+01  0.16249152892E+02 -0.11015850376E+03  0.11151640777E+03  0.00000000000E+00 0.  1.
         14    1    3    3    0    0 -0.15059345954E+01 -0.55081506037E+01  0.13861747274E+02  0.14991851105E+02  0.00000000000E+00 0. -1.
         11    1    5    5    0    0  0.44837585071E+02  0.31824120050E+02  0.85448601638E+03  0.85625319610E+03  0.00000000000E+00 0. -1.
        -12    1    5    5    0    0  0.25845960877E+02 -0.15268421145E+02  0.10053627497E+03  0.10492226152E+03  0.00000000000E+00 0.  1.
          5    1    4    4  501    0 -0.17572208710E+02 -0.50699185553E+02  0.53211647848E+02  0.75684488513E+02  0.41800000000E+01 0.  1.
         -5    1    4    4    0  501 -0.57686379655E+02  0.23402484359E+02 -0.38888580626E+02  0.73519988948E+02  0.41800000000E+01 0.  1.
</event>
<event>
11    1  0.8453735E-009  0.2069848E+03  0.7561462E-02  0.1049691E+00
         22   -1    0    0    0    0  0.00000000000E+00  0.00000000000E+00  0.41672972599E+03  0.41672972599E+03  0.00000000000E+00 0.  1.
         22   -1    0    0    0    0 -0.00000000000E+00 -0.00000000000E+00 -0.55920665226E+03  0.55920665226E+03  0.00000000000E+00 0.  1.
        -24    2    1    2    0    0  0.63973390633E+02 -0.16312197366E+03 -0.41964343742E+03  0.46178536951E+03  0.80272909020E+02 0.  0.
         25    2    1    2    0    0 -0.19448257127E+03  0.44494417521E+02  0.11946456152E+03  0.26405376142E+03  0.12509749697E+03 0.  0.
         24    2    1    2    0    0  0.13050918063E+03  0.11862755614E+03  0.15770194963E+03  0.25009724732E+03  0.81077647313E+02 0.  0.
        -13    1    5    5    0    0  0.11246754366E+03  0.11629362336E+03  0.10140719089E+03  0.19093604578E+03  0.00000000000E+00 0.  1.
         14    1    5    5    0    0  0.18041636969E+02  0.23339327823E+01  0.56294758737E+02  0.59161201543E+02  0.00000000000E+00 0. -1.
         11    1    3    3    0    0  0.44530769550E+02 -0.69211743185E+02 -0.28385866674E+03  0.29554863815E+03  0.00000000000E+00 0. -1.
        -12    1    3    3    0    0  0.19442621083E+02 -0.93910230479E+02 -0.13578477068E+03  0.16623673136E+03  0.00000000000E+00 0.  1.
          5    1    4    4  501    0 -0.14407066534E+03  0.81108608174E+02  0.54969586632E+02  0.17428164214E+03  0.41800000000E+01 0. -1.
         -5    1    4    4    0  501 -0.50411905925E+02 -0.36614190653E+02  0.64494974884E+02  0.89772119288E+02  0.41800000000E+01 0. -1.
</event>
<event>
11    1  0.8453735E-009  0.1859122E+03  0.7561462E-02  0.1064958E+00
         22   -1    0    0    0    0  0.00000000000E+00  0.00000000000E+00  0.18343326029E+04  0.18343326029E+04  0.00000000000E+00 0.  1.
         22   -1    0    0    0    0 -0.00000000000E+00 -0.00000000000E+00 -0.32825408632E+02  0.32825408632E+02  0.00000000000E+00 0.  1.
        -24    2    1    2    0    0 -0.65483172235E+02 -0.12306755953E+03  0.32860001781E+03  0.36573497662E+03  0.79689593808E+02 0.  0.
         25    2    1    2    0    0  0.44804881732E+02  0.12710828210E+03  0.68914227064E+03  0.71325278123E+03  0.12509383653E+03 0.  0.
         24    2    1    2    0    0  0.20678290502E+02 -0.40407225758E+01  0.78376490584E+03  0.78817025371E+03  0.80504671126E+02 0.  0.
        -11    1    5    5    0    0 -0.65975445832E+01  0.25729999407E+02  0.57042656973E+03  0.57104468469E+03  0.00000000000E+00 0.  1.
         12    1    5    5    0    0  0.27275835086E+02 -0.29770721983E+02  0.21333833611E+03  0.21712556902E+03  0.00000000000E+00 0. -1.
         13    1    3    3    0    0 -0.21270809370E+01  0.61577909764E+01  0.65673615343E+02  0.65995959083E+02  0.00000000000E+00 0. -1.
        -14    1    3    3    0    0 -0.63356091298E+02 -0.12922535050E+03  0.26292640247E+03  0.29973901753E+03  0.00000000000E+00 0.  1.
          5    1    4    4  501    0 -0.22103896578E+02  0.10531284372E+03  0.49839273664E+03  0.50989427300E+03  0.41800000000E+01 0.  1.
         -5    1    4    4    0  501  0.66908778310E+02  0.21795438378E+02  0.19074953400E+03  0.20335850823E+03  0.41800000000E+01 0.  1.
</event>
<event>
11    1  0.8453735E-009  0.1342535E+03  0.7561462E-02  0.1114151E+00
         22   -1    0    0    0    0  0.00000000000E+00  0.00000000000E+00  0.14032127223E+04  0.14032127223E+04  0.00000000000E+00 0. -1.
         22   -1    0    0    0    0 -0.00000000000E+00 -0.00000000000E+00 -0.39771304470E+02  0.39771304470E+02  0.00000000000E+00 0. -1.
         24    2    1    2    0    0  0.29242409205E+02  0.36881661688E+02  0.63558659188E+02  0.11012858351E+03  0.76636977261E+02 0.  0.
         25    2    1    2    0    0 -0.40145255472E+02 -0.38211756253E+02  0.30070883623E+03  0.33036613939E+03  0.12507678446E+03 0.  0.
        -24    2    1    2    0    0  0.10902846267E+02  0.13300945654E+01  0.99917392243E+03  0.10024893039E+04  0.80719489267E+02 0.  0.
        -13    1    3    3    0    0  0.21060726268E+01  0.51149656861E+02  0.60597740902E+02  0.79327228247E+02  0.00000000000E+00 0.  1.
         14    1    3    3    0    0  0.27136336578E+02 -0.14267995173E+02  0.29609182855E+01  0.30801355266E+02  0.00000000000E+00 0. -1.
         13    1    5    5    0    0 -0.42056020346E+01 -0.12149133370E+02  0.93727217566E+03  0.93736034683E+03  0.00000000000E+00 0. -1.
        -14    1    5    5    0    0  0.15108448302E+02  0.13479227936E+02  0.61901746769E+02  0.65128957069E+02  0.00000000000E+00 0.  1.
          5    1    4    4  501    0  0.21006310526E+02 -0.31463493209E+02  0.20063327610E+02  0.43025875954E+02  0.41800000000E+01 0.  1.
         -5    1    4    4    0  501 -0.61151565997E+02 -0.67482630447E+01  0.28064550862E+03  0.28734026343E+03  0.41800000000E+01 0.  1.
</event>
<event>
11    1  0.8453735E-009  0.1292603E+03  0.7561462E-02  0.1120181E+00
         22   -1    0    0    0    0  0.00000000000E+00  0.00000000000E+00  0.12614941700E+04  0.12614941700E+04  0.00000000000E+00 0.  1.
         22   -1    0    0    0    0 -0.00000000000E+00 -0.00000000000E+00 -0.32262937149E+03  0.32262937149E+03  0.00000000000E+00 0.  1.
         24    2    1    2    0    0 -0.43100513276E+01  0.22162380488E+01 -0.28273778989E+03  0.29397040539E+03  0.80339611385E+02 0.  0.
         25    2    1    2    0    0 -0.75367216304E+01 -0.32535259191E+02  0.96938590845E+02  0.16173819976E+03  0.12508720800E+03 0.  0.
        -24    2    1    2    0    0  0.11846772958E+02  0.30319021142E+02  0.11246639976E+04  0.11284149363E+04  0.85974252354E+02 0.  0.
        -13    1    3    3    0    0 -0.33774490664E+02  0.67870046372E+01 -0.23620709012E+03  0.23870603066E+03  0.00000000000E+00 0.  1.
         14    1    3    3    0    0  0.29464439337E+02 -0.45707665884E+01 -0.46530699776E+02  0.55264374730E+02  0.00000000000E+00 0. -1.
         11    1    5    5    0    0 -0.36734374227E+01  0.12449955261E+02  0.22343852070E+02  0.25840728586E+02  0.00000000000E+00 0. -1.
        -12    1    5    5    0    0  0.15520210381E+02  0.17869065881E+02  0.11023201455E+04  0.11025742077E+04  0.00000000000E+00 0.  1.
          5    1    4    4  501    0 -0.50169648482E+02 -0.58557733953E+02  0.44186288756E+02  0.88971356900E+02  0.41800000000E+01 0. -1.
         -5    1    4    4    0  501  0.42632926852E+02  0.26022474762E+02  0.52752302088E+02  0.72766842863E+02  0.41800000000E+01 0. -1.
</event>
<event>
11    1  0.8453735E-009  0.3218309E+03  0.7561462E-02  0.9913530E-01
         22   -1    0    0    0    0  0.00000000000E+00  0.00000000000E+00  0.52237735370E+03  0.52237735370E+03  0.00000000000E+00 0.  1.
         22   -1    0    0    0    0 -0.00000000000E+00 -0.00000000000E+00 -0.18526143496E+04  0.18526143496E+04  0.00000000000E+00 0.  1.
         24    2    1    2    0    0  0.76460014928E+02  0.16033065274E+03 -0.33205406228E+03  0.38494931882E+03  0.79837495570E+02 0.  0.
         25    2    1    2    0    0 -0.62433541984E+02 -0.45127505951E+03 -0.14055291375E+04  0.14828036697E+04  0.12508972791E+03 0.  0.
        -24    2    1    2    0    0 -0.14026472944E+02  0.29094440677E+03  0.40734620383E+03  0.50723871482E+03  0.80714275443E+02 0.  0.
        -11    1    3    3    0    0  0.11613933386E+02  0.14977099957E+02 -0.26876324369E+01  0.19142109078E+02  0.00000000000E+00 0.  1.
         12    1    3    3    0    0  0.64846081542E+02  0.14535355278E+03 -0.32936642984E+03  0.36580720975E+03  0.00000000000E+00 0. -1.
         13    1    5    5    0    0 -0.15103096510E+02  0.46693674602E+02  0.29316046129E+02  0.57164965955E+02  0.00000000000E+00 0. -1.
        -14    1    5    5    0    0  0.10766235664E+01  0.24425073217E+03  0.37803015770E+03  0.45007374886E+03  0.00000000000E+00 0.  1.
          5    1    4    4  501    0  0.11013968071E+02 -0.82341674439E+02 -0.14314976474E+03  0.16556203184E+03  0.41800000000E+01 0.  1.
         -5    1    4    4    0  501 -0.73447510054E+02 -0.36893338507E+03 -0.12623793727E+04  0.13172416378E+04  0.41800000000E+01 0.  1.
</event>
<event>
11    1  0.8453735E-009  0.1370161E+03  0.7561462E-02  0.1110937E+00
         22   -1    0    0    0    0  0.00000000000E+00  0.00000000000E+00  0.20166504065E+04  0.20166504065E+04  0.00000000000E+00 0. -1.
         22   -1    0    0    0    0 -0.00000000000E+00 -0.00000000000E+00 -0.12948838969E+03  0.12948838969E+03  0.00000000000E+00 0.  1.
         24    2    1    2    0    0  0.11227086948E+02  0.25876995760E+01 -0.10710063866E+03  0.13584371396E+03  0.82766080910E+02 0.  0.
         25    2    1    2    0    0  0.26953999068E+02  0.41225330494E+02  0.73508170505E+03  0.74727452136E+03  0.12509217093E+03 0.  0.
        -24    2    1    2    0    0 -0.38181086016E+02 -0.43813030070E+02  0.12591809504E+04  0.12630205609E+04  0.79415957896E+02 0.  0.
        -11    1    3    3    0    0 -0.28083394750E+02  0.18297611833E+02 -0.76764119503E+02  0.83762818139E+02  0.00000000000E+00 0.  1.
         12    1    3    3    0    0  0.39310481698E+02 -0.15709912257E+02 -0.30336519159E+02  0.52080895818E+02  0.00000000000E+00 0. -1.
         11    1    5    5    0    0 -0.35781785418E+02  0.11798765172E+01  0.93929164788E+03  0.93997368476E+03  0.00000000000E+00 0. -1.
        -12    1    5    5    0    0 -0.23993005984E+01 -0.44992906587E+02  0.31988930257E+03  0.32304687614E+03  0.00000000000E+00 0.  1.
          5    1    4    4  501    0 -0.12473551594E+02 -0.23127094872E+02  0.49184710497E+03  0.49256623826E+03  0.41800000000E+01 0.  1.
         -5    1    4    4    0  501  0.39427550662E+02  0.64352425365E+02  0.24323460008E+03  0.25470828310E+03  0.41800000000E+01 0.  1.
</event>
<event>
11    1  0.8453735E-009  0.2748464E+03  0.7561462E-02  0.1011437E+00
         22   -1    0    0    0    0  0.00000000000E+00  0.00000000000E+00  0.15408948732E+03  0.15408948732E+03  0.00000000000E+00 0. -1.
         22   -1    0    0    0    0 -0.00000000000E+00 -0.00000000000E+00 -0.18225619868E+04  0.18225619868E+04  0.00000000000E+00 0.  1.
        -24    2    1    2    0    0 -0.12190575413E+03 -0.73521944412E+02 -0.32552369855E+03  0.36429075938E+03  0.80471049780E+02 0.  0.
         25    2    1    2    0    0  0.46887503227E+02  0.30289705421E+03 -0.13166165548E+04  0.13575980093E+04  0.12509252260E+03 0.  0.
         24    2    1    2    0    0  0.75018250904E+02 -0.22937510980E+03 -0.26332246166E+02  0.25476270543E+03  0.77265580460E+02 0.  0.
        -13    1    5    5    0    0  0.47170339782E+02 -0.46362177009E+02  0.75449825392E+01  0.66568905456E+02  0.00000000000E+00 0.  1.
         14    1    5    5    0    0  0.27847911123E+02 -0.18301293279E+03 -0.33877228705E+02  0.18819379997E+03  0.00000000000E+00 0. -1.
         13    1    3    3    0    0 -0.14166900010E+02  0.14630384417E+02 -0.74703268919E+02  0.77429500781E+02  0.00000000000E+00 0. -1.
        -14    1    3    3    0    0 -0.10773885412E+03 -0.88152328830E+02 -0.25082042963E+03  0.28686125860E+03  0.00000000000E+00 0.  1.
          5    1    4    4  501    0  0.88412301000E+02  0.16888826033E+03 -0.75194550197E+03  0.77574447454E+03  0.41800000000E+01 0. -1.
         -5    1    4    4    0  501 -0.41524797773E+02  0.13400879389E+03 -0.56467105280E+03  0.58185353478E+03  0.41800000000E+01 0. -1.
</event>
<event>
11    1  0.8453735E-009  0.1416724E+03  0.7561462E-02  0.1105705E+00
         22   -1    0    0    0    0  0.00000000000E+00  0.00000000000E+00  0.16056181015E+04  0.16056181015E+04  0.00000000000E+00 0. -1.
         22   -1    0    0    0    0 -0.00000000000E+00 -0.00000000000E+00 -0.40627129046E+02  0.40627129046E+02  0.00000000000E+00 0.  1.
        -24    2    1    2    0    0  0.60197391930E+02  0.18793534587E+02  0.62395175970E+02  0.12009254105E+03  0.80945274685E+02 0.  0.
         25    2    1    2    0    0 -0.89721443896E+02 -0.13192671846E+02  0.60586170612E+03  0.62525179535E+03  0.12508963411E+03 0.  0.
         24    2    1    2    0    0  0.29524051965E+02 -0.56008627410E+01  0.89673409040E+03  0.90090089418E+03  0.81162509489E+02 0.  0.
        -13    1    5    5    0    0 -0.13417779837E+02 -0.18596843781E+02  0.88509453077E+02  0.91431956658E+02  0.00000000000E+00 0.  1.
         14    1    5    5    0    0  0.42941831803E+02  0.12995981040E+02  0.80822463732E+03  0.80946893752E+03  0.00000000000E+00 0. -1.
         11    1    3    3    0    0 -0.95773353433E+01  0.30049955506E+02  0.24210313294E+02  0.39760086116E+02  0.00000000000E+00 0. -1.
        -12    1    3    3    0    0  0.69774727273E+02 -0.11256420918E+02  0.38184862676E+02  0.80332454933E+02  0.00000000000E+00 0.  1.
          5    1    4    4  501    0 -0.10624637290E+03  0.26850319326E+02  0.46833265450E+03  0.48100122565E+03  0.41800000000E+01 0. -1.
         -5    1    4    4    0  501  0.16524929001E+02 -0.40042991172E+02  0.13752905161E+03  0.14425056970E+03  0.41800000000E+01 0. -1.
</event>
<event>
11    1  0.8453735E-009  0.1458359E+03  0.7561462E-02  0.1101211E+00
         22   -1    0    0    0    0  0.00000000000E+00  0.00000000000E+00  0.12207531556E+04  0.12207531556E+04  0.00000000000E+00 0. -1.
         22   -1    0    0    0    0 -0.00000000000E+00 -0.00000000000E+00 -0.32315963218E+03  0.32315963218E+03  0.00000000000E+00 0. -1.
         24    2    1    2    0    0  0.30775116080E+02  0.73572016951E+02 -0.26538039066E+03  0.28841222725E+03  0.79968191378E+02 0.  0.
         25    2    1    2    0    0 -0.49989685344E+02 -0.12437088554E+02  0.59952327641E+02  0.14796760292E+03  0.12508589094E+03 0.  0.
        -24    2    1    2    0    0  0.19214569264E+02 -0.61134928396E+02  0.11030215864E+04  0.11075329576E+04  0.76589508915E+02 0.  0.
        -11    1    3    3    0    0 -0.10773443280E+02  0.83528770439E+01 -0.18338894517E+01  0.13755027646E+02  0.00000000000E+00 0.  1.
         12    1    3    3    0    0  0.41548559360E+02  0.65219139907E+02 -0.26354650121E+03  0.27465719961E+03  0.00000000000E+00 0. -1.
         13    1    5    5    0    0  0.14187411518E+02 -0.23603634950E+02  0.93037643612E+03  0.93078393148E+03  0.00000000000E+00 0. -1.
        -14    1    5    5    0    0  0.50271577463E+01 -0.37531293446E+02  0.17264515033E+03  0.17674902612E+03  0.00000000000E+00 0.  1.
          5    1    4    4  501    0 -0.89636482078E+02 -0.20503632113E+02  0.27900432645E+02  0.96182141747E+02  0.41800000000E+01 0. -1.
         -5    1    4    4    0  501  0.39646796735E+02  0.80665435586E+01  0.32051894996E+02  0.51785461175E+02  0.41800000000E+01 0. -1.
</event>
<event>
11    1  0.8453735E-009  0.1546094E+03  0.7561462E-02  0.1092260E+00
         22   -1    0    0    0    0  0.00000000000E+00  0.00000000000E+00  0.16749458377E+04  0.16749458377E+04  0.00000000000E+00 0.  1.
         22   -1    0    0    0    0 -0.00000000000E+00 -0.00000000000E+00 -0.18106558852E+03  0.18106558852E+03  0.00000000000E+00 0.  1.
        -24    2    1    2    0    0 -0.36222469827E+02  0.87661472016E+02 -0.88386047766E+02  0.15256129448E+03  0.80413022184E+02 0.  0.
         25    2    1    2    0    0 -0.77891364914E+01 -0.86049990451E+02  0.38411049760E+02  0.15680607001E+03  0.12508982110E+03 0.  0.
         24    2    1    2    0    0  0.44011606319E+02 -0.16114815654E+01  0.15438552472E+04  0.15466440617E+04  0.81726440585E+02 0.  0.
        -11    1    5    5    0    0  0.35638906214E+02 -0.27006089399E+02  0.13713438433E+04  0.13720726647E+04  0.00000000000E+00 0.  1.
         12    1    5    5    0    0  0.83727001046E+01  0.25394607834E+02  0.17251140382E+03  0.17457139703E+03  0.00000000000E+00 0. -1.
         13    1    3    3    0    0 -0.59165093475E+02  0.42352709352E+02 -0.60464713424E+02  0.94605717823E+02  0.00000000000E+00 0. -1.
        -14    1    3    3    0    0  0.22942623648E+02  0.45308762665E+02 -0.27921334342E+02  0.57955576655E+02  0.00000000000E+00 0.  1.
          5    1    4    4  501    0  0.32306853510E+02  0.63933956525E+00  0.50852759766E+02  0.60395505748E+02  0.41800000000E+01 0. -1.
         -5    1    4    4    0  501 -0.40095990001E+02 -0.86689330016E+02 -0.12441710006E+02  0.96410564259E+02  0.41800000000E+01 0. -1.
</event>
<event>
11    1  0.8453735E-009  0.1533035E+03  0.7561462E-02  0.1093550E+00
         22   -1    0    0    0    0  0.00000000000E+00  0.00000000000E+00  0.75045320775E+03  0.75045320775E+03  0.00000000000E+00 0.  1.
         22   -1    0    0    0    0 -0.00000000000E+00 -0.00000000000E+00 -0.34465769098E+03  0.34465769098E+03  0.00000000000E+00 0.  1.
         24    2    1    2    0    0 -0.65160352887E+02  0.16663371929E+02 -0.23282251120E+03  0.25566169150E+03  0.81443472589E+02 0.  0.
         25    2    1    2    0    0  0.10517952294E+03  0.61428030814E+02 -0.14756617226E+02  0.17521876871E+03  0.12509086353E+03 0.  0.
        -24    2    1    2    0    0 -0.40019170055E+02 -0.78091402743E+02  0.65337464520E+03  0.66423043852E+03  0.81264059167E+02 0.  0.
        -11    1    3    3    0    0 -0.50372322005E+02  0.20990594576E+02 -0.23393288761E+03  0.24021359618E+03  0.00000000000E+00 0.  1.
         12    1    3    3    0    0 -0.14788030882E+02 -0.43272226470E+01  0.11103764113E+01  0.15448095319E+02  0.00000000000E+00 0. -1.
         11    1    5    5    0    0  0.58029675756E-01  0.16204202642E+02  0.64214691954E+02  0.66227684645E+02  0.00000000000E+00 0. -1.
        -12    1    5    5    0    0 -0.40077199731E+02 -0.94295605385E+02  0.58915995325E+03  0.59800275388E+03  0.00000000000E+00 0.  1.
          5    1    4    4  501    0 -0.62830594915E+01  0.20219972052E+02 -0.47253242974E+02  0.51948681195E+02  0.41800000000E+01 0.  1.
         -5    1    4    4    0  501  0.11146258243E+03  0.41208058762E+02  0.32496625748E+02  0.12327008751E+03  0.41800000000E+01 0.  1.
</event>
<event>
11    1  0.8453735E-009  0.1338818E+03  0.7561462E-02  0.1114589E+00
         22   -1    0    0    0    0  0.00000000000E+00  0.00000000000E+00  0.17240903701E+04  0.17240903701E+04  0.00000000000E+00 0.  1.
         22   -1    0    0    0    0 -0.00000000000E+00 -0.00000000000E+00 -0.27230570118E+03  0.27230570118E+03  0.00000000000E+00 0.  1.
         24    2    1    2    0    0  0.84151212818E+01 -0.85066807367E+01 -0.24557093709E+03  0.25849531676E+03  0.79822088172E+02 0.  0.
         25    2    1    2    0    0 -0.50275634237E+02  0.29353688652E+02  0.23692321784E+03  0.27417578152E+03  0.12510183686E+03 0.  0.
        -24    2    1    2    0    0  0.41860512955E+02 -0.20847007915E+02  0.14604323882E+04  0.14637249730E+04  0.86262018912E+02 0.  0.
        -13    1    3    3    0    0 -0.47994721605E+01 -0.13646330880E+01 -0.24324382291E+03  0.24329499489E+03  0.00000000000E+00 0.  1.
         14    1    3    3    0    0  0.13214593442E+02 -0.71420476487E+01 -0.23271141813E+01  0.15200321867E+02  0.00000000000E+00 0. -1.
         13    1    5    5    0    0 -0.15596005201E+02 -0.17903317756E+01  0.61120230348E+02  0.63104066619E+02  0.00000000000E+00 0. -1.
        -14    1    5    5    0    0  0.57456518156E+02 -0.19056676140E+02  0.13993121578E+04  0.14006209064E+04  0.00000000000E+00 0.  1.
          5    1    4    4  501    0 -0.32598029143E+02  0.12664976268E+02  0.24553501576E+03  0.24804828056E+03  0.41800000000E+01 0.  1.
         -5    1    4    4    0  501 -0.17677605093E+02  0.16688712384E+02 -0.86117979175E+01  0.26127500957E+02  0.41800000000E+01 0.  1.
</event>
<event>
11    1  0.8453735E-009  0.1451378E+03  0.7561462E-02  0.1101953E+00
         22   -1    0    0    0    0  0.00000000000E+00  0.00000000000E+00  0.25282544378E+03  0.25282544378E+03  0.00000000000E+00 0. -1.
         22   -1    0    0    0    0 -0.00000000000E+00 -0.00000000000E+00 -0.42199786148E+03  0.42199786148E+03  0.00000000000E+00 0.  1.
        -24    2    1    2    0    0 -0.92280227724E+01  0.16804205340E+02 -0.34382880541E+03  0.35356627108E+03  0.80145635543E+02 0.  0.
         25    2    1    2    0    0  0.67773060340E+02 -0.53286047286E+02  0.55095497208E+02  0.16160558956E+03  0.12509301428E+03 0.  0.
         24    2    1    2    0    0 -0.58545037568E+02  0.36481841946E+02  0.11956089050E+03  0.15965144461E+03  0.80220514918E+02 0.  0.
        -13    1    5    5    0    0 -0.29081774316E+02 -0.23925380427E+02  0.53384670206E+02  0.65330669971E+02  0.00000000000E+00 0.  1.
         14    1    5    5    0    0 -0.29463263252E+02  0.60407222373E+02  0.66176220295E+02  0.94320774641E+02  0.00000000000E+00 0. -1.
         11    1    3    3    0    0  0.42110101759E+00 -0.30406003837E+02 -0.84651729291E+02  0.89947860827E+02  0.00000000000E+00 0. -1.
        -12    1    3    3    0    0 -0.96491237900E+01  0.47210209177E+02 -0.25917707612E+03  0.26361841025E+03  0.00000000000E+00 0.  1.
          5    1    4    4  501    0  0.25532324858E+02  0.38517398092E+02  0.35881043907E+02  0.58655019224E+02  0.41800000000E+01 0.  1.
         -5    1    4    4    0  501  0.42240735483E+02 -0.91803445378E+02  0.19214453301E+02  0.10295057034E+03  0.41800000000E+01 0.  1.
</event>
<event>
11    1  0.8453735E-009  0.1617810E+03  0.7561462E-02  0.1085414E+00
         22   -1    0    0    0    0  0.00000000000E+00  0.00000000000E+00  0.70712886011E+03  0.70712886011E+03  0.00000000000E+00 0. -1.
         22   -1    0    0    0    0 -0.00000000000E+00 -0.00000000000E+00 -0.51144795182E+03  0.51144795182E+03  0.00000000000E+00 0.  1.
         24    2    1    2    0    0  0.44309848913E+02 -0.94934988239E+02 -0.46278185123E+03  0.48201868639E+03  0.84846670525E+02 0.  0.
         25    2    1    2    0    0 -0.44127371855E+02  0.56240857253E+02  0.11011797601E+03  0.18133798974E+03  0.12508892402E+03 0.  0.
        -24    2    1    2    0    0 -0.18247705788E+00  0.38694130986E+02  0.54834478350E+03  0.55522013580E+03  0.78039275571E+02 0.  0.
        -13    1    3    3    0    0  0.51707614819E+02 -0.47122153489E+02 -0.37786096293E+03  0.38428255501E+03  0.00000000000E+00 0.  1.
         14    1    3    3    0    0 -0.73977659058E+01 -0.47812834751E+02 -0.84920888297E+02  0.97736131377E+02  0.00000000000E+00 0. -1.
         11    1    5    5    0    0  0.32794137771E+02  0.17473424339E+02  0.40195791879E+03  0.40367182774E+03  0.00000000000E+00 0. -1.
        -12    1    5    5    0    0 -0.32976614829E+02  0.21220706647E+02  0.14638686471E+03  0.15154830806E+03  0.00000000000E+00 0.  1.
          5    1    4    4  501    0  0.87915913853E+01 -0.31744637634E+02  0.37066840994E+01  0.33409968641E+02  0.41800000000E+01 0.  1.
         -5    1    4    4    0  501 -0.52918963241E+02  0.87985494887E+02  0.10641129191E+03  0.14792802110E+03  0.41800000000E+01 0.  1.
</event>
<event>
11    1  0.8875233E-009  0.1451111E+03  0.7561462E-02  0.1101982E+00
         22   -1    0    0    0    0  0.00000000000E+00  0.00000000000E+00  0.58566601944E+03  0.58566601944E+03  0.00000000000E+00 0. -1.
         22   -1    0    0    0    0 -0.00000000000E+00 -0.00000000000E+00 -0.64121952953E+03  0.64121952953E+03  0.00000000000E+00 0.  1.
        -24    2    1    2    0    0 -0.15963397158E+02  0.44436122291E+02 -0.45281733971E+03  0.46220392918E+03  0.79746661307E+02 0.  0.
         25    2    1    2    0    0  0.56622615842E+02 -0.10407444935E+03 -0.13656270070E+03  0.21985154625E+03  0.12509084513E+03 0.  0.
         24    2    1    2    0    0 -0.40659218684E+02  0.59638327063E+02  0.53382653032E+03  0.54483007354E+03  0.81603568844E+02 0.  0.
        -13    1    5    5    0    0 -0.17301792601E+02  0.75728292790E+01  0.18788346237E+02  0.26640227567E+02  0.00000000000E+00 0.  1.
         14    1    5    5    0    0 -0.23357426084E+02  0.52065497784E+02  0.51503818408E+03  0.51818984598E+03  0.00000000000E+00 0. -1.
         11    1    3    3    0    0 -0.44019127072E+01  0.12125786075E+02 -0.62756385463E+01  0.14345562470E+02  0.00000000000E+00 0. -1.
        -12    1    3    3    0    0 -0.11561484451E+02  0.32310336216E+02 -0.44654170117E+03  0.44785836671E+03  0.00000000000E+00 0.  1.
          5    1    4    4  501    0  0.95287383896E+02 -0.57573778771E+02 -0.94211914921E+02  0.14590333391E+03  0.41800000000E+01 0.  1.
         -5    1    4    4    0  501 -0.38664768054E+02 -0.46500670582E+02 -0.42350785776E+02  0.73948212345E+02  0.41800000000E+01 0.  1.
</event>
<event>
11    1  0.8453735E-009  0.1541319E+03  0.7561462E-02  0.1092730E+00
         22   -1    0    0    0    0  0.00000000000E+00  0.00000000000E+00  0.11722599395E+04  0.11722599395E+04  0.00000000000E+00 0.  1.
         22   -1    0    0    0    0 -0.00000000000E+00 -0.00000000000E+00 -0.82848718877E+02  0.82848718877E+02  0.00000000000E+00 0.  1.
        -24    2    1    2    0    0 -0.19159214316E+02  0.15680480867E+02 -0.93836198548E+01  0.84234023931E+02  0.79964776574E+02 0.  0.
         25    2    1    2    0    0  0.83436890477E+02  0.46906409379E+02  0.16039276002E+03  0.22480096434E+03  0.12509080769E+03 0.  0.
         24    2    1    2    0    0 -0.64277676161E+02 -0.62586890246E+02  0.93840208048E+03  0.94607367013E+03  0.80051147265E+02 0.  0.
        -13    1    5    5    0    0 -0.15482097299E+02  0.17699744794E+02  0.28247920916E+03  0.28345631041E+03  0.00000000000E+00 0.  1.
         14    1    5    5    0    0 -0.48795578863E+02 -0.80286635040E+02  0.65592287133E+03  0.66261735973E+03  0.00000000000E+00 0. -1.
         13    1    3    3    0    0  0.13049677080E+02 -0.11056750602E+02  0.24843484147E+02  0.30161971261E+02  0.00000000000E+00 0. -1.
        -14    1    3    3    0    0 -0.32208891396E+02  0.26737231469E+02 -0.34227104002E+02  0.54072052670E+02  0.00000000000E+00 0.  1.
          5    1    4    4  501    0 -0.31330468168E+02  0.16988637411E+02  0.20412769810E+02  0.41283963085E+02  0.41800000000E+01 0. -1.
         -5    1    4    4    0  501  0.11476735865E+03  0.29917771968E+02  0.13997999021E+03  0.18351700125E+03  0.41800000000E+01 0. -1.
</event>
<event>
11    1  0.8453735E-009  0.1882450E+03  0.7561462E-02  0.1063162E+00
         22   -1    0    0    0    0  0.00000000000E+00  0.00000000000E+00  0.19384452724E+03  0.19384452724E+03  0.00000000000E+00 0. -1.
         22   -1    0    0    0    0 -0.00000000000E+00 -0.00000000000E+00 -0.22060946950E+04  0.22060946950E+04  0.00000000000E+00 0. -1.
         24    2    1    2    0    0 -0.78729127718E+02  0.59361762980E+01 -0.20111849950E+04  0.20142859059E+04  0.79051329377E+02 0.  0.
         25    2    1    2    0    0  0.13034662540E+03  0.11582358848E+03 -0.58352309302E+02  0.22239031309E+03  0.12508842055E+03 0.  0.
        -24    2    1    2    0    0 -0.51617497677E+02 -0.12175976477E+03  0.57287136522E+02  0.16326300330E+03  0.76701928609E+02 0.  0.
        -13    1    3    3    0    0 -0.12949084886E+01  0.22599212898E+02 -0.89858947696E+03  0.89887454593E+03  0.00000000000E+00 0.  1.
         14    1    3    3    0    0 -0.77434219230E+02 -0.16663036600E+02 -0.11125955180E+04  0.11154113599E+04  0.00000000000E+00 0. -1.
         11    1    5    5    0    0 -0.45012529698E+02 -0.52514919778E+02  0.62883944400E+02  0.93479062321E+02  0.00000000000E+00 0. -1.
        -12    1    5    5    0    0 -0.66049679790E+01 -0.69244844996E+02 -0.55968078785E+01  0.69783940982E+02  0.00000000000E+00 0.  1.
          5    1    4    4  501    0  0.12170541790E+03  0.14025024710E+03 -0.39025067755E+02  0.18979665137E+03  0.41800000000E+01 0.  1.
         -5    1    4    4    0  501  0.86412074971E+01 -0.24426658626E+02 -0.19327241548E+02  0.32593661722E+02  0.41800000000E+01 0.  1.
</event>
<event>
11    1  0.8453735E-009  0.1430819E+03  0.7561462E-02  0.1104165E+00
         22   -1    0    0    0    0  0.00000000000E+00  0.00000000000E+00  0.25161439638E+03  0.25161439638E+03  0.00000000000E+00 0. -1.
         22   -1    0    0    0    0 -0.00000000000E+00 -0.00000000000E+00 -0.12406985122E+04  0.12406985122E+04  0.00000000000E+00 0.  1.
         24    2    1    2    0    0 -0.58148689152E+02  0.38103046503E+02 -0.99211013636E+03  0.99787658066E+03  0.81498683174E+02 0.  0.
         25    2    1    2    0    0  0.31732104169E+02 -0.74437408386E+02 -0.21296948095E+03  0.25990804916E+03  0.12509332516E+03 0.  0.
        -24    2    1    2    0    0  0.26416584983E+02  0.36334361882E+02  0.21599550148E+03  0.23452827877E+03  0.79570315259E+02 0.  0.
        -11    1    3    3    0    0 -0.40897951364E+02  0.45103015414E+02 -0.94858754714E+03  0.95053945684E+03  0.00000000000E+00 0.  1.
         12    1    3    3    0    0 -0.17250737787E+02 -0.69999689109E+01 -0.43522589224E+02  0.47337123822E+02  0.00000000000E+00 0. -1.
         13    1    5    5    0    0  0.23568049431E+02  0.21164611353E+02  0.21677171741E+03  0.21907389437E+03  0.00000000000E+00 0. -1.
        -14    1    5    5    0    0  0.28485355522E+01  0.15169750530E+02 -0.77621593400E+00  0.15454384397E+02  0.00000000000E+00 0.  1.
          5    1    4    4  501    0 -0.17144612089E+02  0.17276030913E+02 -0.11292430516E+03  0.11559312291E+03  0.41800000000E+01 0. -1.
         -5    1    4    4    0  501  0.48876716258E+02 -0.91713439298E+02 -0.10004517579E+03  0.14431492625E+03  0.41800000000E+01 0. -1.
</event>
<event>
11    1  0.8453735E-009  0.1444322E+03  0.7561462E-02  0.1102708E+00
         22   -1    0    0    0    0  0.00000000000E+00  0.00000000000E+00  0.33718704369E+04  0.33718704369E+04  0.00000000000E+00 0. -1.
         22   -1    0    0    0    0 -0.00000000000E+00 -0.00000000000E+00 -0.22632424908E+03  0.22632424908E+03  0.00000000000E+00 0. -1.
        -24    2    1    2    0    0 -0.49651488224E+02 -0.55605703437E+02 -0.20035252747E+03  0.22745981844E+03  0.77714665319E+02 0.  0.
         25    2    1    2    0    0  0.27503804708E+00  0.17424591539E+02  0.33417689928E+03  0.35724068989E+03  0.12507205309E+03 0.  0.
         24    2    1    2    0    0  0.49376450177E+02  0.38181111898E+02  0.30117218160E+04  0.30134941777E+04  0.82359156299E+02 0.  0.
        -13    1    5    5    0    0 -0.10852569649E+02  0.21801960982E+02  0.27935380212E+03  0.28041335655E+03  0.00000000000E+00 0.  1.
         14    1    5    5    0    0  0.60229019826E+02  0.16379150916E+02  0.27323680139E+04  0.27330808211E+04  0.00000000000E+00 0. -1.
         11    1    3    3    0    0  0.18936226689E+02 -0.15084756145E+02 -0.76139912940E+02  0.79896288348E+02  0.00000000000E+00 0. -1.
        -12    1    3    3    0    0 -0.68587714913E+02 -0.40520947291E+02 -0.12421261453E+03  0.14756353009E+03  0.00000000000E+00 0.  1.
          5    1    4    4  501    0  0.21197532117E+02  0.96676057686E+00 -0.35011977337E+00  0.21630186724E+02  0.41800000000E+01 0.  1.
         -5    1    4    4    0  501 -0.20922494070E+02  0.16457830962E+02  0.33452701905E+03  0.33561050316E+03  0.41800000000E+01 0.  1.
</event>
<event>
11    1  0.8453735E-009  0.2763505E+03  0.7561462E-02  0.1010729E+00
         22   -1    0    0    0    0  0.00000000000E+00  0.00000000000E+00  0.17301031148E+04  0.17301031148E+04  0.00000000000E+00 0.  1.
         22   -1    0    0    0    0 -0.00000000000E+00 -0.00000000000E+00 -0.52908013890E+03  0.52908013890E+03  0.00000000000E+00 0.  1.
        -24    2    1    2    0    0  0.71066907010E+02  0.14842189466E+02 -0.20903513500E+03  0.23598653035E+03  0.81994871682E+02 0.  0.
         25    2    1    2    0    0 -0.28524343767E+03 -0.13195243628E+03 -0.19985346155E+03  0.39289447538E+03  0.12509755600E+03 0.  0.
         24    2    1    2    0    0  0.21417653066E+03  0.11711024682E+03  0.16099115725E+04  0.16303022480E+04  0.80521751267E+02 0.  0.
        -13    1    5    5    0    0  0.16447603242E+03  0.11276571920E+03  0.10977588132E+04  0.11157252729E+04  0.00000000000E+00 0.  1.
         14    1    5    5    0    0  0.49700498244E+02  0.43445276181E+01  0.51215275930E+03  0.51457697510E+03  0.00000000000E+00 0. -1.
         13    1    3    3    0    0 -0.73740520350E+01 -0.80654861856E+01  0.64303200330E+00  0.10947246274E+02  0.00000000000E+00 0. -1.
        -14    1    3    3    0    0  0.78440959045E+02  0.22907675651E+02 -0.20967816700E+03  0.22503928408E+03  0.00000000000E+00 0.  1.
          5    1    4    4  501    0 -0.26983434038E+03 -0.12209215246E+03 -0.21723017942E+03  0.36731932728E+03  0.41800000000E+01 0. -1.
         -5    1    4    4    0  501 -0.15409097290E+02 -0.98602838235E+01  0.17376717874E+02  0.25575148102E+02  0.41800000000E+01 0. -1.
</event>
<event>
11    1  0.1498318E-008  0.1861460E+03  0.7561462E-02  0.1064777E+00
         22   -1    0    0    0    0  0.00000000000E+00  0.00000000000E+00  0.23306753925E+04  0.23306753925E+04  0.00000000000E+00 0.  1.
         22   -1    0    0    0    0 -0.00000000000E+00 -0.00000000000E+00 -0.22560498180E+03  0.22560498180E+03  0.00000000000E+00 0.  1.
         24    2    1    2    0    0  0.67833583851E+01  0.48487705496E+01 -0.11882647813E+03  0.13695469204E+03  0.67582033418E+02 0.  0.
         25    2    1    2    0    0  0.93237368142E+01  0.13222217051E+03 -0.69169686598E+01  0.18239596735E+03  0.12510319744E+03 0.  0.
        -24    2    1    2    0    0 -0.16107095199E+02 -0.13707094105E+03  0.22308138575E+04  0.22369297149E+04  0.90973629697E+02 0.  0.
        -11    1    3    3    0    0 -0.67659321971E+00 -0.94315005732E+01 -0.12039625587E+03  0.12076700464E+03  0.00000000000E+00 0.  1.
         12    1    3    3    0    0  0.74599516048E+01  0.14280271123E+02  0.15697777432E+01  0.16187687403E+02  0.00000000000E+00 0. -1.
         13    1    5    5    0    0 -0.45841998655E+01 -0.11827970609E+03  0.11878835131E+04  0.11937664530E+04  0.00000000000E+00 0. -1.
        -14    1    5    5    0    0 -0.11522895334E+02 -0.18791234962E+02  0.10429303445E+04  0.10431632619E+04  0.00000000000E+00 0.  1.
          5    1    4    4  501    0 -0.14098408026E+02  0.71275706661E+02  0.55844939660E+02  0.91733969469E+02  0.41800000000E+01 0. -1.
         -5    1    4    4    0  501  0.23422144841E+02  0.60946463844E+02 -0.62761908320E+02  0.90661997882E+02  0.41800000000E+01 0. -1.
</event>
<event>
11    1  0.8453735E-009  0.2159509E+03  0.7561462E-02  0.1043784E+00
         22   -1    0    0    0    0  0.00000000000E+00  0.00000000000E+00  0.34933486578E+03  0.34933486578E+03  0.00000000000E+00 0.  1.
         22   -1    0    0    0    0 -0.00000000000E+00 -0.00000000000E+00 -0.28731767693E+03  0.28731767693E+03  0.00000000000E+00 0. -1.
        -24    2    1    2    0    0  0.62181979689E+02 -0.13217792417E+03 -0.62402146844E+02  0.17725264814E+03  0.78656666016E+02 0.  0.
         25    2    1    2    0    0 -0.12770301657E+03  0.21896152117E+03  0.11751437088E+02  0.28290984022E+03  0.12509066004E+03 0.  0.
         24    2    1    2    0    0  0.65521036886E+02 -0.86783597001E+02  0.11266789861E+03  0.17649005434E+03  0.81426561524E+02 0.  0.
        -13    1    5    5    0    0  0.17052138383E+02 -0.21323385517E+02  0.86856981513E+02  0.91047226377E+02  0.00000000000E+00 0.  1.
         14    1    5    5    0    0  0.48468898502E+02 -0.65460211484E+02  0.25810917099E+02  0.85442827967E+02  0.00000000000E+00 0. -1.
         13    1    3    3    0    0  0.25439891765E+01 -0.84028546979E+02 -0.10582259418E+02  0.84730471513E+02  0.00000000000E+00 0. -1.
        -14    1    3    3    0    0  0.59637990512E+02 -0.48149377186E+02 -0.51819887426E+02  0.92522176631E+02  0.00000000000E+00 0.  1.
          5    1    4    4  501    0 -0.11793176798E+03  0.14382159580E+03  0.56977762370E+02  0.19456744620E+03  0.41800000000E+01 0. -1.
         -5    1    4    4    0  501 -0.97712485972E+01  0.75139925368E+02 -0.45226325282E+02  0.88342394024E+02  0.41800000000E+01 0. -1.
</event>
<event>
11    1  0.8453735E-009  0.1854819E+03  0.7561462E-02  0.1065293E+00
         22   -1    0    0    0    0  0.00000000000E+00  0.00000000000E+00  0.53102112994E+02  0.53102112994E+02  0.00000000000E+00 0. -1.
         22   -1    0    0    0    0 -0.00000000000E+00 -0.00000000000E+00 -0.13797457037E+04  0.13797457037E+04  0.00000000000E+00 0. -1.
        -24    2    1    2    0    0 -0.11513949421E+03 -0.71834097407E+02 -0.68739055922E+03  0.70531356018E+03  0.80896208826E+02 0.  0.
         25    2    1    2    0    0  0.11912802557E+03  0.71437619104E+02 -0.61133283483E+03  0.63927289498E+03  0.12508868621E+03 0.  0.
         24    2    1    2    0    0 -0.39885313606E+01  0.39647830228E+00 -0.27920196617E+02  0.88261361486E+02  0.83632918009E+02 0.  0.
        -13    1    5    5    0    0  0.36496237947E+02  0.50687090432E+01 -0.29911751767E+02  0.47459246616E+02  0.00000000000E+00 0.  1.
         14    1    5    5    0    0 -0.40484769307E+02 -0.46722307409E+01  0.19915551492E+01  0.40802114870E+02  0.00000000000E+00 0. -1.
         11    1    3    3    0    0 -0.34927727563E+02 -0.50260116726E+02 -0.44266108374E+03  0.44687230899E+03  0.00000000000E+00 0. -1.
        -12    1    3    3    0    0 -0.80211766643E+02 -0.21573980681E+02 -0.24472947548E+03  0.25844125119E+03  0.00000000000E+00 0.  1.
          5    1    4    4  501    0 -0.81382196062E+01 -0.21563031549E+02 -0.37886594839E+02  0.44542804317E+02  0.41800000000E+01 0.  1.
         -5    1    4    4    0  501  0.12726624517E+03  0.93000650654E+02 -0.57344623999E+03  0.59473009067E+03  0.41800000000E+01 0.  1.
</event>
<event>
11    1  0.8453735E-009  0.1467120E+03  0.7561462E-02  0.1100287E+00
         22   -1    0    0    0    0  0.00000000000E+00  0.00000000000E+00  0.80305979764E+03  0.80305979764E+03  0.00000000000E+00 0. -1.
         22   -1    0    0    0    0 -0.00000000000E+00 -0.00000000000E+00 -0.30914231775E+03  0.30914231775E+03  0.00000000000E+00 0.  1.
         24    2    1    2    0    0 -0.59977005301E+02 -0.31417301187E+02 -0.21720229791E+03  0.24115207461E+03  0.79957469270E+02 0.  0.
         25    2    1    2    0    0  0.32298944828E+02  0.10219220174E+03  0.16617564257E+02  0.16556838674E+03  0.12510107639E+03 0.  0.
        -24    2    1    2    0    0  0.27678060474E+02 -0.70774900550E+02  0.69450221355E+03  0.70548165404E+03  0.97958552370E+02 0.  0.
        -13    1    3    3    0    0 -0.63774836004E+02 -0.52912092253E+02 -0.17562495087E+03  0.19419331240E+03  0.00000000000E+00 0.  1.
         14    1    3    3    0    0  0.37978307030E+01  0.21494791067E+02 -0.41577347047E+02  0.46958762212E+02  0.00000000000E+00 0. -1.
         13    1    5    5    0    0  0.33438917062E+02 -0.83772129004E+02  0.67676807095E+03  0.68275248270E+03  0.00000000000E+00 0. -1.
        -14    1    5    5    0    0 -0.57608565883E+01  0.12997228455E+02  0.17734142594E+02  0.22729171337E+02  0.00000000000E+00 0.  1.
          5    1    4    4  501    0  0.56711731635E+02  0.55374077672E+01  0.30604450892E+02  0.64815030696E+02  0.41800000000E+01 0. -1.
         -5    1    4    4    0  501 -0.24412786807E+02  0.96654793969E+02 -0.13986886634E+02  0.10075335605E+03  0.41800000000E+01 0. -1.
</event>
<event>
11    1  0.8453735E-009  0.2331824E+03  0.7561462E-02  0.1033260E+00
         22   -1    0    0    0    0  0.00000000000E+00  0.00000000000E+00  0.16663869922E+04  0.16663869922E+04  0.00000000000E+00 0. -1.
         22   -1    0    0    0    0 -0.00000000000E+00 -0.00000000000E+00 -0.36174828967E+03  0.36174828967E+03  0.00000000000E+00 0. -1.
        -24    2    1    2    0    0  0.47984195625E+02  0.44133446033E+01 -0.28033442738E+03  0.29485651208E+03  0.77659583450E+02 0.  0.
         25    2    1    2    0    0 -0.13776855673E+03 -0.17634891860E+03  0.18167294504E+03  0.31421624364E+03  0.12509065709E+03 0.  0.
         24    2    1    2    0    0  0.89784361109E+02  0.17193557399E+03  0.14033001849E+04  0.14190625262E+04  0.82849086728E+02 0.  0.
        -13    1    5    5    0    0  0.24349346099E+02  0.18179942594E+02  0.86091784430E+02  0.91297296316E+02  0.00000000000E+00 0.  1.
         14    1    5    5    0    0  0.65435015010E+02  0.15375563140E+03  0.13172084004E+04  0.13277652298E+04  0.00000000000E+00 0. -1.
         13    1    3    3    0    0  0.59024892178E+02 -0.21723435319E+02 -0.20020670706E+03  0.20985368972E+03  0.00000000000E+00 0. -1.
        -14    1    3    3    0    0 -0.11040696553E+02  0.26136779922E+02 -0.80127720319E+02  0.85002822357E+02  0.00000000000E+00 0.  1.
          5    1    4    4  501    0  0.11001129537E+01  0.10997660112E+02  0.39113520139E+02  0.40859498702E+02  0.41800000000E+01 0. -1.
         -5    1    4    4    0  501 -0.13886866969E+03 -0.18734657871E+03  0.14255942490E+03  0.27335674494E+03  0.41800000000E+01 0. -1.
</event>
<event>
11    1  0.8453735E-009  0.2635883E+03  0.7561462E-02  0.1016900E+00
         22   -1    0    0    0    0  0.00000000000E+00  0.00000000000E+00  0.74608406130E+03  0.74608406130E+03  0.00000000000E+00 0. -1.
         22   -1    0    0    0    0 -0.00000000000E+00 -0.00000000000E+00 -0.13797418717E+03  0.13797418717E+03  0.00000000000E+00 0. -1.
         24    2    1    2    0    0 -0.37763203481E+02 -0.49682804256E+02  0.19575960543E+02  0.10325161079E+03  0.79895158318E+02 0.  0.
         25    2    1    2    0    0 -0.12612601430E+03 -0.15821995026E+03  0.26365749005E+03  0.35511143166E+03  0.12509009831E+03 0.  0.
        -24    2    1    2    0    0  0.16388921778E+03  0.20790275452E+03  0.32487642353E+03  0.42569520603E+03  0.74756182511E+02 0.  0.
        -13    1    3    3    0    0 -0.56274954069E+02 -0.32215639176E+02 -0.84515951099E+01  0.65392257362E+02  0.00000000000E+00 0.  1.
         14    1    3    3    0    0  0.18511750588E+02 -0.17467165080E+02  0.28027555652E+02  0.37859353423E+02  0.00000000000E+00 0. -1.
         11    1    5    5    0    0  0.92534562885E+02  0.12542681397E+03  0.24553284455E+03  0.29082797105E+03  0.00000000000E+00 0. -1.
        -12    1    5    5    0    0  0.71354654894E+02  0.82475940552E+02  0.79343578987E+02  0.13486723498E+03  0.00000000000E+00 0.  1.
          5    1    4    4  501    0 -0.37813859727E+02 -0.12405484884E+03  0.92128767374E+02  0.15913728566E+03  0.41800000000E+01 0. -1.
         -5    1    4    4    0  501 -0.88312154570E+02 -0.34165101423E+02  0.17152872267E+03  0.19597414601E+03  0.41800000000E+01 0. -1.
</event>
<event>
11    1  0.8453735E-009  0.1406652E+04  0.7561462E-02  0.8366362E-01
         22   -1    0    0    0    0  0.00000000000E+00  0.00000000000E+00  0.34740104695E+03  0.34740104695E+03  0.00000000000E+00 0.  1.
         22   -1    0    0    0    0 -0.00000000000E+00 -0.00000000000E+00 -0.14239090083E+04  0.14239090083E+04  0.00000000000E+00 0.  1.
        -24    2    1    2    0    0  0.16893442857E+02 -0.18672873610E+02 -0.86088880475E+02  0.12312713479E+03  0.84350052524E+02 0.  0.
         25    2    1    2    0    0 -0.63962984826E+03  0.14230506016E+03 -0.40161114792E+03  0.77866259085E+03  0.12508734279E+03 0.  0.
         24    2    1    2    0    0  0.62273640540E+03 -0.12363218655E+03 -0.58880793294E+03  0.86952032959E+03  0.79279716952E+02 0.  0.
        -13    1    5    5    0    0  0.37058823687E+03 -0.11060490836E+03 -0.37444829715E+03  0.53831274766E+03  0.00000000000E+00 0.  1.
         14    1    5    5    0    0  0.25214816853E+03 -0.13027278184E+02 -0.21435963579E+03  0.33120758193E+03  0.00000000000E+00 0. -1.
         13    1    3    3    0    0  0.14922482364E+01 -0.30294932730E+02  0.43598454369E+01  0.30643400695E+02  0.00000000000E+00 0. -1.
        -14    1    3    3    0    0  0.15401194621E+02  0.11622059119E+02 -0.90448725912E+02  0.92483734099E+02  0.00000000000E+00 0.  1.
          5    1    4    4  501    0 -0.36995421988E+03  0.68389351475E+02 -0.29969365771E+03  0.48101662037E+03  0.41800000000E+01 0.  1.
         -5    1    4    4    0  501 -0.26967562838E+03  0.73915708681E+02 -0.10191749021E+03  0.29764597048E+03  0.41800000000E+01 0.  1.
</event>
<event>
11    1  0.8453735E-009  0.8585027E+03  0.7561462E-02  0.8826633E-01
         22   -1    0    0    0    0  0.00000000000E+00  0.00000000000E+00  0.24522269906E+04  0.24522269906E+04  0.00000000000E+00 0. -1.
         22   -1    0    0    0    0 -0.00000000000E+00 -0.00000000000E+00 -0.52876036587E+03  0.52876036587E+03  0.00000000000E+00 0. -1.
         24    2    1    2    0    0  0.21254839219E+03  0.33978569903E+03  0.58130164625E+02  0.41300660506E+03  0.81019747564E+02 0.  0.
         25    2    1    2    0    0 -0.96085293504E+03 -0.98345013948E+02  0.10452209412E+04  0.14286507133E+04  0.12508373334E+03 0.  0.
        -24    2    1    2    0    0  0.74830454285E+03 -0.24144068508E+03  0.82011551895E+03  0.11393300381E+04  0.85030453110E+02 0.  0.
        -11    1    3    3    0    0  0.38725962044E+02  0.32202041786E+02  0.29916330583E+02  0.58580359055E+02  0.00000000000E+00 0.  1.
         12    1    3    3    0    0  0.17382243015E+03  0.30758365725E+03  0.28213834042E+02  0.35442624601E+03  0.00000000000E+00 0. -1.
         11    1    5    5    0    0  0.36605994781E+03 -0.16177512263E+03  0.40220183233E+03  0.56739526753E+03  0.00000000000E+00 0. -1.
        -12    1    5    5    0    0  0.38224459504E+03 -0.79665562454E+02  0.41791368662E+03  0.57193477053E+03  0.00000000000E+00 0.  1.
          5    1    4    4  501    0 -0.23331305148E+03  0.29084845575E+02  0.26340765800E+03  0.35310334879E+03  0.41800000000E+01 0. -1.
         -5    1    4    4    0  501 -0.72753988356E+03 -0.12742985952E+03  0.78181328315E+03  0.10755473645E+04  0.41800000000E+01 0. -1.
</event>
<event>
11    1  0.8453735E-009  0.6220206E+03  0.7561462E-02  0.9155833E-01
         22   -1    0    0    0    0  0.00000000000E+00  0.00000000000E+00  0.59165285259E+03  0.59165285259E+03  0.00000000000E+00 0. -1.
         22   -1    0    0    0    0 -0.00000000000E+00 -0.00000000000E+00 -0.99324005413E+03  0.99324005413E+03  0.00000000000E+00 0. -1.
         24    2    1    2    0    0  0.15876920419E+03  0.11537730834E+03 -0.23914006579E+03  0.31948337984E+03  0.79762619373E+02 0.  0.
         25    2    1    2    0    0 -0.64353336816E+03  0.18224958082E+03 -0.81936494968E+02  0.68535469087E+03  0.12508939778E+03 0.  0.
        -24    2    1    2    0    0  0.48476416397E+03 -0.29762688916E+03 -0.80510640786E+02  0.58005483601E+03  0.80022432356E+02 0.  0.
        -11    1    3    3    0    0  0.66159769849E+01 -0.70788214432E+01  0.12306725050E+01  0.97670578633E+01  0.00000000000E+00 0.  1.
         12    1    3    3    0    0  0.15215322721E+03  0.12245612978E+03 -0.24037073830E+03  0.30971632198E+03  0.00000000000E+00 0. -1.
         13    1    5    5    0    0  0.35523839612E+03 -0.25452337833E+03 -0.47278716888E+02  0.43955858001E+03  0.00000000000E+00 0. -1.
        -14    1    5    5    0    0  0.12952576785E+03 -0.43103510830E+02 -0.33231923898E+02  0.14049625600E+03  0.00000000000E+00 0.  1.
          5    1    4    4  501    0 -0.43511562657E+03  0.14475986703E+03 -0.11029602063E+03  0.47166059000E+03  0.41800000000E+01 0. -1.
         -5    1    4    4    0  501 -0.20841774159E+03  0.37489713787E+02  0.28359525663E+02  0.21369410087E+03  0.41800000000E+01 0. -1.
</event>
<event>
11    1  0.8453735E-009  0.1927029E+03  0.7561462E-02  0.1059807E+00
         22   -1    0    0    0    0  0.00000000000E+00  0.00000000000E+00  0.58272450411E+03  0.58272450411E+03  0.00000000000E+00 0.  1.
         22   -1    0    0    0    0 -0.00000000000E+00 -0.00000000000E+00 -0.27023608340E+03  0.27023608340E+03  0.00000000000E+00 0. -1.
        -24    2    1    2    0    0 -0.26318990208E+02  0.52221354576E+02 -0.15687538973E+03  0.18586922471E+03  0.80732407836E+02 0.  0.
         25    2    1    2    0    0  0.13005054670E+03  0.55250713463E+02  0.23620268905E+02  0.19018707921E+03  0.12508965568E+03 0.  0.
         24    2    1    2    0    0 -0.10373155649E+03 -0.10747206804E+03  0.44574354154E+03  0.47690428359E+03  0.80249047723E+02 0.  0.
        -13    1    5    5    0    0 -0.10918803261E+03 -0.86583998830E+02  0.31579072825E+03  0.34517039179E+03  0.00000000000E+00 0.  1.
         14    1    5    5    0    0  0.54564761186E+01 -0.20888069208E+02  0.12995281329E+03  0.13173389180E+03  0.00000000000E+00 0. -1.
         13    1    3    3    0    0 -0.52624264860E+02  0.40553375285E+02 -0.81254617609E+02  0.10495809822E+03  0.00000000000E+00 0. -1.
        -14    1    3    3    0    0  0.26305274651E+02  0.11667979291E+02 -0.75620772117E+02  0.80911126496E+02  0.00000000000E+00 0.  1.
          5    1    4    4  501    0  0.46592683632E+02  0.69409901307E+02 -0.31111545395E+02  0.89297330443E+02  0.41800000000E+01 0. -1.
         -5    1    4    4    0  501  0.83457863071E+02 -0.14159187844E+02  0.54731814299E+02  0.10088974876E+03  0.41800000000E+01 0. -1.
</event>
<event>
11    1  0.8453735E-009  0.1431620E+03  0.7561462E-02  0.1104078E+00
         22   -1    0    0    0    0  0.00000000000E+00  0.00000000000E+00  0.20140684026E+03  0.20140684026E+03  0.00000000000E+00 0. -1.
         22   -1    0    0    0    0 -0.00000000000E+00 -0.00000000000E+00 -0.95800763788E+03  0.95800763788E+03  0.00000000000E+00 0. -1.
         24    2    1    2    0    0  0.74864796908E+02 -0.74345908171E+01 -0.82502054635E+03  0.83237270394E+03  0.80779981563E+02 0.  0.
         25    2    1    2    0    0 -0.12486546553E+02  0.21566645014E+02 -0.77433971820E+02  0.14921567292E+03  0.12509301751E+03 0.  0.
        -24    2    1    2    0    0 -0.62378250355E+02 -0.14132054197E+02  0.14585372054E+03  0.17782610128E+03  0.79107859465E+02 0.  0.
        -11    1    3    3    0    0  0.28262960321E+02  0.33846851413E+02 -0.23714031512E+03  0.24120516855E+03  0.00000000000E+00 0.  1.
         12    1    3    3    0    0  0.46601836587E+02 -0.41281442230E+02 -0.58788023122E+03  0.59116753540E+03  0.00000000000E+00 0. -1.
         13    1    5    5    0    0 -0.30690811114E+02 -0.46910639639E+02  0.76919724210E+02  0.95179714071E+02  0.00000000000E+00 0. -1.
        -14    1    5    5    0    0 -0.31687439241E+02  0.32778585442E+02  0.68933996329E+02  0.82646387212E+02  0.00000000000E+00 0.  1.
          5    1    4    4  501    0 -0.10157824700E+02 -0.33125367862E+01  0.33507978881E+02  0.35417670043E+02  0.41800000000E+01 0. -1.
         -5    1    4    4    0  501 -0.23287218525E+01  0.24879181800E+02 -0.11094195070E+03  0.11379800287E+03  0.41800000000E+01 0. -1.
</event>
<event>
11    1  0.9799098E-009  0.1760136E+03  0.7561462E-02  0.1072914E+00
         22   -1    0    0    0    0  0.00000000000E+00  0.00000000000E+00  0.11479669144E+04  0.11479669144E+04  0.00000000000E+00 0. -1.
         22   -1    0    0    0    0 -0.00000000000E+00 -0.00000000000E+00 -0.46657165971E+03  0.46657165971E+03  0.00000000000E+00 0. -1.
         24    2    1    2    0    0 -0.57903049478E+01  0.25659408519E+02 -0.25941038234E+03  0.27329537487E+03  0.81882126148E+02 0.  0.
         25    2    1    2    0    0 -0.10480493285E+03 -0.80997264512E+02 -0.15274750417E+03  0.23774884283E+03  0.12509229165E+03 0.  0.
        -24    2    1    2    0    0  0.11059523779E+03  0.55337855993E+02  0.10935531411E+04  0.11034943564E+04  0.80918088717E+02 0.  0.
        -13    1    3    3    0    0 -0.51598812709E+01 -0.26634624783E+02 -0.44539744128E+02  0.52151859210E+02  0.00000000000E+00 0.  1.
         14    1    3    3    0    0 -0.63042367690E+00  0.52294033301E+02 -0.21487063821E+03  0.22114351566E+03  0.00000000000E+00 0. -1.
         11    1    5    5    0    0  0.82102491324E+02  0.18223071447E+02  0.91692169040E+03  0.92077048483E+03  0.00000000000E+00 0. -1.
        -12    1    5    5    0    0  0.28492746471E+02  0.37114784547E+02  0.17663145075E+03  0.18272387153E+03  0.00000000000E+00 0.  1.
          5    1    4    4  501    0 -0.12399217197E+03 -0.77030917444E+02 -0.15983279822E+03  0.21649899940E+03  0.41800000000E+01 0.  1.
         -5    1    4    4    0  501  0.19187239127E+02 -0.39663470684E+01  0.70852940493E+01  0.21249843438E+02  0.41800000000E+01 0.  1.
</event>
<event>
11    1  0.8453735E-009  0.1481271E+03  0.7561462E-02  0.1098808E+00
         22   -1    0    0    0    0  0.00000000000E+00  0.00000000000E+00  0.24094585781E+03  0.24094585781E+03  0.00000000000E+00 0.  1.
         22   -1    0    0    0    0 -0.00000000000E+00 -0.00000000000E+00 -0.57182944354E+03  0.57182944354E+03  0.00000000000E+00 0.  1.
         24    2    1    2    0    0 -0.37566338186E+01  0.79227963431E+02 -0.34248268015E+03  0.35993457206E+03  0.77248478779E+02 0.  0.
         25    2    1    2    0    0  0.13065204898E+02 -0.78718654829E+02 -0.18687924961E+03  0.23861858562E+03  0.12509056428E+03 0.  0.
        -24    2    1    2    0    0 -0.93085710791E+01 -0.50930860263E+00  0.19847834402E+03  0.21422214367E+03  0.80066003404E+02 0.  0.
        -13    1    3    3    0    0 -0.27747708048E+02  0.13573684034E+02 -0.18602480892E+03  0.18857202797E+03  0.00000000000E+00 0.  1.
         14    1    3    3    0    0  0.23991074230E+02  0.65654279397E+02 -0.15645787123E+03  0.17136254409E+03  0.00000000000E+00 0. -1.
         11    1    5    5    0    0  0.39196552824E+01  0.74678912448E+01 -0.52332367388E+01  0.99257173011E+01  0.00000000000E+00 0. -1.
        -12    1    5    5    0    0 -0.13228226361E+02 -0.79771998474E+01  0.20371158076E+03  0.20429642637E+03  0.00000000000E+00 0.  1.
          5    1    4    4  501    0  0.38122111087E+02 -0.85990131640E+02 -0.66243338329E+02  0.11512276216E+03  0.41800000000E+01 0. -1.
         -5    1    4    4    0  501 -0.25056906190E+02  0.72714768118E+01 -0.12063591128E+03  0.12349582347E+03  0.41800000000E+01 0. -1.
</event>
<event>
11    1  0.8453735E-009  0.2249282E+03  0.7561462E-02  0.1038173E+00
         22   -1    0    0    0    0  0.00000000000E+00  0.00000000000E+00  0.19096007285E+04  0.19096007285E+04  0.00000000000E+00 0.  1.
         22   -1    0    0    0    0 -0.00000000000E+00 -0.00000000000E+00 -0.12348349837E+04  0.12348349837E+04  0.00000000000E+00 0. -1.
         24    2    1    2    0    0  0.60771273361E+02  0.17577977318E+03 -0.11707370124E+04  0.11881282277E+04  0.80198858590E+02 0.  0.
         25    2    1    2    0    0 -0.65306218005E+02 -0.20906910455E+03  0.23930438300E+03  0.34769073176E+03  0.12508982630E+03 0.  0.
        -24    2    1    2    0    0  0.45349446439E+01  0.33289331368E+02  0.16061983742E+04  0.16086167527E+04  0.81522355328E+02 0.  0.
        -13    1    3    3    0    0  0.61301615299E+02  0.70067690539E+02 -0.43631001006E+03  0.44613203670E+03  0.00000000000E+00 0.  1.
         14    1    3    3    0    0 -0.53034193781E+00  0.10571208264E+03 -0.73442700239E+03  0.74199619104E+03  0.00000000000E+00 0. -1.
         13    1    5    5    0    0 -0.15444542675E+02 -0.23251999145E+02  0.45114471054E+03  0.45200745482E+03  0.00000000000E+00 0. -1.
        -14    1    5    5    0    0  0.19979487319E+02  0.56541330514E+02  0.11550536636E+04  0.11566092978E+04  0.00000000000E+00 0.  1.
          5    1    4    4  501    0 -0.10061304635E+03 -0.12930729530E+03  0.14098253533E+03  0.21618720911E+03  0.41800000000E+01 0.  1.
         -5    1    4    4    0  501  0.35306828341E+02 -0.79761809246E+02  0.98321847668E+02  0.13150352265E+03  0.41800000000E+01 0.  1.
</event>
<event>
11    1  0.8453735E-009  0.1662304E+03  0.7561462E-02  0.1081359E+00
         22   -1    0    0    0    0  0.00000000000E+00  0.00000000000E+00  0.34205650451E+03  0.34205650451E+03  0.00000000000E+00 0.  1.
         22   -1    0    0    0    0 -0.00000000000E+00 -0.00000000000E+00 -0.12133349283E+04  0.12133349283E+04  0.00000000000E+00 0. -1.
        -24    2    1    2    0    0 -0.10427037125E+03 -0.36279186837E+02 -0.11399029334E+04  0.11480029489E+04  0.79646615062E+02 0.  0.
         25    2    1    2    0    0  0.83572171623E+02  0.28539031800E+02  0.29251024379E+02  0.15589120603E+03  0.12509061310E+03 0.  0.
         24    2    1    2    0    0  0.20698199623E+02  0.77401550367E+01  0.23937348521E+03  0.25149727794E+03  0.73911365314E+02 0.  0.
        -11    1    5    5    0    0 -0.18303354814E+02 -0.31177024469E+01  0.17123781803E+03  0.17224146768E+03  0.00000000000E+00 0.  1.
         12    1    5    5    0    0  0.39001554437E+02  0.10857857484E+02  0.68135667183E+02  0.79255810261E+02  0.00000000000E+00 0. -1.
         11    1    3    3    0    0 -0.68540394079E+02 -0.54264891002E+02 -0.94515024566E+03  0.94918462423E+03  0.00000000000E+00 0. -1.
        -12    1    3    3    0    0 -0.35729977166E+02  0.17985704165E+02 -0.19475268776E+03  0.19881832464E+03  0.00000000000E+00 0.  1.
          5    1    4    4  501    0 -0.14758037005E+02 -0.31091935168E+02  0.20972037166E+02  0.40519215586E+02  0.41800000000E+01 0. -1.
         -5    1    4    4    0  501  0.98330208627E+02  0.59630966969E+02  0.82789872127E+01  0.11537199045E+03  0.41800000000E+01 0. -1.
</event>
<event>
11    1  0.8453735E-009  0.1417404E+03  0.7561462E-02  0.1105630E+00
         22   -1    0    0    0    0  0.00000000000E+00  0.00000000000E+00  0.64874580246E+03  0.64874580246E+03  0.00000000000E+00 0.  1.
         22   -1    0    0    0    0 -0.00000000000E+00 -0.00000000000E+00 -0.92646870204E+03  0.92646870204E+03  0.00000000000E+00 0.  1.
         24    2    1    2    0    0 -0.72969059472E+01  0.82352544867E+02 -0.89600998264E+03  0.90371425286E+03  0.83847333628E+02 0.  0.
         25    2    1    2    0    0  0.31295544237E+02  0.81680877739E+01  0.22697383929E+03  0.26117560177E+03  0.12509773176E+03 0.  0.
        -24    2    1    2    0    0 -0.23998638290E+02 -0.90520632641E+02  0.39131324377E+03  0.41032464987E+03  0.80438448305E+02 0.  0.
        -13    1    3    3    0    0  0.53906518357E+01  0.34360971297E+02 -0.71995923943E+03  0.72079889145E+03  0.00000000000E+00 0.  1.
         14    1    3    3    0    0 -0.12687557783E+02  0.47991573569E+02 -0.17605074321E+03  0.18291536141E+03  0.00000000000E+00 0. -1.
         11    1    5    5    0    0 -0.34284626896E+02 -0.25153470884E+02  0.67184321367E+02  0.79510161467E+02  0.00000000000E+00 0. -1.
        -12    1    5    5    0    0  0.10285988606E+02 -0.65367161756E+02  0.32412892240E+03  0.33081448840E+03  0.00000000000E+00 0.  1.
          5    1    4    4  501    0 -0.17929777846E+02 -0.48655474896E+02  0.71437840042E+02  0.88372334815E+02  0.41800000000E+01 0.  1.
         -5    1    4    4    0  501  0.49225322083E+02  0.56823562669E+02  0.15553599925E+03  0.17280326695E+03  0.41800000000E+01 0.  1.
</event>
<event>
11    1  0.8453735E-009  0.1874896E+03  0.7561462E-02  0.1063741E+00
         22   -1    0    0    0    0  0.00000000000E+00  0.00000000000E+00  0.23613759251E+03  0.23613759251E+03  0.00000000000E+00 0.  1.
         22   -1    0    0    0    0 -0.00000000000E+00 -0.00000000000E+00 -0.13980408852E+04  0.13980408852E+04  0.00000000000E+00 0.  1.
        -24    2    1    2    0    0 -0.13952364084E+02  0.29714311762E+02 -0.12003853757E+04  0.12037053078E+04  0.83089161994E+02 0.  0.
         25    2    1    2    0    0 -0.32826569700E+02  0.10840407768E+03 -0.11414518574E+03  0.20372970949E+03  0.12509054068E+03 0.  0.
         24    2    1    2    0    0  0.46778933784E+02 -0.13811838944E+03  0.15262726882E+03  0.22674346044E+03  0.82780163781E+02 0.  0.
        -13    1    5    5    0    0  0.69264015327E+02 -0.82910067541E+02  0.10059952477E+03  0.14762062018E+03  0.00000000000E+00 0.  1.
         14    1    5    5    0    0 -0.22485081544E+02 -0.55208321900E+02  0.52027744049E+02  0.79122840254E+02  0.00000000000E+00 0. -1.
         13    1    3    3    0    0 -0.10919342901E+02  0.36275504150E+01 -0.20349291665E+02  0.23377015264E+02  0.00000000000E+00 0. -1.
        -14    1    3    3    0    0 -0.30330211829E+01  0.26086761347E+02 -0.11800360841E+04  0.11803282925E+04  0.00000000000E+00 0.  1.
          5    1    4    4  501    0  0.31651188197E+02  0.10067871708E+02 -0.70836609087E+02  0.78348307844E+02  0.41800000000E+01 0. -1.
         -5    1    4    4    0  501 -0.64477757897E+02  0.98336205970E+02 -0.43308576653E+02  0.12538140165E+03  0.41800000000E+01 0. -1.
</event>
<event>
11    1  0.8453735E-009  0.1490184E+03  0.7561462E-02  0.1097886E+00
         22   -1    0    0    0    0  0.00000000000E+00  0.00000000000E+00  0.93153634035E+03  0.93153634035E+03  0.00000000000E+00 0.  1.
         22   -1    0    0    0    0 -0.00000000000E+00 -0.00000000000E+00 -0.14171250705E+03  0.14171250705E+03  0.00000000000E+00 0. -1.
        -24    2    1    2    0    0 -0.74932763411E+02  0.45465416180E+02 -0.86615005532E+02  0.14773888834E+03  0.81502127851E+02 0.  0.
         25    2    1    2    0    0  0.25935450338E+02 -0.28973644479E+02  0.17916674518E+03  0.22194566680E+03  0.12508811604E+03 0.  0.
         24    2    1    2    0    0  0.48997313073E+02 -0.16491771700E+02  0.69727209366E+03  0.70356429226E+03  0.78368523760E+02 0.  0.
        -11    1    5    5    0    0  0.66178790542E+02  0.49805650266E+01  0.48657381489E+03  0.49107893019E+03  0.00000000000E+00 0.  1.
         12    1    5    5    0    0 -0.17181477469E+02 -0.21472336727E+02  0.21069827877E+03  0.21248536206E+03  0.00000000000E+00 0. -1.
         13    1    3    3    0    0 -0.42196833982E+02  0.64502333500E+02 -0.76376696415E+02  0.10851047682E+03  0.00000000000E+00 0. -1.
        -14    1    3    3    0    0 -0.32735929429E+02 -0.19036917321E+02 -0.10238309117E+02  0.39228411518E+02  0.00000000000E+00 0.  1.
          5    1    4    4  501    0  0.65826370067E+01 -0.58158146750E+02  0.24975345389E+02  0.63772575772E+02  0.41800000000E+01 0. -1.
         -5    1    4    4    0  501  0.19352813331E+02  0.29184502270E+02  0.15419139979E+03  0.15817309103E+03  0.41800000000E+01 0. -1.
</event>
<event>
11    1  0.8453735E-009  0.1463132E+03  0.7561462E-02  0.1100707E+00
         22   -1    0    0    0    0  0.00000000000E+00  0.00000000000E+00  0.74171884133E+03  0.74171884133E+03  0.00000000000E+00 0.  1.
         22   -1    0    0    0    0 -0.00000000000E+00 -0.00000000000E+00 -0.25374469616E+03  0.25374469616E+03  0.00000000000E+00 0.  1.
        -24    2    1    2    0    0 -0.45623964000E+02  0.69003736186E+02 -0.14786284620E+03  0.18723885344E+03  0.79698840961E+02 0.  0.
         25    2    1    2    0    0 -0.21055819891E+01 -0.64742348819E+02 -0.23007365463E+02  0.14273268394E+03  0.12508906824E+03 0.  0.
         24    2    1    2    0    0  0.47729545989E+02 -0.42613873671E+01  0.65884435684E+03  0.66549200011E+03  0.80668746697E+02 0.  0.
        -11    1    5    5    0    0  0.69841982398E+02 -0.10801839003E+02  0.50940427547E+03  0.51428328584E+03  0.00000000000E+00 0.  1.
         12    1    5    5    0    0 -0.22112436408E+02  0.65404516363E+01  0.14944008137E+03  0.15120871427E+03  0.00000000000E+00 0. -1.
         13    1    3    3    0    0 -0.22653889463E+01 -0.26830023353E+01  0.88588510138E+01  0.95294139324E+01  0.00000000000E+00 0. -1.
        -14    1    3    3    0    0 -0.43358575054E+02  0.71686738521E+02 -0.15672169722E+03  0.17770943951E+03  0.00000000000E+00 0.  1.
          5    1    4    4  501    0 -0.41580137810E+02 -0.91832725806E+01  0.33308075747E+02  0.54223063963E+02  0.41800000000E+01 0. -1.
         -5    1    4    4    0  501  0.39474555821E+02 -0.55559076238E+02 -0.56315441210E+02  0.88509619976E+02  0.41800000000E+01 0. -1.
</event>
<event>
11    1  0.8453735E-009  0.1799620E+03  0.7561462E-02  0.1069674E+00
         22   -1    0    0    0    0  0.00000000000E+00  0.00000000000E+00  0.10502956050E+04  0.10502956050E+04  0.00000000000E+00 0.  1.
         22   -1    0    0    0    0 -0.00000000000E+00 -0.00000000000E+00 -0.20684667486E+03  0.20684667486E+03  0.00000000000E+00 0. -1.
        -24    2    1    2    0    0 -0.44851603460E+02  0.20720898317E+02 -0.12062840088E+03  0.15341652973E+03  0.80897456912E+02 0.  0.
         25    2    1    2    0    0 -0.59652453635E+02 -0.10044500554E+03  0.52125212633E+02  0.17891911180E+03  0.12508955357E+03 0.  0.
         24    2    1    2    0    0  0.10450405710E+03  0.79724107226E+02  0.91195211836E+03  0.92480663829E+03  0.79584048818E+02 0.  0.
        -13    1    5    5    0    0  0.14210277258E+02 -0.15756691221E+02  0.16833183080E+03  0.16966381629E+03  0.00000000000E+00 0.  1.
         14    1    5    5    0    0  0.90293779837E+02  0.95480798447E+02  0.74362028756E+03  0.75514282200E+03  0.00000000000E+00 0. -1.
         11    1    3    3    0    0 -0.21356523901E+02  0.46359872776E+02 -0.37590906038E+02  0.63390970443E+02  0.00000000000E+00 0. -1.
        -12    1    3    3    0    0 -0.23495079560E+02 -0.25638974459E+02 -0.83037494845E+02  0.90025559287E+02  0.00000000000E+00 0.  1.
          5    1    4    4  501    0  0.19405063846E+02 -0.58044264581E+02 -0.19150973978E+02  0.64264495313E+02  0.41800000000E+01 0. -1.
         -5    1    4    4    0  501 -0.79057517481E+02 -0.42400740962E+02  0.71276186611E+02  0.11465461649E+03  0.41800000000E+01 0. -1.
</event>
<event>
11    1  0.8453735E-009  0.1638600E+03  0.7561462E-02  0.1083502E+00
         22   -1    0    0    0    0  0.00000000000E+00  0.00000000000E+00  0.31568401503E+03  0.31568401503E+03  0.00000000000E+00 0.  1.
         22   -1    0    0    0    0 -0.00000000000E+00 -0.00000000000E+00 -0.31651686697E+03  0.31651686697E+03  0.00000000000E+00 0.  1.
        -24    2    1    2    0    0  0.40699571877E+02  0.11650871318E+02 -0.17639194133E+03  0.19884631202E+03  0.81446552323E+02 0.  0.
         25    2    1    2    0    0 -0.14080568723E+03 -0.11478388452E+02 -0.30399382577E+02  0.19112728644E+03  0.12509005637E+03 0.  0.
         24    2    1    2    0    0  0.10010611535E+03 -0.17248286578E+00  0.20595847197E+03  0.24222728353E+03  0.78955054492E+02 0.  0.
        -13    1    5    5    0    0  0.82417021123E+02 -0.33274603155E+02  0.12968253845E+03  0.15721744612E+03  0.00000000000E+00 0.  1.
         14    1    5    5    0    0  0.17689094227E+02  0.33102120289E+02  0.76275933519E+02  0.85009837410E+02  0.00000000000E+00 0. -1.
         11    1    3    3    0    0  0.68780501214E+01 -0.24339330884E+01  0.80130862419E+01  0.10837027031E+02  0.00000000000E+00 0. -1.
        -12    1    3    3    0    0  0.33821521756E+02  0.14084804406E+02 -0.18440502757E+03  0.18800928499E+03  0.00000000000E+00 0.  1.
          5    1    4    4  501    0  0.62850176821E+00  0.27196570969E+02  0.22132660021E+02  0.35318203898E+02  0.41800000000E+01 0. -1.
         -5    1    4    4    0  501 -0.14143418900E+03 -0.38674959422E+02 -0.52532042598E+02  0.15580908254E+03  0.41800000000E+01 0. -1.
</event>
<event>
11    1  0.8453735E-009  0.1375093E+03  0.7561462E-02  0.1110372E+00
         22   -1    0    0    0    0  0.00000000000E+00  0.00000000000E+00  0.67987812752E+02  0.67987812752E+02  0.00000000000E+00 0.  1.
         22   -1    0    0    0    0 -0.00000000000E+00 -0.00000000000E+00 -0.22719822286E+04  0.22719822286E+04  0.00000000000E+00 0. -1.
        -24    2    1    2    0    0  0.54771681626E+02  0.51172382690E+01 -0.18370119056E+04  0.18395778805E+04  0.80049447217E+02 0.  0.
         25    2    1    2    0    0 -0.80694765574E+02  0.60901624789E+01 -0.38337000893E+03  0.41130165566E+03  0.12509097863E+03 0.  0.
         24    2    1    2    0    0  0.25923083947E+02 -0.11207400748E+02  0.16387498635E+02  0.89090505200E+02  0.82891229285E+02 0.  0.
        -13    1    5    5    0    0 -0.12691069330E+02 -0.26164259692E+02  0.33432633381E+02  0.44309961642E+02  0.00000000000E+00 0.  1.
         14    1    5    5    0    0  0.38614153277E+02  0.14956858944E+02 -0.17045134746E+02  0.44780543557E+02  0.00000000000E+00 0. -1.
         11    1    3    3    0    0  0.54439327982E+02  0.85514566655E+01 -0.18344573242E+04  0.18352848395E+04  0.00000000000E+00 0. -1.
        -12    1    3    3    0    0  0.33235364410E+00 -0.34342183965E+01 -0.25545813636E+01  0.42930409832E+01  0.00000000000E+00 0.  1.
          5    1    4    4  501    0 -0.38554631179E+02  0.39899311541E+02 -0.54111875293E+02  0.77614316299E+02  0.41800000000E+01 0. -1.
         -5    1    4    4    0  501 -0.42140134394E+02 -0.33809149062E+02 -0.32925813363E+03  0.33368733936E+03  0.41800000000E+01 0. -1.
</event>
<event>
11    1  0.8453735E-009  0.1914822E+03  0.7561462E-02  0.1060716E+00
         22   -1    0    0    0    0  0.00000000000E+00  0.00000000000E+00  0.20470098318E+04  0.20470098318E+04  0.00000000000E+00 0.  1.
         22   -1    0    0    0    0 -0.00000000000E+00 -0.00000000000E+00 -0.34820943838E+03  0.34820943838E+03  0.00000000000E+00 0. -1.
        -24    2    1    2    0    0  0.35732856626E+02 -0.61924495301E+02 -0.31353940912E+03  0.33143027814E+03  0.80172239821E+02 0.  0.
         25    2    1    2    0    0 -0.11746038501E+03 -0.63973337294E+02  0.37143954905E+03  0.41413099096E+03  0.12509040390E+03 0.  0.
         24    2    1    2    0    0  0.81727528384E+02  0.12589783259E+03  0.16409002535E+04  0.16496580011E+04  0.79298332167E+02 0.  0.
        -11    1    5    5    0    0  0.83515475199E+02  0.10973466584E+03  0.15952230839E+04  0.16011724513E+04  0.00000000000E+00 0.  1.
         12    1    5    5    0    0 -0.17879468152E+01  0.16163166756E+02  0.45677169619E+02  0.48485549784E+02  0.00000000000E+00 0. -1.
         13    1    3    3    0    0  0.53928582498E+02 -0.57803766630E+02 -0.29388166311E+03  0.30432876853E+03  0.00000000000E+00 0. -1.
        -14    1    3    3    0    0 -0.18195725872E+02 -0.41207286705E+01 -0.19657746011E+02  0.27101509607E+02  0.00000000000E+00 0.  1.
          5    1    4    4  501    0 -0.27919050872E+02 -0.85033937369E+02  0.20926348661E+03  0.22763770148E+03  0.41800000000E+01 0. -1.
         -5    1    4    4    0  501 -0.89541334138E+02  0.21060600075E+02  0.16217606244E+03  0.18649328949E+03  0.41800000000E+01 0. -1.
</event>
<event>
11    1  0.8453735E-009  0.1888260E+03  0.7561462E-02  0.1062719E+00
         22   -1    0    0    0    0  0.00000000000E+00  0.00000000000E+00  0.40487978975E+03  0.40487978975E+03  0.00000000000E+00 0. -1.
         22   -1    0    0    0    0 -0.00000000000E+00 -0.00000000000E+00 -0.71218518509E+03  0.71218518509E+03  0.00000000000E+00 0. -1.
         24    2    1    2    0    0 -0.33628308362E+02  0.13804729237E+03 -0.62366704305E+03  0.64484485963E+03  0.81709206035E+02 0.  0.
         25    2    1    2    0    0  0.24470190871E+02 -0.13236471918E+03  0.45606460609E+02  0.18933139601E+03  0.12508884499E+03 0.  0.
        -24    2    1    2    0    0  0.91581174912E+01 -0.56825731875E+01  0.27075518710E+03  0.28288871920E+03  0.81249574487E+02 0.  0.
        -13    1    3    3    0    0  0.27229407310E+02  0.46667364227E+02 -0.19618379634E+03  0.20348799830E+03  0.00000000000E+00 0.  1.
         14    1    3    3    0    0 -0.60857715672E+02  0.91379928142E+02 -0.42748324671E+03  0.44135686133E+03  0.00000000000E+00 0. -1.
         13    1    5    5    0    0  0.34725518806E+02  0.24357991875E+02  0.13340555311E+03  0.13998648158E+03  0.00000000000E+00 0. -1.
        -14    1    5    5    0    0 -0.25567401315E+02 -0.30040565062E+02  0.13734963399E+03  0.14290223762E+03  0.00000000000E+00 0.  1.
          5    1    4    4  501    0  0.59111714532E+02 -0.13577863634E+03  0.42564130878E+02  0.15414023005E+03  0.41800000000E+01 0.  1.
         -5    1    4    4    0  501 -0.34641523661E+02  0.34139171578E+01  0.30423297311E+01  0.35191165967E+02  0.41800000000E+01 0.  1.
</event>
<event>
11    1  0.8453735E-009  0.1442270E+03  0.7561462E-02  0.1102928E+00
         22   -1    0    0    0    0  0.00000000000E+00  0.00000000000E+00  0.76608648357E+03  0.76608648357E+03  0.00000000000E+00 0.  1.
         22   -1    0    0    0    0 -0.00000000000E+00 -0.00000000000E+00 -0.74563947277E+03  0.74563947277E+03  0.00000000000E+00 0. -1.
         24    2    1    2    0    0  0.20751978206E+02  0.54656730037E+02 -0.71308073850E+03  0.71984066573E+03  0.79173491061E+02 0.  0.
         25    2    1    2    0    0 -0.60122731512E+02 -0.10118682907E+03  0.29042808831E+03  0.33741543011E+03  0.12508869165E+03 0.  0.
        -24    2    1    2    0    0  0.39370753306E+02  0.46530099036E+02  0.44309966100E+03  0.45446986049E+03  0.80563255822E+02 0.  0.
        -11    1    3    3    0    0  0.44325738535E+01  0.36644914132E+02 -0.10544553511E+03  0.11171955208E+03  0.00000000000E+00 0.  1.
         12    1    3    3    0    0  0.16319404353E+02  0.18011815905E+02 -0.60763520339E+03  0.60812111365E+03  0.00000000000E+00 0. -1.
         13    1    5    5    0    0  0.24116993888E+02 -0.19286259032E+02  0.95604812831E+02  0.10046825080E+03  0.00000000000E+00 0. -1.
        -14    1    5    5    0    0  0.15253759418E+02  0.65816358069E+02  0.34749484817E+03  0.35400160970E+03  0.00000000000E+00 0.  1.
          5    1    4    4  501    0 -0.92668381759E+02 -0.69603206085E+02  0.14886705037E+03  0.18870852222E+03  0.41800000000E+01 0. -1.
         -5    1    4    4    0  501  0.32545650246E+02 -0.31583622989E+02  0.14156103794E+03  0.14870690789E+03  0.41800000000E+01 0. -1.
</event>
<event>
11    1  0.8453735E-009  0.1624451E+03  0.7561462E-02  0.1084800E+00
         22   -1    0    0    0    0  0.00000000000E+00  0.00000000000E+00  0.25923780132E+04  0.25923780132E+04  0.00000000000E+00 0.  1.
         22   -1    0    0    0    0 -0.00000000000E+00 -0.00000000000E+00 -0.13415333021E+04  0.13415333021E+04  0.00000000000E+00 0.  1.
        -24    2    1    2    0    0 -0.41556106418E+00 -0.93680063490E+02 -0.13193910131E+04  0.13251131716E+04  0.79725436330E+02 0.  0.
         25    2    1    2    0    0 -0.77665254162E+02  0.15432444301E+02  0.30113272842E+03  0.33555768712E+03  0.12509192306E+03 0.  0.
         24    2    1    2    0    0  0.78080815226E+02  0.78247619189E+02  0.22691029957E+04  0.22732404565E+04  0.81083071155E+02 0.  0.
        -11    1    5    5    0    0  0.84109792986E+02  0.35921011598E+02  0.17457118573E+04  0.17481060223E+04  0.00000000000E+00 0.  1.
         12    1    5    5    0    0 -0.60289777605E+01  0.42326607591E+02  0.52339113841E+03  0.52513443426E+03  0.00000000000E+00 0. -1.
         13    1    3    3    0    0  0.39605917982E+02 -0.49121749183E+02 -0.66475285643E+03  0.66774091916E+03  0.00000000000E+00 0. -1.
        -14    1    3    3    0    0 -0.40021479047E+02 -0.44558314308E+02 -0.65463815668E+03  0.65737225249E+03  0.00000000000E+00 0.  1.
          5    1    4    4  501    0  0.29044632352E+01  0.37690090903E+02  0.20323090780E+03  0.20675892518E+03  0.41800000000E+01 0. -1.
         -5    1    4    4    0  501 -0.80569717397E+02 -0.22257646602E+02  0.97901820627E+02  0.12879876193E+03  0.41800000000E+01 0. -1.
</event>
<event>
11    1  0.8453735E-009  0.1356297E+03  0.7561462E-02  0.1112539E+00
         22   -1    0    0    0    0  0.00000000000E+00  0.00000000000E+00  0.35246401886E+04  0.35246401886E+04  0.00000000000E+00 0.  1.
         22   -1    0    0    0    0 -0.00000000000E+00 -0.00000000000E+00 -0.14282640843E+03  0.14282640843E+03  0.00000000000E+00 0.  1.
        -24    2    1    2    0    0 -0.50229863300E+02 -0.17791255932E+02 -0.11654780472E+03  0.15034951048E+03  0.78625800867E+02 0.  0.
         25    2    1    2    0    0  0.34062266430E+02 -0.12654971507E+02  0.47621181486E+03  0.49370412343E+03  0.12508270297E+03 0.  0.
         24    2    1    2    0    0  0.16167596870E+02  0.30446227440E+02  0.30221497701E+04  0.30234129632E+04  0.80301613912E+02 0.  0.
        -11    1    5    5    0    0  0.47335326635E+01  0.47525124653E+02  0.27747265252E+04  0.27751375341E+04  0.00000000000E+00 0.  1.
         12    1    5    5    0    0  0.11434064207E+02 -0.17078897214E+02  0.24742324488E+03  0.24827542904E+03  0.00000000000E+00 0. -1.
         11    1    3    3    0    0 -0.40590826414E+02 -0.23987175368E+02 -0.16962514648E+02  0.50107151928E+02  0.00000000000E+00 0. -1.
        -12    1    3    3    0    0 -0.96390368855E+01  0.61959194362E+01 -0.99585290067E+02  0.10024235855E+03  0.00000000000E+00 0.  1.
          5    1    4    4  501    0  0.45165425362E+02 -0.16943353813E+02  0.59102118144E+02  0.76403701846E+02  0.41800000000E+01 0. -1.
         -5    1    4    4    0  501 -0.11103158932E+02  0.42883823057E+01  0.41710969671E+03  0.41730042158E+03  0.41800000000E+01 0. -1.
</event>
<event>
11    1  0.8453735E-009  0.1458231E+03  0.7561462E-02  0.1101225E+00
         22   -1    0    0    0    0  0.00000000000E+00  0.00000000000E+00  0.29354217200E+04  0.29354217200E+04  0.00000000000E+00 0.  1.
         22   -1    0    0    0    0 -0.00000000000E+00 -0.00000000000E+00 -0.33866559435E+03  0.33866559435E+03  0.00000000000E+00 0.  1.
         24    2    1    2    0    0 -0.32593240921E+02  0.64345810700E+02 -0.29098389978E+03  0.31176635472E+03  0.85579946821E+02 0.  0.
         25    2    1    2    0    0  0.64192967957E+02 -0.12706572254E+03  0.21159345939E+03  0.28404965398E+03  0.12508388742E+03 0.  0.
        -24    2    1    2    0    0 -0.31599727035E+02  0.62719911835E+02  0.26761465661E+04  0.26782713057E+04  0.80277105083E+02 0.  0.
        -13    1    3    3    0    0 -0.68534570963E-01  0.75521176725E+02 -0.22535139976E+03  0.23766932113E+03  0.00000000000E+00 0.  1.
         14    1    3    3    0    0 -0.32524706350E+02 -0.11175366025E+02 -0.65632500017E+02  0.74097033594E+02  0.00000000000E+00 0. -1.
         13    1    5    5    0    0  0.22643534340E+02  0.15964353551E+01  0.38577453121E+03  0.38644180310E+03  0.00000000000E+00 0. -1.
        -14    1    5    5    0    0 -0.54243261376E+02  0.61123476480E+02  0.22903720348E+04  0.22918295026E+04  0.00000000000E+00 0.  1.
          5    1    4    4  501    0  0.43313185015E+02  0.11616347894E+02  0.28194115455E+02  0.53135224483E+02  0.41800000000E+01 0. -1.
         -5    1    4    4    0  501  0.20879782941E+02 -0.13868207043E+03  0.18339934394E+03  0.23091442950E+03  0.41800000000E+01 0. -1.
</event>
<event>
11    1  0.8453735E-009  0.1834160E+03  0.7561462E-02  0.1066913E+00
         22   -1    0    0    0    0  0.00000000000E+00  0.00000000000E+00  0.73781328025E+03  0.73781328025E+03  0.00000000000E+00 0. -1.
         22   -1    0    0    0    0 -0.00000000000E+00 -0.00000000000E+00 -0.21238917993E+03  0.21238917993E+03  0.00000000000E+00 0.  1.
         24    2    1    2    0    0  0.12238388737E+03 -0.21746016436E+02 -0.11416343420E+03  0.18714334908E+03  0.80861846849E+02 0.  0.
         25    2    1    2    0    0 -0.19867497496E+03  0.55813039048E+02  0.21038289109E+03  0.32015495566E+03  0.12510553052E+03 0.  0.
        -24    2    1    2    0    0  0.76291087594E+02 -0.34067022611E+02  0.42920464344E+03  0.44290415544E+03  0.70473916292E+02 0.  0.
        -13    1    3    3    0    0  0.12651121081E+03 -0.20564859490E+02 -0.76561685065E+02  0.14929732592E+03  0.00000000000E+00 0.  1.
         14    1    3    3    0    0 -0.41273234410E+01 -0.11811569459E+01 -0.37601749139E+02  0.37846023157E+02  0.00000000000E+00 0. -1.
         11    1    5    5    0    0  0.34839711693E+02 -0.49929302343E+02  0.30475890598E+03  0.31078084162E+03  0.00000000000E+00 0. -1.
        -12    1    5    5    0    0  0.41451375901E+02  0.15862279732E+02  0.12444573746E+03  0.13212331382E+03  0.00000000000E+00 0.  1.
          5    1    4    4  501    0 -0.60263793661E+02 -0.37565671043E+02  0.40205841827E+02  0.81712218085E+02  0.41800000000E+01 0.  1.
         -5    1    4    4    0  501 -0.13841118130E+03  0.93378710090E+02  0.17017704926E+03  0.23844273758E+03  0.41800000000E+01 0.  1.
</event>
<event>
11    1  0.8453735E-009  0.1300970E+03  0.7561462E-02  0.1119150E+00
         22   -1    0    0    0    0  0.00000000000E+00  0.00000000000E+00  0.15063990827E+04  0.15063990827E+04  0.00000000000E+00 0.  1.
         22   -1    0    0    0    0 -0.00000000000E+00 -0.00000000000E+00 -0.19941371134E+03  0.19941371134E+03  0.00000000000E+00 0.  1.
         24    2    1    2    0    0  0.39928718622E+01 -0.11088254320E+02 -0.14998577001E+03  0.17046682242E+03  0.80151818010E+02 0.  0.
         25    2    1    2    0    0  0.24059564627E+02  0.33027693816E+02  0.76405903447E+02  0.15216966119E+03  0.12509217600E+03 0.  0.
        -24    2    1    2    0    0 -0.28052436489E+02 -0.21939439496E+02  0.13805652379E+04  0.13831763104E+04  0.77123611112E+02 0.  0.
        -11    1    3    3    0    0  0.28390903721E+02  0.22011146014E+02 -0.96718713745E+02  0.10317482034E+03  0.00000000000E+00 0.  1.
         12    1    3    3    0    0 -0.24398031859E+02 -0.33099400333E+02 -0.53267056266E+02  0.67292002082E+02  0.00000000000E+00 0. -1.
         11    1    5    5    0    0 -0.91606890931E+01 -0.32179061282E+02  0.23101339384E+03  0.23342364564E+03  0.00000000000E+00 0. -1.
        -12    1    5    5    0    0 -0.18891747396E+02  0.10239621786E+02  0.11495518441E+04  0.11497526648E+04  0.00000000000E+00 0.  1.
          5    1    4    4  501    0 -0.19622052814E+02  0.31944693826E+02 -0.22526815114E+02  0.43936524891E+02  0.41800000000E+01 0.  1.
         -5    1    4    4    0  501  0.43681617441E+02  0.10829999894E+01  0.98932718561E+02  0.10823313630E+03  0.41800000000E+01 0.  1.
</event>
<event>
11    1  0.8453735E-009  0.1857303E+03  0.7561462E-02  0.1065100E+00
         22   -1    0    0    0    0  0.00000000000E+00  0.00000000000E+00  0.22380112007E+03  0.22380112007E+03  0.00000000000E+00 0.  1.
         22   -1    0    0    0    0 -0.00000000000E+00 -0.00000000000E+00 -0.15775739393E+04  0.15775739393E+04  0.00000000000E+00 0. -1.
         24    2    1    2    0    0  0.17289264270E+02 -0.16829863771E+02 -0.10912921623E+04  0.10944876812E+04  0.80015860482E+02 0.  0.
         25    2    1    2    0    0  0.54850519622E+02  0.13323771939E+03 -0.43337994554E+03  0.47352475692E+03  0.12508656540E+03 0.  0.
        -24    2    1    2    0    0 -0.72139783891E+02 -0.11640785562E+03  0.17089928862E+03  0.23336262119E+03  0.80601543709E+02 0.  0.
        -11    1    3    3    0    0  0.11524502417E+01  0.20964068485E+02 -0.80370962294E+03  0.80398381719E+03  0.00000000000E+00 0.  1.
         12    1    3    3    0    0  0.16136814028E+02 -0.37793932256E+02 -0.28758253933E+03  0.29050386402E+03  0.00000000000E+00 0. -1.
         13    1    5    5    0    0 -0.27039113343E+02  0.64286897197E+01  0.25041710393E+02  0.37410278819E+02  0.00000000000E+00 0. -1.
        -14    1    5    5    0    0 -0.45100670548E+02 -0.12283654534E+03  0.14585757823E+03  0.19595234237E+03  0.00000000000E+00 0.  1.
          5    1    4    4  501    0  0.21362887252E+02 -0.15489210830E+02 -0.14359178971E+03  0.14605602718E+03  0.41800000000E+01 0. -1.
         -5    1    4    4    0  501  0.33487632370E+02  0.14872693022E+03 -0.28978815583E+03  0.32746872974E+03  0.41800000000E+01 0. -1.
</event>
<event>
11    1  0.8453735E-009  0.1325088E+03  0.7561462E-02  0.1116224E+00
         22   -1    0    0    0    0  0.00000000000E+00  0.00000000000E+00  0.27701552133E+03  0.27701552133E+03  0.00000000000E+00 0. -1.
         22   -1    0    0    0    0 -0.00000000000E+00 -0.00000000000E+00 -0.54939104032E+03  0.54939104032E+03  0.00000000000E+00 0. -1.
         24    2    1    2    0    0  0.43224238666E+02  0.59635955236E+01 -0.40613569626E+03  0.41636110005E+03  0.80662646709E+02 0.  0.
         25    2    1    2    0    0 -0.38779340650E+02 -0.34100578328E+02 -0.95187091893E+02  0.16545400311E+03  0.12509099879E+03 0.  0.
        -24    2    1    2    0    0 -0.44448980168E+01  0.28136982804E+02  0.22894726916E+03  0.24459145849E+03  0.81219964247E+02 0.  0.
        -13    1    3    3    0    0  0.44911650862E+02 -0.35799618595E+01 -0.95709475458E+02  0.10578362918E+03  0.00000000000E+00 0.  1.
         14    1    3    3    0    0 -0.16874121953E+01  0.95435573832E+01 -0.31042622080E+03  0.31057747087E+03  0.00000000000E+00 0. -1.
         11    1    5    5    0    0 -0.19576921300E+01  0.19222138865E+02  0.23348536222E+03  0.23428345557E+03  0.00000000000E+00 0. -1.
        -12    1    5    5    0    0 -0.24872058868E+01  0.89148439391E+01 -0.45380930647E+01  0.10308002922E+02  0.00000000000E+00 0.  1.
          5    1    4    4  501    0  0.10690832261E+02 -0.64188300658E+02 -0.83992042072E+02  0.10633234394E+03  0.41800000000E+01 0. -1.
         -5    1    4    4    0  501 -0.49470172911E+02  0.30087722330E+02 -0.11195049821E+02  0.59121659173E+02  0.41800000000E+01 0. -1.
</event>
<event>
11    1  0.8453735E-009  0.1338575E+03  0.7561462E-02  0.1114618E+00
         22   -1    0    0    0    0  0.00000000000E+00  0.00000000000E+00  0.54206227980E+03  0.54206227980E+03  0.00000000000E+00 0. -1.
         22   -1    0    0    0    0 -0.00000000000E+00 -0.00000000000E+00 -0.28871673283E+03  0.28871673283E+03  0.00000000000E+00 0.  1.
        -24    2    1    2    0    0  0.20986262149E+02 -0.42016958416E+02 -0.24857018836E+03  0.26629405949E+03  0.83183769934E+02 0.  0.
         25    2    1    2    0    0 -0.34774177438E+02  0.51006854112E+02  0.15696178257E+03  0.20999492820E+03  0.12509966466E+03 0.  0.
         24    2    1    2    0    0  0.13787915289E+02 -0.89898956965E+01  0.34495395276E+03  0.35449002494E+03  0.79993896168E+02 0.  0.
        -11    1    5    5    0    0 -0.27776807942E+02  0.16487246148E+02  0.11670125407E+03  0.12108907071E+03  0.00000000000E+00 0.  1.
         12    1    5    5    0    0  0.41564723231E+02 -0.25477141844E+02  0.22825269870E+03  0.23340095423E+03  0.00000000000E+00 0. -1.
         11    1    3    3    0    0  0.29632259525E+02 -0.36355694430E+02 -0.54310150298E+02  0.71759318192E+02  0.00000000000E+00 0. -1.
        -12    1    3    3    0    0 -0.86459973758E+01 -0.56612639854E+01 -0.19426003807E+03  0.19453474129E+03  0.00000000000E+00 0.  1.
          5    1    4    4  501    0 -0.39525914344E+02  0.50875231808E+02  0.12952999757E+02  0.65847093474E+02  0.41800000000E+01 0. -1.
         -5    1    4    4    0  501  0.47517369063E+01  0.13162230448E+00  0.14400878281E+03  0.14414783472E+03  0.41800000000E+01 0. -1.
</event>
<event>
11    1  0.8453735E-009  0.1296107E+03  0.7561462E-02  0.1119748E+00
         22   -1    0    0    0    0  0.00000000000E+00  0.00000000000E+00  0.63502210229E+03  0.63502210229E+03  0.00000000000E+00 0. -1.
         22   -1    0    0    0    0 -0.00000000000E+00 -0.00000000000E+00 -0.33047502036E+03  0.33047502036E+03  0.00000000000E+00 0. -1.
         24    2    1    2    0    0 -0.37886524911E+02 -0.32301669470E+02 -0.21956888795E+03  0.23916654328E+03  0.80692950446E+02 0.  0.
         25    2    1    2    0    0  0.26512861864E+02 -0.17739041344E+01 -0.53897217144E+02  0.13877481140E+03  0.12508980647E+03 0.  0.
        -24    2    1    2    0    0  0.11373663047E+02  0.34075573604E+02  0.57801318702E+03  0.58755576797E+03  0.99156599225E+02 0.  0.
        -13    1    3    3    0    0  0.24906707354E+02 -0.13975638999E+02 -0.82159576618E+02  0.86981944027E+02  0.00000000000E+00 0.  1.
         14    1    3    3    0    0 -0.62793232265E+02 -0.18326030471E+02 -0.13740931133E+03  0.15218459926E+03  0.00000000000E+00 0. -1.
         13    1    5    5    0    0 -0.18358918703E+02 -0.22025686010E+02  0.34040758312E+03  0.34161309019E+03  0.00000000000E+00 0. -1.
        -14    1    5    5    0    0  0.29732581750E+02  0.56101259614E+02  0.23760560390E+03  0.24594267778E+03  0.00000000000E+00 0.  1.
          5    1    4    4  501    0  0.31725012077E+02 -0.22783546054E+02 -0.89022561800E+02  0.97303932456E+02  0.41800000000E+01 0. -1.
         -5    1    4    4    0  501 -0.52121502129E+01  0.21009641920E+02  0.35125344655E+02  0.41470878947E+02  0.41800000000E+01 0. -1.
</event>
<event>
11    1  0.8453735E-009  0.1947493E+03  0.7561462E-02  0.1058300E+00
         22   -1    0    0    0    0  0.00000000000E+00  0.00000000000E+00  0.11471318408E+04  0.11471318408E+04  0.00000000000E+00 0. -1.
         22   -1    0    0    0    0 -0.00000000000E+00 -0.00000000000E+00 -0.13050292135E+04  0.13050292135E+04  0.00000000000E+00 0.  1.
        -24    2    1    2    0    0 -0.47066026707E+02  0.50990424130E+02 -0.11897038099E+04  0.11941362369E+04  0.75835102539E+02 0.  0.
         25    2    1    2    0    0  0.12551746588E+03  0.77308973834E+02 -0.17871122979E+02  0.19416729689E+03  0.12510096111E+03 0.  0.
         24    2    1    2    0    0 -0.78451439174E+02 -0.12829939796E+03  0.10496775602E+04  0.10638575205E+04  0.85758263975E+02 0.  0.
        -13    1    5    5    0    0  0.17090184198E+02 -0.16816412615E+02  0.21855178470E+03  0.21986302264E+03  0.00000000000E+00 0.  1.
         14    1    5    5    0    0 -0.95541623372E+02 -0.11148298535E+03  0.83112577547E+03  0.84399449789E+03  0.00000000000E+00 0. -1.
         11    1    3    3    0    0 -0.40843634884E+02  0.59144154812E+02 -0.59241769009E+03  0.59676205735E+03  0.00000000000E+00 0. -1.
        -12    1    3    3    0    0 -0.62223918221E+01 -0.81537306813E+01 -0.59728611979E+03  0.59737417953E+03  0.00000000000E+00 0.  1.
          5    1    4    4  501    0  0.88299508089E+02  0.87045561332E+02 -0.59275590018E+02  0.13749473026E+03  0.41800000000E+01 0.  1.
         -5    1    4    4    0  501  0.37217957792E+02 -0.97365874985E+01  0.41404467039E+02  0.56672566635E+02  0.41800000000E+01 0.  1.
</event>
<event>
11    1  0.8453735E-009  0.1474879E+03  0.7561462E-02  0.1099474E+00
         22   -1    0    0    0    0  0.00000000000E+00  0.00000000000E+00  0.86128632718E+03  0.86128632718E+03  0.00000000000E+00 0.  1.
         22   -1    0    0    0    0 -0.00000000000E+00 -0.00000000000E+00 -0.76970604186E+03  0.76970604186E+03  0.00000000000E+00 0.  1.
        -24    2    1    2    0    0 -0.56494370600E+02 -0.39090832186E+02 -0.72812946967E+03  0.73585295177E+03  0.81162398612E+02 0.  0.
         25    2    1    2    0    0  0.12359894784E+03  0.98692976526E+01  0.20258212842E+03  0.26844244988E+03  0.12509087576E+03 0.  0.
         24    2    1    2    0    0 -0.67104577239E+02  0.29221534533E+02  0.61712762657E+03  0.62669696739E+03  0.80905247666E+02 0.  0.
        -11    1    5    5    0    0 -0.64611377691E+02  0.18831219995E+02  0.61033759045E+03  0.61403682242E+03  0.00000000000E+00 0.  1.
         12    1    5    5    0    0 -0.24931995485E+01  0.10390314539E+02  0.67900361165E+01  0.12660144970E+02  0.00000000000E+00 0. -1.
         11    1    3    3    0    0  0.23743061708E+01  0.34945286959E+01 -0.11970625090E+00  0.42265104029E+01  0.00000000000E+00 0. -1.
        -12    1    3    3    0    0 -0.58868676771E+02 -0.42585360882E+02 -0.72800976342E+03  0.73162644136E+03  0.00000000000E+00 0.  1.
          5    1    4    4  501    0  0.14175429568E+03  0.21537108183E+02  0.13352406149E+03  0.19597008642E+03  0.41800000000E+01 0.  1.
         -5    1    4    4    0  501 -0.18155347843E+02 -0.11667810530E+02  0.69058066931E+02  0.72472363465E+02  0.41800000000E+01 0.  1.
</event>
<event>
11    1  0.8453735E-009  0.1542610E+03  0.7561462E-02  0.1092603E+00
         22   -1    0    0    0    0  0.00000000000E+00  0.00000000000E+00  0.25253263360E+03  0.25253263360E+03  0.00000000000E+00 0. -1.
         22   -1    0    0    0    0 -0.00000000000E+00 -0.00000000000E+00 -0.12182117007E+04  0.12182117007E+04  0.00000000000E+00 0. -1.
         24    2    1    2    0    0  0.86319277990E+02 -0.10525287539E+02 -0.93644975691E+03  0.94409732535E+03  0.82582159629E+02 0.  0.
         25    2    1    2    0    0 -0.11483451157E+03 -0.61681790155E+01 -0.24275094858E+03  0.29630974239E+03  0.12508568632E+03 0.  0.
        -24    2    1    2    0    0  0.28515233577E+02  0.16693466554E+02  0.21352163843E+03  0.23033726652E+03  0.79824657223E+02 0.  0.
        -11    1    3    3    0    0  0.10203477231E+02 -0.21017795115E+02 -0.61631578714E+02  0.65911381065E+02  0.00000000000E+00 0.  1.
         12    1    3    3    0    0  0.76115800759E+02  0.10492507577E+02 -0.87481817820E+03  0.87818594429E+03  0.00000000000E+00 0. -1.
         13    1    5    5    0    0  0.10433100614E+02  0.13068353459E+02  0.21107197520E+03  0.21173334684E+03  0.00000000000E+00 0. -1.
        -14    1    5    5    0    0  0.18082132962E+02  0.36251130957E+01  0.24496632247E+01  0.18603919677E+02  0.00000000000E+00 0.  1.
          5    1    4    4  501    0 -0.79666917152E+02  0.56468968041E+02 -0.14722762656E+03  0.17671731229E+03  0.41800000000E+01 0. -1.
         -5    1    4    4    0  501 -0.35167594414E+02 -0.62637147057E+02 -0.95523322020E+02  0.11959243010E+03  0.41800000000E+01 0. -1.
</event>
<event>
11    1  0.8453735E-009  0.1576984E+03  0.7561462E-02  0.1089262E+00
         22   -1    0    0    0    0  0.00000000000E+00  0.00000000000E+00  0.97903905453E+02  0.97903905453E+02  0.00000000000E+00 0.  1.
         22   -1    0    0    0    0 -0.00000000000E+00 -0.00000000000E+00 -0.17013594452E+04  0.17013594452E+04  0.00000000000E+00 0. -1.
        -24    2    1    2    0    0  0.89513610231E+02  0.83944876427E+00 -0.11898135911E+04  0.11958466570E+04  0.79871486706E+02 0.  0.
         25    2    1    2    0    0 -0.13346339478E+03  0.20239010368E+01 -0.46469650219E+03  0.49940757565E+03  0.12509401880E+03 0.  0.
         24    2    1    2    0    0  0.43949784551E+02 -0.28633498011E+01  0.51054553515E+02  0.10400911804E+03  0.79193098607E+02 0.  0.
        -13    1    5    5    0    0  0.56060789252E+02  0.24047532301E+02  0.32040576555E+02  0.68903515493E+02  0.00000000000E+00 0.  1.
         14    1    5    5    0    0 -0.12111004702E+02 -0.26910882102E+02  0.19013976961E+02  0.35105602548E+02  0.00000000000E+00 0. -1.
         11    1    3    3    0    0  0.89201602533E+02 -0.90800496796E-01 -0.11909837539E+04  0.11943195704E+04  0.00000000000E+00 0. -1.
        -12    1    3    3    0    0  0.31200769810E+00  0.93024926106E+00  0.11701628110E+01  0.15270866038E+01  0.00000000000E+00 0.  1.
          5    1    4    4  501    0 -0.37617726380E+02  0.33383589862E+02 -0.31401979474E+03  0.31804946361E+03  0.41800000000E+01 0.  1.
         -5    1    4    4    0  501 -0.95845668401E+02 -0.31359688825E+02 -0.15067670745E+03  0.18135811204E+03  0.41800000000E+01 0.  1.
</event>
<event>
11    1  0.8453735E-009  0.1474628E+03  0.7561462E-02  0.1099500E+00
         22   -1    0    0    0    0  0.00000000000E+00  0.00000000000E+00  0.32067075705E+03  0.32067075705E+03  0.00000000000E+00 0.  1.
         22   -1    0    0    0    0 -0.00000000000E+00 -0.00000000000E+00 -0.18063076659E+04  0.18063076659E+04  0.00000000000E+00 0.  1.
        -24    2    1    2    0    0  0.12283650017E+02  0.56534201790E+01 -0.12990870673E+04  0.13016287859E+04  0.80171308825E+02 0.  0.
         25    2    1    2    0    0 -0.61264449953E+02  0.55072590196E+02 -0.48436697174E+03  0.50699668765E+03  0.12509178612E+03 0.  0.
         24    2    1    2    0    0  0.48980799936E+02 -0.60726010375E+02  0.29781713014E+03  0.31835294941E+03  0.81035734703E+02 0.  0.
        -11    1    5    5    0    0  0.57577344527E+02 -0.23595211867E+02  0.24766525630E+03  0.25536241658E+03  0.00000000000E+00 0.  1.
         12    1    5    5    0    0 -0.85965445910E+01 -0.37130798508E+02  0.50151873838E+02  0.62990532830E+02  0.00000000000E+00 0. -1.
         13    1    3    3    0    0 -0.17890903758E+01 -0.43972830796E+01 -0.34311150020E+01  0.58574305810E+01  0.00000000000E+00 0. -1.
        -14    1    3    3    0    0  0.14072740393E+02  0.10050703259E+02 -0.12956559523E+04  0.12957713554E+04  0.00000000000E+00 0.  1.
          5    1    4    4  501    0  0.36869101801E+01  0.22048520552E+02 -0.37393630040E+03  0.37462722768E+03  0.41800000000E+01 0. -1.
         -5    1    4    4    0  501 -0.64951360133E+02  0.33024069644E+02 -0.11043067134E+03  0.13236945997E+03  0.41800000000E+01 0. -1.
</event>
<event>
11    1  0.8453735E-009  0.1308385E+03  0.7561462E-02  0.1118243E+00
         22   -1    0    0    0    0  0.00000000000E+00  0.00000000000E+00  0.11762984012E+04  0.11762984012E+04  0.00000000000E+00 0.  1.
         22   -1    0    0    0    0 -0.00000000000E+00 -0.00000000000E+00 -0.72079237948E+03  0.72079237948E+03  0.00000000000E+00 0. -1.
         24    2    1    2    0    0 -0.35970823350E+02  0.14435599859E+02 -0.70106436202E+03  0.70671363204E+03  0.80315822447E+02 0.  0.
         25    2    1    2    0    0 -0.32723171363E+01 -0.15006137043E+02  0.25524698301E+03  0.28466161988E+03  0.12508126675E+03 0.  0.
        -24    2    1    2    0    0  0.39243140486E+02  0.57053718379E+00  0.90132340079E+03  0.90571552880E+03  0.79977476350E+02 0.  0.
        -11    1    3    3    0    0  0.42805284956E+01 -0.65449624328E+01 -0.52475641961E+01  0.94178759516E+01  0.00000000000E+00 0.  1.
         12    1    3    3    0    0 -0.40251351845E+02  0.20980562292E+02 -0.69581679783E+03  0.69729575609E+03  0.00000000000E+00 0. -1.
         11    1    5    5    0    0 -0.18463561037E+02 -0.44274713185E+01  0.48619901748E+03  0.48656961495E+03  0.00000000000E+00 0. -1.
        -12    1    5    5    0    0  0.57706701523E+02  0.49980085023E+01  0.41512438330E+03  0.41914591385E+03  0.00000000000E+00 0.  1.
          5    1    4    4  501    0  0.46759468389E+02 -0.21687233186E+02  0.45481713761E+02  0.68868299339E+02  0.41800000000E+01 0.  1.
         -5    1    4    4    0  501 -0.50031785526E+02  0.66810961427E+01  0.20976526924E+03  0.21579332054E+03  0.41800000000E+01 0.  1.
</event>
<event>
11    1  0.8453735E-009  0.1279321E+03  0.7561462E-02  0.1121836E+00
         22   -1    0    0    0    0  0.00000000000E+00  0.00000000000E+00  0.35870432018E+03  0.35870432018E+03  0.00000000000E+00 0. -1.
         22   -1    0    0    0    0 -0.00000000000E+00 -0.00000000000E+00 -0.85989572007E+03  0.85989572007E+03  0.00000000000E+00 0.  1.
         24    2    1    2    0    0  0.51446854742E+01  0.13074180576E+02 -0.76898364619E+03  0.77336813594E+03  0.81024833105E+02 0.  0.
         25    2    1    2    0    0 -0.30266427589E+02 -0.20649147991E+02 -0.31570644557E+02  0.13411252049E+03  0.12508804341E+03 0.  0.
        -24    2    1    2    0    0  0.25121742115E+02  0.75749674149E+01  0.29936289086E+03  0.31111938382E+03  0.80552147752E+02 0.  0.
        -11    1    3    3    0    0  0.23785376769E+02  0.11609910373E+02 -0.72613796720E+03  0.72662017697E+03  0.00000000000E+00 0.  1.
         12    1    3    3    0    0 -0.18640691295E+02  0.14642702029E+01 -0.42845678990E+02  0.46747958964E+02  0.00000000000E+00 0. -1.
         11    1    5    5    0    0 -0.23957546593E+02 -0.15095698056E+02  0.14003215800E+03  0.14286654407E+03  0.00000000000E+00 0. -1.
        -12    1    5    5    0    0  0.49079288708E+02  0.22670665471E+02  0.15933073286E+03  0.16825283976E+03  0.00000000000E+00 0.  1.
          5    1    4    4  501    0 -0.95865730133E+01 -0.39151147446E+02  0.40181728050E+02  0.57068015539E+02  0.41800000000E+01 0. -1.
         -5    1    4    4    0  501 -0.20679854576E+02  0.18501999455E+02 -0.71752372606E+02  0.77044504955E+02  0.41800000000E+01 0. -1.
</event>
<event>
11    1  0.8453735E-009  0.2050009E+03  0.7561462E-02  0.1051043E+00
         22   -1    0    0    0    0  0.00000000000E+00  0.00000000000E+00  0.98736867342E+03  0.98736867342E+03  0.00000000000E+00 0. -1.
         22   -1    0    0    0    0 -0.00000000000E+00 -0.00000000000E+00 -0.29561080380E+04  0.29561080380E+04  0.00000000000E+00 0. -1.
        -24    2    1    2    0    0  0.34352368684E+00 -0.30489272786E+02 -0.26004740677E+04  0.26018675185E+04  0.79495241471E+02 0.  0.
         25    2    1    2    0    0  0.11390324079E+03 -0.85685600637E+02 -0.32055606164E+03  0.37244905532E+03  0.12508453036E+03 0.  0.
         24    2    1    2    0    0 -0.11424676448E+03  0.11617487342E+03  0.95229076473E+03  0.96916013761E+03  0.76581638245E+02 0.  0.
        -13    1    5    5    0    0  0.74657873410E+01  0.27868805216E+02  0.12225267157E+03  0.12561100266E+03  0.00000000000E+00 0.  1.
         14    1    5    5    0    0 -0.12171255182E+03  0.88306068207E+02  0.83003809317E+03  0.84354913494E+03  0.00000000000E+00 0. -1.
         13    1    3    3    0    0 -0.25139439843E+02 -0.15117813436E+02 -0.22322659592E+04  0.22324587012E+04  0.00000000000E+00 0. -1.
        -14    1    3    3    0    0  0.25482963529E+02 -0.15371459350E+02 -0.36820810841E+03  0.36940881729E+03  0.00000000000E+00 0.  1.
          5    1    4    4  501    0  0.48139885354E+02 -0.10535019403E+02 -0.23720450168E+03  0.24230535119E+03  0.41800000000E+01 0.  1.
         -5    1    4    4    0  501  0.65763355439E+02 -0.75150581234E+02 -0.83351559964E+02  0.13014370414E+03  0.41800000000E+01 0.  1.
</event>
<event>
11    1  0.8453735E-009  0.1962505E+03  0.7561462E-02  0.1057207E+00
         22   -1    0    0    0    0  0.00000000000E+00  0.00000000000E+00  0.12063849303E+04  0.12063849303E+04  0.00000000000E+00 0. -1.
         22   -1    0    0    0    0 -0.00000000000E+00 -0.00000000000E+00 -0.96112859333E+03  0.96112859333E+03  0.00000000000E+00 0. -1.
         24    2    1    2    0    0 -0.64978629258E+01  0.26145062695E+02 -0.72651576622E+03  0.73140300352E+03  0.79996302814E+02 0.  0.
         25    2    1    2    0    0 -0.14437204748E+03 -0.37982726355E+02 -0.18390596965E+03  0.26787227687E+03  0.12509266745E+03 0.  0.
        -24    2    1    2    0    0  0.15086991041E+03  0.11837663660E+02  0.11556780728E+04  0.11682382432E+04  0.79290130399E+02 0.  0.
        -13    1    3    3    0    0 -0.79485645506E-01  0.53909186605E+02 -0.54558481786E+03  0.54824173518E+03  0.00000000000E+00 0.  1.
         14    1    3    3    0    0 -0.64183772803E+01 -0.27764123911E+02 -0.18093094836E+03  0.18316126834E+03  0.00000000000E+00 0. -1.
         13    1    5    5    0    0  0.99423206772E+02 -0.30631000572E+02  0.72365002712E+03  0.73109000403E+03  0.00000000000E+00 0. -1.
        -14    1    5    5    0    0  0.51446703636E+02  0.42468664232E+02  0.43202804569E+03  0.43714823918E+03  0.00000000000E+00 0.  1.
          5    1    4    4  501    0 -0.13100065139E+03 -0.56438165703E+02 -0.84590809352E+02  0.16589006794E+03  0.41800000000E+01 0.  1.
         -5    1    4    4    0  501 -0.13371396091E+02  0.18455439348E+02 -0.99315160296E+02  0.10198220894E+03  0.41800000000E+01 0.  1.
</event>
<event>
11    1  0.8453735E-009  0.1500352E+03  0.7561462E-02  0.1096843E+00
         22   -1    0    0    0    0  0.00000000000E+00  0.00000000000E+00  0.82857491647E+02  0.82857491647E+02  0.00000000000E+00 0. -1.
         22   -1    0    0    0    0 -0.00000000000E+00 -0.00000000000E+00 -0.53342464123E+03  0.53342464123E+03  0.00000000000E+00 0. -1.
         24    2    1    2    0    0 -0.80665910631E+01 -0.87399146037E+02 -0.26036826181E+03  0.28599638400E+03  0.79363841152E+02 0.  0.
         25    2    1    2    0    0  0.65079374123E+02  0.59229430747E+02 -0.16784923976E+03  0.22707748621E+03  0.12508943621E+03 0.  0.
        -24    2    1    2    0    0 -0.57012783060E+02  0.28169715289E+02 -0.22349648006E+02  0.10320826266E+03  0.78156563540E+02 0.  0.
        -11    1    3    3    0    0  0.26014356833E+02 -0.15038649172E+02 -0.12679100213E+03  0.13030297752E+03  0.00000000000E+00 0.  1.
         12    1    3    3    0    0 -0.34080947896E+02 -0.72360496865E+02 -0.13357725968E+03  0.15569340648E+03  0.00000000000E+00 0. -1.
         13    1    5    5    0    0 -0.64482416524E+02  0.19475126606E-02  0.30454456501E+01  0.64554293302E+02  0.00000000000E+00 0. -1.
        -14    1    5    5    0    0  0.74696334634E+01  0.28167767777E+02 -0.25395093657E+02  0.38653969362E+02  0.00000000000E+00 0.  1.
          5    1    4    4  501    0  0.44791963193E+02  0.88810546767E+02 -0.67111841239E+02  0.12006292025E+03  0.41800000000E+01 0.  1.
         -5    1    4    4    0  501  0.20287410930E+02 -0.29581116020E+02 -0.10073739852E+03  0.10701456597E+03  0.41800000000E+01 0.  1.
</event>
<event>
11    1  0.8453735E-009  0.1568389E+03  0.7561462E-02  0.1090089E+00
         22   -1    0    0    0    0  0.00000000000E+00  0.00000000000E+00  0.50273500511E+03  0.50273500511E+03  0.00000000000E+00 0. -1.
         22   -1    0    0    0    0 -0.00000000000E+00 -0.00000000000E+00 -0.37948925394E+03  0.37948925394E+03  0.00000000000E+00 0.  1.
        -24    2    1    2    0    0 -0.34886318835E+02 -0.90895431470E+02 -0.30982847670E+03  0.33418691307E+03  0.78791961465E+02 0.  0.
         25    2    1    2    0    0  0.86149995319E+02  0.35884037178E+02  0.74635916406E+02  0.17300094531E+03  0.12509724715E+03 0.  0.
         24    2    1    2    0    0 -0.51263676484E+02  0.55011394292E+02  0.35843831146E+03  0.37503640067E+03  0.80746892684E+02 0.  0.
        -13    1    5    5    0    0 -0.82207003102E+01  0.49169665134E+02  0.28799004303E+03  0.29227299014E+03  0.00000000000E+00 0.  1.
         14    1    5    5    0    0 -0.43042976174E+02  0.58417291585E+01  0.70448268426E+02  0.82763410525E+02  0.00000000000E+00 0. -1.
         13    1    3    3    0    0 -0.20113070551E+02 -0.75643003331E+02 -0.12061618340E+03  0.14378686748E+03  0.00000000000E+00 0. -1.
        -14    1    3    3    0    0 -0.14773248284E+02 -0.15252428140E+02 -0.18921229329E+03  0.19040004559E+03  0.00000000000E+00 0.  1.
          5    1    4    4  501    0  0.64340682444E+02  0.63130375709E+02  0.96092851410E+02  0.13181986287E+03  0.41800000000E+01 0. -1.
         -5    1    4    4    0  501  0.21809312875E+02 -0.27246338531E+02 -0.21456935004E+02  0.41181082443E+02  0.41800000000E+01 0. -1.
</event>
<event>
11    1  0.8453735E-009  0.1270979E+03  0.7561462E-02  0.1122887E+00
         22   -1    0    0    0    0  0.00000000000E+00  0.00000000000E+00  0.33439254625E+03  0.33439254625E+03  0.00000000000E+00 0.  1.
         22   -1    0    0    0    0 -0.00000000000E+00 -0.00000000000E+00 -0.43385086578E+03  0.43385086578E+03  0.00000000000E+00 0.  1.
        -24    2    1    2    0    0  0.96611425466E+01  0.19728272339E+02 -0.38227214539E+03  0.39201311396E+03  0.84022294474E+02 0.  0.
         25    2    1    2    0    0 -0.21271097104E+02 -0.27826701531E+02  0.71571761765E+02  0.14831458000E+03  0.12509161710E+03 0.  0.
         24    2    1    2    0    0  0.11609954557E+02  0.80984291923E+01  0.21124206410E+03  0.22791571808E+03  0.84391879355E+02 0.  0.
        -11    1    5    5    0    0  0.23416469275E+02 -0.19773282638E+02  0.18598425210E+03  0.18849258810E+03  0.00000000000E+00 0.  1.
         12    1    5    5    0    0 -0.11806514718E+02  0.27871711830E+02  0.25257812001E+02  0.39423129977E+02  0.00000000000E+00 0. -1.
         13    1    3    3    0    0  0.13086847567E+02  0.46481141537E+02 -0.13697124279E+03  0.14523389222E+03  0.00000000000E+00 0. -1.
        -14    1    3    3    0    0 -0.34257050204E+01 -0.26752869198E+02 -0.24530090260E+03  0.24677922174E+03  0.00000000000E+00 0.  1.
          5    1    4    4  501    0 -0.70909624386E+02 -0.33320072710E+02  0.33195976944E+02  0.85193000658E+02  0.41800000000E+01 0. -1.
         -5    1    4    4    0  501  0.49638527282E+02  0.54933711789E+01  0.38375784821E+02  0.63121579339E+02  0.41800000000E+01 0. -1.
</event>
<event>
11    1  0.8453735E-009  0.1604138E+03  0.7561462E-02  0.1086689E+00
         22   -1    0    0    0    0  0.00000000000E+00  0.00000000000E+00  0.14718504447E+03  0.14718504447E+03  0.00000000000E+00 0. -1.
         22   -1    0    0    0    0 -0.00000000000E+00 -0.00000000000E+00 -0.11148914864E+04  0.11148914864E+04  0.00000000000E+00 0.  1.
         24    2    1    2    0    0  0.25572871511E+02 -0.95658826854E+02 -0.78061894827E+03  0.79110554898E+03  0.81715753155E+02 0.  0.
         25    2    1    2    0    0  0.71172742664E+02  0.12059610029E+03 -0.26174386074E+03  0.32212607022E+03  0.12508548187E+03 0.  0.
        -24    2    1    2    0    0 -0.96745614175E+02 -0.24937273441E+02  0.74656367092E+02  0.14884491165E+03  0.81238249047E+02 0.  0.
        -11    1    3    3    0    0 -0.25369657451E+02 -0.62507489407E+02 -0.39194197093E+03  0.39770505947E+03  0.00000000000E+00 0.  1.
         12    1    3    3    0    0  0.50942528962E+02 -0.33151337446E+02 -0.38867697734E+03  0.39340048951E+03  0.00000000000E+00 0. -1.
         13    1    5    5    0    0 -0.10362271049E+03 -0.11835655648E+01  0.55440848626E+02  0.11752767612E+03  0.00000000000E+00 0. -1.
        -14    1    5    5    0    0  0.68770963163E+01 -0.23753707876E+02  0.19215518466E+02  0.31317235535E+02  0.00000000000E+00 0.  1.
          5    1    4    4  501    0  0.31159904781E+02  0.47798235136E+02 -0.11411748359E+02  0.58337906618E+02  0.41800000000E+01 0. -1.
         -5    1    4    4    0  501  0.40012837883E+02  0.72797865159E+02 -0.25033211238E+03  0.26378816360E+03  0.41800000000E+01 0. -1.
</event>
<event>
11    1  0.8453735E-009  0.2542450E+03  0.7561462E-02  0.1021662E+00
         22   -1    0    0    0    0  0.00000000000E+00  0.00000000000E+00  0.11498848154E+04  0.11498848154E+04  0.00000000000E+00 0. -1.
         22   -1    0    0    0    0 -0.00000000000E+00 -0.00000000000E+00 -0.13178035548E+04  0.13178035548E+04  0.00000000000E+00 0.  1.
         24    2    1    2    0    0  0.21404925416E+03  0.50000368649E+02 -0.12186660905E+04  0.12412555811E+04  0.85154314298E+02 0.  0.
         25    2    1    2    0    0 -0.24774937542E+03 -0.51144875865E+02  0.14646861367E+03  0.31795453022E+03  0.12508587910E+03 0.  0.
        -24    2    1    2    0    0  0.33700121257E+02  0.11445072165E+01  0.90427873738E+03  0.90847825891E+03  0.80471758879E+02 0.  0.
        -13    1    3    3    0    0  0.11525428695E+03  0.52472057443E+01 -0.82089624368E+03  0.82896424936E+03  0.00000000000E+00 0.  1.
         14    1    3    3    0    0  0.98794967206E+02  0.44753162904E+02 -0.39776984686E+03  0.41229133171E+03  0.00000000000E+00 0. -1.
         13    1    5    5    0    0  0.27629359334E+02 -0.34646732083E+02  0.66350083560E+03  0.66497904958E+03  0.00000000000E+00 0. -1.
        -14    1    5    5    0    0  0.60707619236E+01  0.35791239300E+02  0.24077790178E+03  0.24349920933E+03  0.00000000000E+00 0.  1.
          5    1    4    4  501    0 -0.40848063956E+02  0.15210364676E+02  0.79133220381E+02  0.90440358748E+02  0.41800000000E+01 0.  1.
         -5    1    4    4    0  501 -0.20690131146E+03 -0.66355240541E+02  0.67335393286E+02  0.22751417147E+03  0.41800000000E+01 0.  1.
</event>
<event>
11    1  0.8453735E-009  0.2183570E+03  0.7561462E-02  0.1042252E+00
         22   -1    0    0    0    0  0.00000000000E+00  0.00000000000E+00  0.15205103063E+03  0.15205103063E+03  0.00000000000E+00 0.  1.
         22   -1    0    0    0    0 -0.00000000000E+00 -0.00000000000E+00 -0.21994213314E+04  0.21994213314E+04  0.00000000000E+00 0. -1.
        -24    2    1    2    0    0 -0.15037021806E+03  0.87835024566E+02 -0.18376309866E+04  0.18476924420E+04  0.82179821531E+02 0.  0.
         25    2    1    2    0    0  0.17338839440E+03 -0.20605492002E+03 -0.19898320873E+03  0.35744247400E+03  0.12509452219E+03 0.  0.
         24    2    1    2    0    0 -0.23018176345E+02  0.11821989546E+03 -0.10756105418E+02  0.14633744608E+03  0.82420714601E+02 0.  0.
        -13    1    5    5    0    0 -0.38783647283E+02  0.36066540037E+02 -0.29481898172E+02  0.60614758324E+02  0.00000000000E+00 0.  1.
         14    1    5    5    0    0  0.15765470938E+02  0.82153355422E+02  0.18725792754E+02  0.85722687751E+02  0.00000000000E+00 0. -1.
         13    1    3    3    0    0 -0.13632021878E+03  0.82493053331E+02 -0.18018644016E+04  0.18088956929E+04  0.00000000000E+00 0. -1.
        -14    1    3    3    0    0 -0.14049999283E+02  0.53419712348E+01 -0.35766585002E+02  0.38796749081E+02  0.00000000000E+00 0.  1.
          5    1    4    4  501    0  0.14933003103E+03 -0.21526453112E+03 -0.14994667487E+03  0.30189361409E+03  0.41800000000E+01 0.  1.
         -5    1    4    4    0  501  0.24058363373E+02  0.92096110905E+01 -0.49036533854E+02  0.55548859907E+02  0.41800000000E+01 0.  1.
</event>
<event>
11    1  0.8453735E-009  0.1446630E+03  0.7561462E-02  0.1102460E+00
         22   -1    0    0    0    0  0.00000000000E+00  0.00000000000E+00  0.21007179857E+03  0.21007179857E+03  0.00000000000E+00 0. -1.
         22   -1    0    0    0    0 -0.00000000000E+00 -0.00000000000E+00 -0.35931163527E+03  0.35931163527E+03  0.00000000000E+00 0.  1.
         24    2    1    2    0    0  0.49467972964E+02 -0.29184684591E+02 -0.10799651668E+03  0.14635635592E+03  0.80362361464E+02 0.  0.
         25    2    1    2    0    0 -0.66428459762E+02  0.71285706848E+02 -0.19026150169E+03  0.24765940215E+03  0.12506537564E+03 0.  0.
        -24    2    1    2    0    0  0.16960486798E+02 -0.42101022257E+02  0.14901818167E+03  0.17536767577E+03  0.80543460624E+02 0.  0.
        -13    1    3    3    0    0  0.19997432605E+02 -0.46094190422E+02 -0.23868619587E+02  0.55626277086E+02  0.00000000000E+00 0.  1.
         14    1    3    3    0    0  0.29470540359E+02  0.16909505830E+02 -0.84127897093E+02  0.90730078837E+02  0.00000000000E+00 0. -1.
         13    1    5    5    0    0  0.22244473242E+02  0.10837284080E+02  0.10003820443E+03  0.10305292651E+03  0.00000000000E+00 0. -1.
        -14    1    5    5    0    0 -0.52839864433E+01 -0.52938306337E+02  0.48979977239E+02  0.72314749263E+02  0.00000000000E+00 0.  1.
          5    1    4    4  501    0 -0.85720545569E+02  0.15702917029E+02 -0.63695593433E+02  0.10802404621E+03  0.41800000000E+01 0. -1.
         -5    1    4    4    0  501  0.19292085807E+02  0.55582789819E+02 -0.12656590825E+03  0.13963535595E+03  0.41800000000E+01 0. -1.
</event>
<event>
11    1  0.8453735E-009  0.1536545E+03  0.7561462E-02  0.1093202E+00
         22   -1    0    0    0    0  0.00000000000E+00  0.00000000000E+00  0.20048488031E+03  0.20048488031E+03  0.00000000000E+00 0. -1.
         22   -1    0    0    0    0 -0.00000000000E+00 -0.00000000000E+00 -0.42224019152E+03  0.42224019152E+03  0.00000000000E+00 0.  1.
         24    2    1    2    0    0  0.44587064841E+02 -0.18941861593E+02 -0.26208561325E+03  0.28064937169E+03  0.87911322866E+02 0.  0.
         25    2    1    2    0    0 -0.92397359239E+02 -0.54230772666E+02 -0.71023599988E+02  0.17936108005E+03  0.12509115310E+03 0.  0.
        -24    2    1    2    0    0  0.47810294398E+02  0.73172634259E+02  0.11135390202E+03  0.16271462009E+03  0.80226538262E+02 0.  0.
        -13    1    3    3    0    0 -0.80689286850E+01  0.28409467553E+02 -0.74200662506E+02  0.79862029608E+02  0.00000000000E+00 0.  1.
         14    1    3    3    0    0  0.52655993526E+02 -0.47351329146E+02 -0.18788495074E+03  0.20078734208E+03  0.00000000000E+00 0. -1.
         13    1    5    5    0    0  0.59313359211E+02  0.83649183573E+02  0.10158860577E+03  0.14434509107E+03  0.00000000000E+00 0. -1.
        -14    1    5    5    0    0 -0.11503064813E+02 -0.10476549314E+02  0.97652962477E+01  0.18369529021E+02  0.00000000000E+00 0.  1.
          5    1    4    4  501    0 -0.20023648194E+02 -0.60356609495E+02  0.16223127304E+02  0.65761151574E+02  0.41800000000E+01 0. -1.
         -5    1    4    4    0  501 -0.72373711044E+02  0.61258368298E+01 -0.87246727291E+02  0.11359992848E+03  0.41800000000E+01 0. -1.
</event>
<event>
11    1  0.8453735E-009  0.1324567E+03  0.7561462E-02  0.1116287E+00
         22   -1    0    0    0    0  0.00000000000E+00  0.00000000000E+00  0.76855294211E+03  0.76855294211E+03  0.00000000000E+00 0. -1.
         22   -1    0    0    0    0 -0.00000000000E+00 -0.00000000000E+00 -0.36102968119E+03  0.36102968119E+03  0.00000000000E+00 0. -1.
        -24    2    1    2    0    0 -0.93435377951E+01 -0.41627667911E+02 -0.31238604198E+03  0.32605458964E+03  0.83104703651E+02 0.  0.
         25    2    1    2    0    0 -0.20736683469E+02  0.66290144918E+02  0.93549203562E+02  0.17094893256E+03  0.12509072988E+03 0.  0.
         24    2    1    2    0    0  0.30080221264E+02 -0.24662477007E+02  0.62636009934E+03  0.63257910110E+03  0.79475075483E+02 0.  0.
        -13    1    5    5    0    0  0.22174421438E+02 -0.49198314145E+02  0.27315776543E+03  0.27843732490E+03  0.00000000000E+00 0.  1.
         14    1    5    5    0    0  0.79057998257E+01  0.24535837137E+02  0.35320233391E+03  0.35414177620E+03  0.00000000000E+00 0. -1.
         11    1    3    3    0    0  0.27020442114E+02 -0.58345664984E+01 -0.20839196785E+03  0.21021740823E+03  0.00000000000E+00 0. -1.
        -12    1    3    3    0    0 -0.36363979909E+02 -0.35793101413E+02 -0.10399407413E+03  0.11583718141E+03  0.00000000000E+00 0.  1.
          5    1    4    4  501    0  0.95616479328E+00  0.80872784302E+01  0.10688982718E+03  0.10728106020E+03  0.41800000000E+01 0.  1.
         -5    1    4    4    0  501 -0.21692848262E+02  0.58202866488E+02 -0.13340623614E+02  0.63667872366E+02  0.41800000000E+01 0.  1.
</event>
<event>
11    1  0.8453735E-009  0.1893754E+03  0.7561462E-02  0.1062302E+00
         22   -1    0    0    0    0  0.00000000000E+00  0.00000000000E+00  0.13834260485E+03  0.13834260485E+03  0.00000000000E+00 0.  1.
         22   -1    0    0    0    0 -0.00000000000E+00 -0.00000000000E+00 -0.66569896161E+03  0.66569896161E+03  0.00000000000E+00 0. -1.
        -24    2    1    2    0    0 -0.63546767130E+02  0.11069635565E+02 -0.21817627332E+03  0.24049188457E+03  0.77940566220E+02 0.  0.
         25    2    1    2    0    0  0.19601966306E+03 -0.15123077955E+02 -0.33375512241E+03  0.40704880985E+03  0.12507532161E+03 0.  0.
         24    2    1    2    0    0 -0.13247289593E+03  0.40534423895E+01  0.24575038970E+02  0.15650087204E+03  0.79517871294E+02 0.  0.
        -13    1    5    5    0    0 -0.11385543422E+03 -0.12321705767E+02 -0.88750101115E+01  0.11486361539E+03  0.00000000000E+00 0.  1.
         14    1    5    5    0    0 -0.18617461711E+02  0.16375148157E+02  0.33450049081E+02  0.41637256649E+02  0.00000000000E+00 0. -1.
         13    1    3    3    0    0 -0.67818495041E+02  0.29874992128E+02 -0.20251755506E+03  0.21565069796E+03  0.00000000000E+00 0. -1.
        -14    1    3    3    0    0  0.42717279116E+01 -0.18805356562E+02 -0.15658718260E+02  0.24841186613E+02  0.00000000000E+00 0.  1.
          5    1    4    4  501    0  0.13190736759E+03 -0.30719242940E+02 -0.11246678558E+03  0.17609507594E+03  0.41800000000E+01 0.  1.
         -5    1    4    4    0  501  0.64112295471E+02  0.15596164985E+02 -0.22128833682E+03  0.23095373391E+03  0.41800000000E+01 0.  1.
</event>
<event>
11    1  0.8453735E-009  0.1500664E+03  0.7561462E-02  0.1096811E+00
         22   -1    0    0    0    0  0.00000000000E+00  0.00000000000E+00  0.10663613461E+04  0.10663613461E+04  0.00000000000E+00 0. -1.
         22   -1    0    0    0    0 -0.00000000000E+00 -0.00000000000E+00 -0.34759401101E+03  0.34759401101E+03  0.00000000000E+00 0.  1.
        -24    2    1    2    0    0 -0.47419256163E+02  0.68683486749E+02 -0.30170918924E+03  0.32319670422E+03  0.80384498128E+02 0.  0.
         25    2    1    2    0    0  0.18584958290E+01 -0.87327814960E+02  0.14385055055E+03  0.20968875552E+03  0.12508713773E+03 0.  0.
         24    2    1    2    0    0  0.45560760334E+02  0.18644328211E+02  0.87662597376E+03  0.88106989734E+03  0.73400764778E+02 0.  0.
        -13    1    5    5    0    0  0.54906552039E+02  0.16894899345E+02  0.37684896669E+03  0.38120245379E+03  0.00000000000E+00 0.  1.
         14    1    5    5    0    0 -0.93457917046E+01  0.17494288660E+01  0.49977700708E+03  0.49986744356E+03  0.00000000000E+00 0. -1.
         11    1    3    3    0    0  0.22657926441E+02  0.22561974498E+02 -0.81407235642E+02  0.87461776444E+02  0.00000000000E+00 0. -1.
        -12    1    3    3    0    0 -0.70077182605E+02  0.46121512251E+02 -0.22030195360E+03  0.23573492778E+03  0.00000000000E+00 0.  1.
          5    1    4    4  501    0 -0.48596576622E+02 -0.89448017434E+02  0.97263164907E+02  0.14085514094E+03  0.41800000000E+01 0.  1.
         -5    1    4    4    0  501  0.50455072451E+02  0.21202024744E+01  0.46587385645E+02  0.68833614577E+02  0.41800000000E+01 0.  1.
</event>
<event>
11    1  0.8453735E-009  0.1528424E+03  0.7561462E-02  0.1094009E+00
         22   -1    0    0    0    0  0.00000000000E+00  0.00000000000E+00  0.29760942924E+03  0.29760942924E+03  0.00000000000E+00 0.  1.
         22   -1    0    0    0    0 -0.00000000000E+00 -0.00000000000E+00 -0.93071438615E+03  0.93071438615E+03  0.00000000000E+00 0.  1.
        -24    2    1    2    0    0  0.30834190213E+02  0.80820483929E+02 -0.73920029465E+03  0.74866082855E+03  0.81198908190E+02 0.  0.
         25    2    1    2    0    0 -0.27507026379E+02 -0.94159829848E+02 -0.14518092356E+03  0.21527569845E+03  0.12507364119E+03 0.  0.
         24    2    1    2    0    0 -0.33271638341E+01  0.13339345919E+02  0.25127626130E+03  0.26438728838E+03  0.81067074647E+02 0.  0.
        -11    1    5    5    0    0  0.25941685219E+02  0.35166797920E+02  0.10739173244E+03  0.11594248102E+03  0.00000000000E+00 0.  1.
         12    1    5    5    0    0 -0.29268849053E+02 -0.21827452002E+02  0.14388452886E+03  0.14844480736E+03  0.00000000000E+00 0. -1.
         11    1    3    3    0    0  0.41321514622E+02  0.10872672830E+02 -0.39253592247E+03  0.39485457198E+03  0.00000000000E+00 0. -1.
        -12    1    3    3    0    0 -0.10487324409E+02  0.69947811099E+02 -0.34666437218E+03  0.35380625657E+03  0.00000000000E+00 0.  1.
          5    1    4    4  501    0 -0.36717064756E+02 -0.16179638368E+02  0.97763560300E+01  0.41508710884E+02  0.41800000000E+01 0.  1.
         -5    1    4    4    0  501  0.92100383771E+01 -0.77980191479E+02 -0.15495727959E+03  0.17376698757E+03  0.41800000000E+01 0.  1.
</event>
<event>
11    1  0.8453735E-009  0.1443006E+03  0.7561462E-02  0.1102849E+00
         22   -1    0    0    0    0  0.00000000000E+00  0.00000000000E+00  0.18768990141E+04  0.18768990141E+04  0.00000000000E+00 0.  1.
         22   -1    0    0    0    0 -0.00000000000E+00 -0.00000000000E+00 -0.57684951396E+03  0.57684951396E+03  0.00000000000E+00 0.  1.
        -24    2    1    2    0    0  0.19311983306E+02 -0.69364328252E+02 -0.56182405726E+03  0.57126233375E+03  0.74229508322E+02 0.  0.
         25    2    1    2    0    0 -0.26873368759E+02  0.60090298572E+02  0.55219148198E+03  0.56999565977E+03  0.12508635998E+03 0.  0.
         24    2    1    2    0    0  0.75613854527E+01  0.92740296803E+01  0.13096820754E+04  0.13124905345E+04  0.84976952047E+02 0.  0.
        -11    1    5    5    0    0  0.37635056407E+02 -0.19920536761E+02  0.77450714197E+03  0.77567682589E+03  0.00000000000E+00 0.  1.
         12    1    5    5    0    0 -0.30073670955E+02  0.29194566441E+02  0.53517493346E+03  0.53681370865E+03  0.00000000000E+00 0. -1.
         11    1    3    3    0    0  0.54578694258E+01  0.15910448835E+02 -0.10543748492E+03  0.10677075417E+03  0.00000000000E+00 0. -1.
        -12    1    3    3    0    0  0.13854113880E+02 -0.85274777087E+02 -0.45638657235E+03  0.46449157958E+03  0.00000000000E+00 0.  1.
          5    1    4    4  501    0 -0.21635176846E+01  0.44492167671E+02  0.53280493563E+03  0.53468009653E+03  0.41800000000E+01 0.  1.
         -5    1    4    4    0  501 -0.24709851074E+02  0.15598130901E+02  0.19386546353E+02  0.35315563244E+02  0.41800000000E+01 0.  1.
</event>
<event>
11    1  0.8453735E-009  0.2171700E+03  0.7561462E-02  0.1043005E+00
         22   -1    0    0    0    0  0.00000000000E+00  0.00000000000E+00  0.16980899586E+03  0.16980899586E+03  0.00000000000E+00 0. -1.
         22   -1    0    0    0    0 -0.00000000000E+00 -0.00000000000E+00 -0.11894933201E+04  0.11894933201E+04  0.00000000000E+00 0. -1.
        -24    2    1    2    0    0  0.15180611704E+03  0.10187279694E+03 -0.89773711438E+03  0.92020413977E+03  0.86142721006E+02 0.  0.
         25    2    1    2    0    0 -0.34212014248E+02 -0.19509115855E+03 -0.13185742234E+03  0.26882090663E+03  0.12508908008E+03 0.  0.
         24    2    1    2    0    0 -0.11759410280E+03  0.93218361614E+02  0.99102124410E+01  0.17027726960E+03  0.79863009435E+02 0.  0.
        -13    1    5    5    0    0 -0.48596339963E+02  0.87613268712E+01 -0.25550931987E+02  0.55598698112E+02  0.00000000000E+00 0.  1.
         14    1    5    5    0    0 -0.68997762833E+02  0.84457034743E+02  0.35461144428E+02  0.11467857148E+03  0.00000000000E+00 0. -1.
         13    1    3    3    0    0  0.13645381850E+03  0.45759534358E+02 -0.63824051420E+03  0.65426640869E+03  0.00000000000E+00 0. -1.
        -14    1    3    3    0    0  0.15352298541E+02  0.56113262579E+02 -0.25949660018E+03  0.26593773108E+03  0.00000000000E+00 0.  1.
          5    1    4    4  501    0  0.39955867285E+02 -0.28288733503E+02 -0.44966270520E+02  0.66604516800E+02  0.41800000000E+01 0.  1.
         -5    1    4    4    0  501 -0.74167881533E+02 -0.16680242505E+03 -0.86891151816E+02  0.20221638983E+03  0.41800000000E+01 0.  1.
</event>
<event>
11    1  0.8453735E-009  0.1678356E+03  0.7561462E-02  0.1079931E+00
         22   -1    0    0    0    0  0.00000000000E+00  0.00000000000E+00  0.80118860908E+03  0.80118860908E+03  0.00000000000E+00 0.  1.
         22   -1    0    0    0    0 -0.00000000000E+00 -0.00000000000E+00 -0.70901103618E+03  0.70901103618E+03  0.00000000000E+00 0.  1.
        -24    2    1    2    0    0 -0.13683929705E+01 -0.11768724486E+03 -0.57009593545E+03  0.58796161247E+03  0.82688100834E+02 0.  0.
         25    2    1    2    0    0  0.53323518907E+02  0.77877868893E+02 -0.77810160139E+02  0.17495566651E+03  0.12508678624E+03 0.  0.
         24    2    1    2    0    0 -0.51955125937E+02  0.39809375962E+02  0.74008366848E+03  0.74728236629E+03  0.80143478089E+02 0.  0.
        -13    1    5    5    0    0 -0.65074965630E+02  0.30741755176E+02  0.70592139009E+03  0.70958073229E+03  0.00000000000E+00 0.  1.
         14    1    5    5    0    0  0.13119839693E+02  0.90676207860E+01  0.34162278399E+02  0.37701633993E+02  0.00000000000E+00 0. -1.
         13    1    3    3    0    0  0.19626802039E+02  0.99949681598E+00 -0.13717207485E+03  0.13857268299E+03  0.00000000000E+00 0. -1.
        -14    1    3    3    0    0 -0.20995195010E+02 -0.11868674167E+03 -0.43292386060E+03  0.44938892948E+03  0.00000000000E+00 0.  1.
          5    1    4    4  501    0  0.14916955525E+02  0.79950894061E+02 -0.10108236680E+03  0.12980669590E+03  0.41800000000E+01 0. -1.
         -5    1    4    4    0  501  0.38406563383E+02 -0.20730251674E+01  0.23272206660E+02  0.45148970609E+02  0.41800000000E+01 0. -1.
</event>
<event>
11    1  0.8453735E-009  0.1885179E+03  0.7561462E-02  0.1062954E+00
         22   -1    0    0    0    0  0.00000000000E+00  0.00000000000E+00  0.18587569314E+04  0.18587569314E+04  0.00000000000E+00 0.  1.
         22   -1    0    0    0    0 -0.00000000000E+00 -0.00000000000E+00 -0.30248889343E+03  0.30248889343E+03  0.00000000000E+00 0. -1.
        -24    2    1    2    0    0 -0.34206912350E+02 -0.13787218915E+03 -0.25636544964E+03  0.30374386993E+03  0.79738581338E+02 0.  0.
         25    2    1    2    0    0  0.13003165200E+02  0.12559389251E+03  0.35067296822E+03  0.39314380564E+03  0.12509041982E+03 0.  0.
         24    2    1    2    0    0  0.21203747150E+02  0.12278296645E+02  0.14619605194E+04  0.14643581492E+04  0.80099148542E+02 0.  0.
        -11    1    5    5    0    0  0.47672294411E+02 -0.10490122126E+02  0.83100634964E+03  0.83243873255E+03  0.00000000000E+00 0.  1.
         12    1    5    5    0    0 -0.26468547261E+02  0.22768418771E+02  0.63095416973E+03  0.63191941669E+03  0.00000000000E+00 0. -1.
         11    1    3    3    0    0 -0.34073196356E+02 -0.14807461246E+03 -0.23200186688E+03  0.27733001966E+03  0.00000000000E+00 0. -1.
        -12    1    3    3    0    0 -0.13371599420E+00  0.10202423307E+02 -0.24363582757E+02  0.26413850270E+02  0.00000000000E+00 0.  1.
          5    1    4    4  501    0  0.53248056060E+02  0.49691155015E+02  0.76124887396E+02  0.10543736170E+03  0.41800000000E+01 0. -1.
         -5    1    4    4    0  501 -0.40244890860E+02  0.75902737494E+02  0.27454808083E+03  0.28770644394E+03  0.41800000000E+01 0. -1.
</event>
<event>
11    1  0.8453735E-009  0.1469413E+03  0.7561462E-02  0.1100046E+00
         22   -1    0    0    0    0  0.00000000000E+00  0.00000000000E+00  0.57652226466E+03  0.57652226466E+03  0.00000000000E+00 0.  1.
         22   -1    0    0    0    0 -0.00000000000E+00 -0.00000000000E+00 -0.35550638035E+03  0.35550638035E+03  0.00000000000E+00 0. -1.
        -24    2    1    2    0    0  0.42655603392E+02 -0.62328179957E+01 -0.31332061490E+03  0.32766305859E+03  0.85644169226E+02 0.  0.
         25    2    1    2    0    0  0.45088223276E+02  0.10223335985E+02  0.14418234286E+03  0.19640186593E+03  0.12509068899E+03 0.  0.
         24    2    1    2    0    0 -0.87743826668E+02 -0.39905179894E+01  0.39015415636E+03  0.40796372048E+03  0.80617790558E+02 0.  0.
        -13    1    5    5    0    0 -0.99476724005E+02 -0.17568500157E+02  0.32101060737E+03  0.33652946507E+03  0.00000000000E+00 0.  1.
         14    1    5    5    0    0  0.11732897337E+02  0.13577982168E+02  0.69143548989E+02  0.71434255413E+02  0.00000000000E+00 0. -1.
         13    1    3    3    0    0  0.12675308680E+02 -0.29892991454E+02 -0.26031125100E+03  0.26232842352E+03  0.00000000000E+00 0. -1.
        -14    1    3    3    0    0  0.29980294712E+02  0.23660173458E+02 -0.53009363907E+02  0.65334635079E+02  0.00000000000E+00 0.  1.
          5    1    4    4  501    0 -0.37782865335E+02 -0.21556436446E+02  0.37681287113E+02  0.57702484034E+02  0.41800000000E+01 0. -1.
         -5    1    4    4    0  501  0.82871088611E+02  0.31779772431E+02  0.10650105575E+03  0.13869938190E+03  0.41800000000E+01 0. -1.
</event>
<event>
11    1  0.8453735E-009  0.1440647E+03  0.7561462E-02  0.1103103E+00
         22   -1    0    0    0    0  0.00000000000E+00  0.00000000000E+00  0.22891688968E+04  0.22891688968E+04  0.00000000000E+00 0.  1.
         22   -1    0    0    0    0 -0.00000000000E+00 -0.00000000000E+00 -0.12454653400E+04  0.12454653400E+04  0.00000000000E+00 0. -1.
         24    2    1    2    0    0  0.26466425774E+02 -0.62777972629E+02 -0.10030268497E+04  0.10087913021E+04  0.83399546990E+02 0.  0.
         25    2    1    2    0    0 -0.43346558675E+02  0.94015988992E+02 -0.21109772612E+03  0.26632091511E+03  0.12508656809E+03 0.  0.
        -24    2    1    2    0    0  0.16880132901E+02 -0.31238016364E+02  0.22578281326E+04  0.22595220196E+04  0.79944531179E+02 0.  0.
        -13    1    3    3    0    0  0.79109291455E+01 -0.77936348556E+01 -0.13136775347E+02  0.17201697902E+02  0.00000000000E+00 0.  1.
         14    1    3    3    0    0  0.18555496629E+02 -0.54984337773E+02 -0.98989007432E+03  0.99158960417E+03  0.00000000000E+00 0. -1.
         13    1    5    5    0    0 -0.15815284389E+02  0.38437688255E+01  0.11383435270E+03  0.11499198943E+03  0.00000000000E+00 0. -1.
        -14    1    5    5    0    0  0.32695417290E+02 -0.35081785189E+02  0.21439937799E+04  0.21445300302E+04  0.00000000000E+00 0.  1.
          5    1    4    4  501    0  0.32992381033E+01 -0.24648438336E+02 -0.79537503581E+01  0.26441728938E+02  0.41800000000E+01 0. -1.
         -5    1    4    4    0  501 -0.46645796778E+02  0.11866442733E+03 -0.20314397577E+03  0.23987918618E+03  0.41800000000E+01 0. -1.
</event>
<event>
11    1  0.8453735E-009  0.1471201E+03  0.7561462E-02  0.1099858E+00
         22   -1    0    0    0    0  0.00000000000E+00  0.00000000000E+00  0.33575973358E+03  0.33575973358E+03  0.00000000000E+00 0. -1.
         22   -1    0    0    0    0 -0.00000000000E+00 -0.00000000000E+00 -0.11282618235E+04  0.11282618235E+04  0.00000000000E+00 0.  1.
         24    2    1    2    0    0  0.32389377646E+02  0.29408280670E+02 -0.87235255941E+03  0.87709692003E+03  0.79913080692E+02 0.  0.
         25    2    1    2    0    0 -0.14212766870E+02 -0.10379067011E+03 -0.21579996780E+03  0.27053903259E+03  0.12508891283E+03 0.  0.
        -24    2    1    2    0    0 -0.18176610776E+02  0.74382389440E+02  0.29565043727E+03  0.31638560447E+03  0.82628933305E+02 0.  0.
        -11    1    3    3    0    0  0.27450992272E+02  0.18825237770E+02 -0.85776421377E+03  0.85840980480E+03  0.00000000000E+00 0.  1.
         12    1    3    3    0    0  0.49383853747E+01  0.10583042900E+02 -0.14588345634E+02  0.18687115226E+02  0.00000000000E+00 0. -1.
         13    1    5    5    0    0 -0.37238372305E+02  0.19263796320E+02  0.20007786274E+03  0.20442343648E+03  0.00000000000E+00 0. -1.
        -14    1    5    5    0    0  0.19061761529E+02  0.55118593120E+02  0.95572574530E+02  0.11196216800E+03  0.00000000000E+00 0.  1.
          5    1    4    4  501    0 -0.47356263041E+02 -0.28141242402E+02 -0.21336575140E+02  0.59222183444E+02  0.41800000000E+01 0.  1.
         -5    1    4    4    0  501  0.33143496171E+02 -0.75649427707E+02 -0.19446339266E+03  0.21131684915E+03  0.41800000000E+01 0.  1.
</event>
<event>
11    1  0.8453735E-009  0.2343302E+03  0.7561462E-02  0.1032594E+00
         22   -1    0    0    0    0  0.00000000000E+00  0.00000000000E+00  0.12596568766E+04  0.12596568766E+04  0.00000000000E+00 0. -1.
         22   -1    0    0    0    0 -0.00000000000E+00 -0.00000000000E+00 -0.57057207403E+03  0.57057207403E+03  0.00000000000E+00 0.  1.
        -24    2    1    2    0    0 -0.69483771506E+02  0.18644760205E+03 -0.50756475248E+03  0.55112764035E+03  0.80802197895E+02 0.  0.
         25    2    1    2    0    0 -0.44696241153E+02 -0.20880796020E+03  0.40189828384E+03  0.47198269092E+03  0.12508761631E+03 0.  0.
         24    2    1    2    0    0  0.11418001266E+03  0.22360358156E+02  0.79475127122E+03  0.80711861937E+03  0.79207460015E+02 0.  0.
        -11    1    5    5    0    0 -0.62048336767E+01 -0.65944135696E+01  0.16857807677E+03  0.16882107161E+03  0.00000000000E+00 0.  1.
         12    1    5    5    0    0  0.12038484634E+03  0.28954771726E+02  0.62617319444E+03  0.63829754776E+03  0.00000000000E+00 0. -1.
         11    1    3    3    0    0 -0.27511615217E+02  0.79244635740E+02 -0.11710608041E+03  0.14405011397E+03  0.00000000000E+00 0. -1.
        -12    1    3    3    0    0 -0.41972156288E+02  0.10720296631E+03 -0.39045867207E+03  0.40707752638E+03  0.00000000000E+00 0.  1.
          5    1    4    4  501    0  0.21700422327E+01 -0.18743909170E+03  0.35820399400E+03  0.40430891147E+03  0.41800000000E+01 0.  1.
         -5    1    4    4    0  501 -0.46866283386E+02 -0.21368868507E+02  0.43694289839E+02  0.67673779444E+02  0.41800000000E+01 0.  1.
</event>
<event>
11    1  0.8453735E-009  0.1554631E+03  0.7561462E-02  0.1091424E+00
         22   -1    0    0    0    0  0.00000000000E+00  0.00000000000E+00  0.92480752057E+03  0.92480752057E+03  0.00000000000E+00 0.  1.
         22   -1    0    0    0    0 -0.00000000000E+00 -0.00000000000E+00 -0.67786682995E+03  0.67786682995E+03  0.00000000000E+00 0. -1.
        -24    2    1    2    0    0 -0.67191384193E+01  0.68172377462E+02 -0.57672772661E+03  0.58633322255E+03  0.80493213084E+02 0.  0.
         25    2    1    2    0    0  0.33614921328E+02 -0.15315782561E+03  0.17799186864E+02  0.20137638067E+03  0.12509337776E+03 0.  0.
         24    2    1    2    0    0 -0.26895782909E+02  0.84985448149E+02  0.80586923037E+03  0.81496474730E+03  0.82440362377E+02 0.  0.
        -13    1    5    5    0    0  0.84014019648E+01  0.74512822521E+01  0.40442574099E+03  0.40458161740E+03  0.00000000000E+00 0.  1.
         14    1    5    5    0    0 -0.35297184873E+02  0.77534165897E+02  0.40144348939E+03  0.41038312991E+03  0.00000000000E+00 0. -1.
         11    1    3    3    0    0  0.10702693132E+01  0.17425989590E+02 -0.43900788072E+03  0.43935490202E+03  0.00000000000E+00 0. -1.
        -12    1    3    3    0    0 -0.77894077324E+01  0.50746387872E+02 -0.13771984589E+03  0.14697832053E+03  0.00000000000E+00 0.  1.
          5    1    4    4  501    0  0.77563552216E+02 -0.62532135916E+02  0.63321221996E+01  0.99919671868E+02  0.41800000000E+01 0. -1.
         -5    1    4    4    0  501 -0.43948630888E+02 -0.90625689695E+02  0.11467064665E+02  0.10145670881E+03  0.41800000000E+01 0. -1.
</event>
<event>
11    1  0.8453735E-009  0.1920147E+03  0.7561462E-02  0.1060319E+00
         22   -1    0    0    0    0  0.00000000000E+00  0.00000000000E+00  0.20598382556E+03  0.20598382556E+03  0.00000000000E+00 0. -1.
         22   -1    0    0    0    0 -0.00000000000E+00 -0.00000000000E+00 -0.13240364534E+04  0.13240364534E+04  0.00000000000E+00 0.  1.
         24    2    1    2    0    0  0.27607639085E+02  0.14109715827E+03 -0.98840413650E+03  0.10020163382E+04  0.80146211525E+02 0.  0.
         25    2    1    2    0    0 -0.31216348407E+02 -0.15115193768E+03 -0.28762621937E+03  0.34956897531E+03  0.12509299643E+03 0.  0.
        -24    2    1    2    0    0  0.36087093225E+01  0.10054779418E+02  0.15797772800E+03  0.17843496546E+03  0.82267569451E+02 0.  0.
        -13    1    3    3    0    0  0.26405472197E+02  0.12905887389E+03 -0.64072993362E+03  0.65413170671E+03  0.00000000000E+00 0.  1.
         14    1    3    3    0    0  0.12021668877E+01  0.12038284372E+02 -0.34767420289E+03  0.34788463152E+03  0.00000000000E+00 0. -1.
         11    1    5    5    0    0  0.18435210424E+01 -0.67749516753E+01  0.16107826063E+03  0.16123121468E+03  0.00000000000E+00 0. -1.
        -12    1    5    5    0    0  0.17651882800E+01  0.16829731093E+02 -0.31005326300E+01  0.17203750781E+02  0.00000000000E+00 0.  1.
          5    1    4    4  501    0 -0.69926050969E+01 -0.14005654385E+03 -0.13541097514E+03  0.19498291358E+03  0.41800000000E+01 0.  1.
         -5    1    4    4    0  501 -0.24223743310E+02 -0.11095393838E+02 -0.15221524424E+03  0.15458606173E+03  0.41800000000E+01 0.  1.
</event>
<event>
11    1  0.8453735E-009  0.1279048E+03  0.7561462E-02  0.1121870E+00
         22   -1    0    0    0    0  0.00000000000E+00  0.00000000000E+00  0.26110517874E+03  0.26110517874E+03  0.00000000000E+00 0. -1.
         22   -1    0    0    0    0 -0.00000000000E+00 -0.00000000000E+00 -0.29603750999E+03  0.29603750999E+03  0.00000000000E+00 0. -1.
        -24    2    1    2    0    0  0.25004832920E+02  0.58338314582E+01 -0.13035937138E+03  0.15484826756E+03  0.79530780215E+02 0.  0.
         25    2    1    2    0    0 -0.15207289145E+02 -0.30821552759E+02 -0.11646245378E+03  0.17433466323E+03  0.12509133425E+03 0.  0.
         24    2    1    2    0    0 -0.97975437750E+01  0.24987721301E+02  0.21188949391E+03  0.22795975794E+03  0.79675062158E+02 0.  0.
        -11    1    5    5    0    0  0.13633884982E+02 -0.13174068076E+02  0.10542309680E+02  0.21692837130E+02  0.00000000000E+00 0.  1.
         12    1    5    5    0    0 -0.23431428757E+02  0.38161789377E+02  0.20134718423E+03  0.20626692081E+03  0.00000000000E+00 0. -1.
         11    1    3    3    0    0 -0.81208418943E+01  0.56776825067E+01 -0.11961298697E+03  0.12002270953E+03  0.00000000000E+00 0. -1.
        -12    1    3    3    0    0  0.33125674814E+02  0.15614895145E+00 -0.10746384415E+02  0.34825558034E+02  0.00000000000E+00 0.  1.
          5    1    4    4  501    0  0.37337936440E+02 -0.57711588997E+02 -0.76506093514E+02  0.10293397761E+03  0.41800000000E+01 0. -1.
         -5    1    4    4    0  501 -0.52545225584E+02  0.26890036238E+02 -0.39956360268E+02  0.71400685616E+02  0.41800000000E+01 0. -1.
</event>
<event>
11    1  0.8453735E-009  0.5716893E+03  0.7561462E-02  0.9246212E-01
         22   -1    0    0    0    0  0.00000000000E+00  0.00000000000E+00  0.12998330020E+04  0.12998330020E+04  0.00000000000E+00 0. -1.
         22   -1    0    0    0    0 -0.00000000000E+00 -0.00000000000E+00 -0.23642566886E+04  0.23642566886E+04  0.00000000000E+00 0. -1.
        -24    2    1    2    0    0 -0.13128369495E+03  0.15236169718E+03 -0.13971082706E+04  0.14141431949E+04  0.86255207503E+02 0.  0.
         25    2    1    2    0    0 -0.21340006351E+03  0.19047555366E+03 -0.88390864016E+03  0.93742369929E+03  0.12509270241E+03 0.  0.
         24    2    1    2    0    0  0.34468375846E+03 -0.34283725084E+03  0.12165932241E+04  0.13125227963E+04  0.79200656330E+02 0.  0.
        -11    1    5    5    0    0  0.53863747214E+01 -0.93754856834E+01  0.74936624856E+02  0.75712683939E+02  0.00000000000E+00 0.  1.
         12    1    5    5    0    0  0.33929738374E+03 -0.33346176516E+03  0.11416565993E+04  0.12368101124E+04  0.00000000000E+00 0. -1.
         13    1    3    3    0    0 -0.66560834459E+02  0.32539171323E+02 -0.32028883251E+03  0.32874622217E+03  0.00000000000E+00 0. -1.
        -14    1    3    3    0    0 -0.64722860496E+02  0.11982252586E+03 -0.10768194380E+04  0.10853969728E+04  0.00000000000E+00 0.  1.
          5    1    4    4  501    0 -0.48790264901E+02  0.14552336176E+02 -0.32201820770E+03  0.32604517928E+03  0.41800000000E+01 0. -1.
         -5    1    4    4    0  501 -0.16460979861E+03  0.17592321749E+03 -0.56189043245E+03  0.61137852001E+03  0.41800000000E+01 0. -1.
</event>
<event>
11    1  0.8453735E-009  0.4343984E+03  0.7561462E-02  0.9553383E-01
         22   -1    0    0    0    0  0.00000000000E+00  0.00000000000E+00  0.18170516919E+03  0.18170516919E+03  0.00000000000E+00 0. -1.
         22   -1    0    0    0    0 -0.00000000000E+00 -0.00000000000E+00 -0.23177328389E+04  0.23177328389E+04  0.00000000000E+00 0. -1.
        -24    2    1    2    0    0  0.13828883601E+03  0.18411632021E+03 -0.10055220090E+04  0.10345456512E+04  0.78661123627E+02 0.  0.
         25    2    1    2    0    0  0.31589871129E+03 -0.20637807971E+03 -0.81148135155E+03  0.90362183286E+03  0.12508607172E+03 0.  0.
         24    2    1    2    0    0 -0.45418754729E+03  0.22261759508E+02 -0.31902430921E+03  0.56127052403E+03  0.80412543981E+02 0.  0.
        -11    1    5    5    0    0 -0.12619352372E+02  0.15420246370E+02 -0.10229643632E+02  0.22398162006E+02  0.00000000000E+00 0.  1.
         12    1    5    5    0    0 -0.44156819492E+03  0.68415131379E+01 -0.30879466558E+03  0.53887236203E+03  0.00000000000E+00 0. -1.
         13    1    3    3    0    0  0.10261276803E+03  0.17796393345E+03 -0.80608818796E+03  0.83185257621E+03  0.00000000000E+00 0. -1.
        -14    1    3    3    0    0  0.35676067975E+02  0.61523867553E+01 -0.19943382104E+03  0.20269307503E+03  0.00000000000E+00 0.  1.
          5    1    4    4  501    0 -0.16270139799E+01 -0.11551044809E+02 -0.97509420086E+02  0.98293607199E+02  0.41800000000E+01 0. -1.
         -5    1    4    4    0  501  0.31752572527E+03 -0.19482703491E+03 -0.71397193146E+03  0.80532822566E+03  0.41800000000E+01 0. -1.
</event>
<event>
11    1  0.8453735E-009  0.1384654E+03  0.7561462E-02  0.1109284E+00
         22   -1    0    0    0    0  0.00000000000E+00  0.00000000000E+00  0.48080157905E+03  0.48080157905E+03  0.00000000000E+00 0.  1.
         22   -1    0    0    0    0 -0.00000000000E+00 -0.00000000000E+00 -0.36820831905E+03  0.36820831905E+03  0.00000000000E+00 0.  1.
        -24    2    1    2    0    0 -0.21858030377E+02 -0.60019825574E+01 -0.27010513189E+03  0.28320372790E+03  0.82059563339E+02 0.  0.
         25    2    1    2    0    0  0.54678291632E+02  0.54117481167E+02 -0.22691106503E+02  0.14859906382E+03  0.12509347748E+03 0.  0.
         24    2    1    2    0    0 -0.32820261256E+02 -0.48115498610E+02  0.40538949839E+03  0.41720710639E+03  0.79554091439E+02 0.  0.
        -13    1    5    5    0    0 -0.28263999845E+02 -0.52399063148E+02  0.40651624410E+03  0.41085273788E+03  0.00000000000E+00 0.  1.
         14    1    5    5    0    0 -0.45562614113E+01  0.42835645385E+01 -0.11267457173E+01  0.63543685064E+01  0.00000000000E+00 0. -1.
         11    1    3    3    0    0 -0.46552323014E+02  0.35981998011E+01 -0.92323242341E+02  0.10345843076E+03  0.00000000000E+00 0. -1.
        -12    1    3    3    0    0  0.24694292637E+02 -0.96001823585E+01 -0.17778188955E+03  0.17974529713E+03  0.00000000000E+00 0.  1.
          5    1    4    4  501    0  0.67635324877E+02 -0.15953787978E+02 -0.31988265213E+02  0.76614502761E+02  0.41800000000E+01 0. -1.
         -5    1    4    4    0  501 -0.12957033245E+02  0.70071269145E+02  0.92971587096E+01  0.71984561054E+02  0.41800000000E+01 0. -1.
</event>
<event>
11    1  0.8453735E-009  0.3427584E+03  0.7561462E-02  0.9835606E-01
         22   -1    0    0    0    0  0.00000000000E+00  0.00000000000E+00  0.10223382915E+04  0.10223382915E+04  0.00000000000E+00 0.  1.
         22   -1    0    0    0    0 -0.00000000000E+00 -0.00000000000E+00 -0.40150504582E+03  0.40150504582E+03  0.00000000000E+00 0. -1.
         24    2    1    2    0    0  0.15330610195E+03  0.27776184579E+03 -0.27091543518E+03  0.42463383002E+03  0.79147411291E+02 0.  0.
         25    2    1    2    0    0 -0.19922715908E+03 -0.27473722498E+03  0.69893595219E+03  0.78697602191E+03  0.12509112717E+03 0.  0.
        -24    2    1    2    0    0  0.45921057137E+02 -0.30246208074E+01  0.19281272870E+03  0.21223348541E+03  0.75818283828E+02 0.  0.
        -13    1    3    3    0    0  0.45849462227E+02  0.97807747558E+02 -0.14254445503E+03  0.17885035736E+03  0.00000000000E+00 0.  1.
         14    1    3    3    0    0  0.10745663972E+03  0.17995409823E+03 -0.12837098015E+03  0.24578347266E+03  0.00000000000E+00 0. -1.
         11    1    5    5    0    0 -0.19120909376E+02  0.11000840753E+02  0.43851963690E+02  0.49087904744E+02  0.00000000000E+00 0. -1.
        -12    1    5    5    0    0  0.65041966513E+02 -0.14025461561E+02  0.14896076501E+03  0.16314558067E+03  0.00000000000E+00 0.  1.
          5    1    4    4  501    0 -0.80635166307E+02 -0.16088353993E+03  0.48367573231E+03  0.51608645583E+03  0.41800000000E+01 0. -1.
         -5    1    4    4    0  501 -0.11859199277E+03 -0.11385368505E+03  0.21526021988E+03  0.27088956608E+03  0.41800000000E+01 0. -1.
</event>
<event>
11    1  0.8453735E-009  0.1453548E+03  0.7561462E-02  0.1101722E+00
         22   -1    0    0    0    0  0.00000000000E+00  0.00000000000E+00  0.37425459644E+03  0.37425459644E+03  0.00000000000E+00 0.  1.
         22   -1    0    0    0    0 -0.00000000000E+00 -0.00000000000E+00 -0.10267934432E+04  0.10267934432E+04  0.00000000000E+00 0.  1.
         24    2    1    2    0    0  0.28679566423E+02  0.18727058918E+02 -0.95777389651E+03  0.96187061472E+03  0.81798669626E+02 0.  0.
         25    2    1    2    0    0  0.47268600428E+02  0.70459116629E+01  0.27829330450E+02  0.13677162698E+03  0.12509212947E+03 0.  0.
        -24    2    1    2    0    0 -0.75948166851E+02 -0.25772970581E+02  0.27740571935E+03  0.30240579789E+03  0.89794005424E+02 0.  0.
        -13    1    3    3    0    0 -0.13224791456E+02  0.46003127239E+01 -0.71279217650E+03  0.71292969139E+03  0.00000000000E+00 0.  1.
         14    1    3    3    0    0  0.41904357879E+02  0.14126746195E+02 -0.24498172001E+03  0.24894092333E+03  0.00000000000E+00 0. -1.
         13    1    5    5    0    0 -0.66341515089E+02  0.21893730827E+02  0.18918899310E+03  0.20167549972E+03  0.00000000000E+00 0. -1.
        -14    1    5    5    0    0 -0.96066517620E+01 -0.47666701408E+02  0.88216726246E+02  0.10073029818E+03  0.00000000000E+00 0.  1.
          5    1    4    4  501    0  0.41620893937E+02 -0.41006547230E+02  0.55655342072E+02  0.80801146211E+02  0.41800000000E+01 0.  1.
         -5    1    4    4    0  501  0.56477064906E+01  0.48052458892E+02 -0.27826011622E+02  0.55970480765E+02  0.41800000000E+01 0.  1.
</event>
<event>
11    1  0.8453735E-009  0.3032460E+03  0.7561462E-02  0.9988267E-01
         22   -1    0    0    0    0  0.00000000000E+00  0.00000000000E+00  0.11819648653E+03  0.11819648653E+03  0.00000000000E+00 0. -1.
         22   -1    0    0    0    0 -0.00000000000E+00 -0.00000000000E+00 -0.19110730668E+04  0.19110730668E+04  0.00000000000E+00 0.  1.
         24    2    1    2    0    0 -0.19211549634E+03  0.19791752413E+03 -0.14299650929E+04  0.14584910812E+04  0.79475509932E+02 0.  0.
         25    2    1    2    0    0  0.25664701272E+03 -0.13618006531E+03 -0.22688302915E+03  0.38927572560E+03  0.12508789826E+03 0.  0.
        -24    2    1    2    0    0 -0.64531516383E+02 -0.61737458821E+02 -0.13602845815E+03  0.18150274650E+03  0.80396984589E+02 0.  0.
        -11    1    3    3    0    0 -0.16524071779E+03  0.13375705350E+03 -0.11814196088E+04  0.12003948251E+04  0.00000000000E+00 0.  1.
         12    1    3    3    0    0 -0.26874778550E+02  0.64160470628E+02 -0.24854548412E+03  0.25809625605E+03  0.00000000000E+00 0. -1.
         13    1    5    5    0    0 -0.44520318729E+02 -0.66675124556E+02 -0.13921149993E+03  0.16064704394E+03  0.00000000000E+00 0. -1.
        -14    1    5    5    0    0 -0.20011197654E+02  0.49376657352E+01  0.31830417720E+01  0.20855702563E+02  0.00000000000E+00 0.  1.
          5    1    4    4  501    0  0.13223464237E+03 -0.98619804767E+02 -0.55386900242E+02  0.17406047125E+03  0.41800000000E+01 0. -1.
         -5    1    4    4    0  501  0.12441237035E+03 -0.37560260543E+02 -0.17149612891E+03  0.21521525434E+03  0.41800000000E+01 0. -1.
</event>
<event>
11    1  0.8453735E-009  0.1734920E+03  0.7561462E-02  0.1075032E+00
         22   -1    0    0    0    0  0.00000000000E+00  0.00000000000E+00  0.18177698620E+03  0.18177698620E+03  0.00000000000E+00 0. -1.
         22   -1    0    0    0    0 -0.00000000000E+00 -0.00000000000E+00 -0.29815388308E+03  0.29815388308E+03  0.00000000000E+00 0.  1.
        -24    2    1    2    0    0  0.37601887268E+02  0.30975470443E+02 -0.11441605548E+03  0.14730038377E+03  0.78949272403E+02 0.  0.
         25    2    1    2    0    0 -0.26240817493E+02 -0.14090189614E+03 -0.30780180221E+02  0.19270868535E+03  0.12508914052E+03 0.  0.
         24    2    1    2    0    0 -0.11361069775E+02  0.10992642570E+03  0.28819338820E+02  0.13992180015E+03  0.80837261786E+02 0.  0.
        -13    1    5    5    0    0 -0.39455773429E+02  0.28346730079E+02 -0.11124975845E+01  0.48595604883E+02  0.00000000000E+00 0.  1.
         14    1    5    5    0    0  0.28094703654E+02  0.81579695621E+02  0.29931836405E+02  0.91326195265E+02  0.00000000000E+00 0. -1.
         13    1    3    3    0    0  0.55130086643E+02 -0.22574858043E+01 -0.69638571906E+02  0.88847922837E+02  0.00000000000E+00 0. -1.
        -14    1    3    3    0    0 -0.17528199375E+02  0.33232956247E+02 -0.44777483574E+02  0.58452460936E+02  0.00000000000E+00 0.  1.
          5    1    4    4  501    0 -0.24447697880E+02 -0.16437653601E+03 -0.28823721469E+02  0.16871755938E+03  0.41800000000E+01 0.  1.
         -5    1    4    4    0  501 -0.17931196123E+01  0.23474639868E+02 -0.19564587519E+01  0.23991125978E+02  0.41800000000E+01 0.  1.
</event>
<event>
11    1  0.8453735E-009  0.1543989E+03  0.7561462E-02  0.1092467E+00
         22   -1    0    0    0    0  0.00000000000E+00  0.00000000000E+00  0.20424422182E+03  0.20424422182E+03  0.00000000000E+00 0. -1.
         22   -1    0    0    0    0 -0.00000000000E+00 -0.00000000000E+00 -0.17785409026E+04  0.17785409026E+04  0.00000000000E+00 0. -1.
         24    2    1    2    0    0  0.87273212832E+01  0.66946382042E+02 -0.16281292425E+04  0.16315529692E+04  0.81254395339E+02 0.  0.
         25    2    1    2    0    0 -0.32383538579E+02 -0.14233376334E+03 -0.47938429781E+02  0.19812178763E+03  0.12508619400E+03 0.  0.
        -24    2    1    2    0    0  0.23656217296E+02  0.75387381296E+02  0.10177099157E+03  0.15311036753E+03  0.82719864878E+02 0.  0.
        -13    1    3    3    0    0  0.17762479290E+02 -0.49486660764E+01 -0.81308652078E+03  0.81329557065E+03  0.00000000000E+00 0.  1.
         14    1    3    3    0    0 -0.90351580070E+01  0.71895048118E+02 -0.81504272174E+03  0.81825739856E+03  0.00000000000E+00 0. -1.
         13    1    5    5    0    0  0.17404930662E+02  0.65454067858E+02  0.11620801726E+03  0.13450453481E+03  0.00000000000E+00 0. -1.
        -14    1    5    5    0    0  0.62512866333E+01  0.99333134379E+01 -0.14437025688E+02  0.18605832718E+02  0.00000000000E+00 0.  1.
          5    1    4    4  501    0 -0.15726671358E+01  0.18032044893E+02  0.14166303765E+02  0.23362030889E+02  0.41800000000E+01 0. -1.
         -5    1    4    4    0  501 -0.30810871443E+02 -0.16036580823E+03 -0.62104733545E+02  0.17475975674E+03  0.41800000000E+01 0. -1.
</event>
<event>
11    1  0.8453735E-009  0.1427143E+03  0.7561462E-02  0.1104565E+00
         22   -1    0    0    0    0  0.00000000000E+00  0.00000000000E+00  0.11172970177E+04  0.11172970177E+04  0.00000000000E+00 0. -1.
         22   -1    0    0    0    0 -0.00000000000E+00 -0.00000000000E+00 -0.71169159336E+03  0.71169159336E+03  0.00000000000E+00 0. -1.
        -24    2    1    2    0    0 -0.39970446309E+02  0.47485043697E+02 -0.65567748400E+03  0.66332983915E+03  0.79000294512E+02 0.  0.
         25    2    1    2    0    0 -0.30620590268E+02 -0.40764614450E+02  0.42707929775E+02  0.14169212093E+03  0.12511321085E+03 0.  0.
         24    2    1    2    0    0  0.70591036577E+02 -0.67204292466E+01  0.10185749786E+04  0.10239666510E+04  0.77359270511E+02 0.  0.
        -11    1    5    5    0    0  0.36033051526E+02  0.27454403991E+02  0.72341054380E+03  0.72482752430E+03  0.00000000000E+00 0.  1.
         12    1    5    5    0    0  0.34557985051E+02 -0.34174833238E+02  0.29516443476E+03  0.29913912667E+03  0.00000000000E+00 0. -1.
         13    1    3    3    0    0 -0.22180430179E+02  0.48905973010E+02 -0.62866418143E+03  0.63095357887E+03  0.00000000000E+00 0. -1.
        -14    1    3    3    0    0 -0.17790016130E+02 -0.14209293129E+01 -0.27013302572E+02  0.32376260282E+02  0.00000000000E+00 0.  1.
          5    1    4    4  501    0  0.37619075976E+02  0.81544838890E+01 -0.12999652129E+02  0.40843039067E+02  0.41800000000E+01 0.  1.
         -5    1    4    4    0  501 -0.68239666244E+02 -0.48919098339E+02  0.55707581903E+02  0.10084908186E+03  0.41800000000E+01 0.  1.
</event>
<event>
11    1  0.8453735E-009  0.1352664E+03  0.7561462E-02  0.1112962E+00
         22   -1    0    0    0    0  0.00000000000E+00  0.00000000000E+00  0.80671513453E+03  0.80671513453E+03  0.00000000000E+00 0. -1.
         22   -1    0    0    0    0 -0.00000000000E+00 -0.00000000000E+00 -0.11343100955E+03  0.11343100955E+03  0.00000000000E+00 0.  1.
        -24    2    1    2    0    0  0.15380192705E+02 -0.52183830695E+02 -0.44289025122E+02  0.10846267813E+03  0.82722018149E+02 0.  0.
         25    2    1    2    0    0 -0.41518837173E+02  0.26839727414E+02  0.98809895189E+02  0.16689176389E+03  0.12508109634E+03 0.  0.
         24    2    1    2    0    0  0.26138644468E+02  0.25344103281E+02  0.63876325491E+03  0.64479170206E+03  0.80076781326E+02 0.  0.
        -11    1    5    5    0    0  0.21390649407E+02  0.14224743575E+02  0.52937168287E+02  0.58840861636E+02  0.00000000000E+00 0.  1.
         12    1    5    5    0    0  0.47479950601E+01  0.11119359706E+02  0.58582608663E+03  0.58595084042E+03  0.00000000000E+00 0. -1.
         13    1    3    3    0    0  0.13143145297E+02 -0.14878801621E+02  0.23677555167E+02  0.30898990674E+02  0.00000000000E+00 0. -1.
        -14    1    3    3    0    0  0.22370474079E+01 -0.37305029074E+02 -0.67966580289E+02  0.77563687454E+02  0.00000000000E+00 0.  1.
          5    1    4    4  501    0  0.35630728234E+02  0.80500264258E+01 -0.39294971367E+01  0.36976547536E+02  0.41800000000E+01 0.  1.
         -5    1    4    4    0  501 -0.77149565407E+02  0.18789700988E+02  0.10273939233E+03  0.12991521636E+03  0.41800000000E+01 0.  1.
</event>
<event>
11    1  0.8453735E-009  0.1464784E+03  0.7561462E-02  0.1100532E+00
         22   -1    0    0    0    0  0.00000000000E+00  0.00000000000E+00  0.26135748335E+03  0.26135748335E+03  0.00000000000E+00 0. -1.
         22   -1    0    0    0    0 -0.00000000000E+00 -0.00000000000E+00 -0.99729327343E+03  0.99729327343E+03  0.00000000000E+00 0. -1.
         24    2    1    2    0    0  0.75592968709E+01  0.45094850106E+02 -0.75945831992E+03  0.76528253170E+03  0.82399788540E+02 0.  0.
         25    2    1    2    0    0 -0.27447801388E+02 -0.11587765004E+03 -0.18727763269E+03  0.25475693291E+03  0.12508865488E+03 0.  0.
        -24    2    1    2    0    0  0.19888504518E+02  0.70782799930E+02  0.21080016254E+03  0.23861129217E+03  0.84219254604E+02 0.  0.
        -13    1    3    3    0    0 -0.21002257519E+02  0.58585180342E+02 -0.53651846334E+03  0.54011607983E+03  0.00000000000E+00 0.  1.
         14    1    3    3    0    0  0.28561554390E+02 -0.13490330236E+02 -0.22293985658E+03  0.22516645188E+03  0.00000000000E+00 0. -1.
         13    1    5    5    0    0 -0.30428285680E+02  0.46855075122E+02  0.11289610459E+03  0.12596352275E+03  0.00000000000E+00 0. -1.
        -14    1    5    5    0    0  0.50316790197E+02  0.23927724808E+02  0.97904057950E+02  0.11264776941E+03  0.00000000000E+00 0.  1.
          5    1    4    4  501    0  0.44590333830E+02 -0.19375078787E+02 -0.78457971862E+02  0.92394898656E+02  0.41800000000E+01 0.  1.
         -5    1    4    4    0  501 -0.72038135218E+02 -0.96502571249E+02 -0.10881966083E+03  0.16236203425E+03  0.41800000000E+01 0.  1.
</event>
<event>
11    1  0.8453735E-009  0.2943160E+03  0.7561462E-02  0.1002626E+00
         22   -1    0    0    0    0  0.00000000000E+00  0.00000000000E+00  0.27711062484E+03  0.27711062484E+03  0.00000000000E+00 0. -1.
         22   -1    0    0    0    0 -0.00000000000E+00 -0.00000000000E+00 -0.67033059485E+03  0.67033059485E+03  0.00000000000E+00 0. -1.
         24    2    1    2    0    0 -0.25645948893E+03  0.68056070203E+02 -0.28521462773E+03  0.39837397725E+03  0.83374718708E+02 0.  0.
         25    2    1    2    0    0  0.26879915172E+03 -0.24166209104E+02 -0.24399598880E+03  0.38473186161E+03  0.12509026005E+03 0.  0.
        -24    2    1    2    0    0 -0.12339662788E+02 -0.43889861099E+02  0.13599064652E+03  0.16433538083E+03  0.80212681451E+02 0.  0.
        -13    1    3    3    0    0 -0.75493670730E+02  0.56634113521E+02 -0.73480783801E+02  0.11960828869E+03  0.00000000000E+00 0.  1.
         14    1    3    3    0    0 -0.18096581821E+03  0.11421956682E+02 -0.21173384393E+03  0.27876568856E+03  0.00000000000E+00 0. -1.
         11    1    5    5    0    0 -0.45562640050E+02 -0.31757354711E+02  0.96341650531E+02  0.11120340540E+03  0.00000000000E+00 0. -1.
        -12    1    5    5    0    0  0.33222977261E+02 -0.12132506387E+02  0.39648995989E+02  0.53131975422E+02  0.00000000000E+00 0.  1.
          5    1    4    4  501    0  0.24094940693E+02 -0.24539190226E+01 -0.93335670553E+02  0.96517395754E+02  0.41800000000E+01 0.  1.
         -5    1    4    4    0  501  0.24470421103E+03 -0.21712290081E+02 -0.15066031825E+03  0.28821446586E+03  0.41800000000E+01 0.  1.
</event>
<event>
11    1  0.8453735E-009  0.1310978E+03  0.7561462E-02  0.1117927E+00
         22   -1    0    0    0    0  0.00000000000E+00  0.00000000000E+00  0.18504429099E+04  0.18504429099E+04  0.00000000000E+00 0.  1.
         22   -1    0    0    0    0 -0.00000000000E+00 -0.00000000000E+00 -0.53709078948E+03  0.53709078948E+03  0.00000000000E+00 0.  1.
        -24    2    1    2    0    0  0.34062269914E+02  0.22292678120E+01 -0.38172833113E+03  0.39196616822E+03  0.82193371851E+02 0.  0.
         25    2    1    2    0    0 -0.74287776846E+02 -0.84603502087E+01 -0.11355886441E+03  0.18475136738E+03  0.12508877146E+03 0.  0.
         24    2    1    2    0    0  0.40225506932E+02  0.62310823967E+01  0.18086393159E+04  0.18108161637E+04  0.78880200076E+02 0.  0.
        -11    1    5    5    0    0  0.53058349828E+02  0.23485749831E+02  0.16042061488E+04  0.16052551625E+04  0.00000000000E+00 0.  1.
         12    1    5    5    0    0 -0.12832842895E+02 -0.17254667434E+02  0.20443316716E+03  0.20556100127E+03  0.00000000000E+00 0. -1.
         13    1    3    3    0    0  0.97983553357E+01 -0.30009465697E+02 -0.60759648893E+02  0.68471240184E+02  0.00000000000E+00 0. -1.
        -14    1    3    3    0    0  0.24263914578E+02  0.32238733509E+02 -0.32096868224E+03  0.32349492804E+03  0.00000000000E+00 0.  1.
          5    1    4    4  501    0 -0.74952638618E+02  0.37831660809E+02 -0.10956058799E+03  0.13809463217E+03  0.41800000000E+01 0.  1.
         -5    1    4    4    0  501  0.66486177163E+00 -0.46292011017E+02 -0.39982764271E+01  0.46656735201E+02  0.41800000000E+01 0.  1.
</event>
<event>
11    1  0.8453735E-009  0.1536722E+03  0.7561462E-02  0.1093185E+00
         22   -1    0    0    0    0  0.00000000000E+00  0.00000000000E+00  0.73737443229E+03  0.73737443229E+03  0.00000000000E+00 0. -1.
         22   -1    0    0    0    0 -0.00000000000E+00 -0.00000000000E+00 -0.42114634908E+03  0.42114634908E+03  0.00000000000E+00 0.  1.
         24    2    1    2    0    0 -0.85125994502E+02  0.27305165667E+02 -0.39525241893E+03  0.41331265942E+03  0.81307273693E+02 0.  0.
         25    2    1    2    0    0  0.82659812908E+02 -0.11755763722E+02  0.43072644352E+03  0.45622853517E+03  0.12509342313E+03 0.  0.
        -24    2    1    2    0    0  0.24661815933E+01 -0.15549401945E+02  0.28075405862E+03  0.28897958678E+03  0.66622024838E+02 0.  0.
        -13    1    3    3    0    0 -0.81631132658E+02 -0.53163408358E+01 -0.33349650054E+03  0.34338290751E+03  0.00000000000E+00 0.  1.
         14    1    3    3    0    0 -0.34948618439E+01  0.32621506502E+02 -0.61755918385E+02  0.69929751904E+02  0.00000000000E+00 0. -1.
         13    1    5    5    0    0  0.23148207168E+02 -0.73055907480E+01  0.24909860395E+03  0.25027849616E+03  0.00000000000E+00 0. -1.
        -14    1    5    5    0    0 -0.20682025574E+02 -0.82438111965E+01  0.31655454667E+02  0.38701090618E+02  0.00000000000E+00 0.  1.
          5    1    4    4  501    0  0.11195981476E+03  0.17850188958E+01  0.37806790625E+03  0.39432347198E+03  0.41800000000E+01 0. -1.
         -5    1    4    4    0  501 -0.29300001853E+02 -0.13540782618E+02  0.52658537264E+02  0.61905063196E+02  0.41800000000E+01 0. -1.
</event>
<event>
11    1  0.8453735E-009  0.1547965E+03  0.7561462E-02  0.1092076E+00
         22   -1    0    0    0    0  0.00000000000E+00  0.00000000000E+00  0.12169459254E+04  0.12169459254E+04  0.00000000000E+00 0. -1.
         22   -1    0    0    0    0 -0.00000000000E+00 -0.00000000000E+00 -0.71064311387E+03  0.71064311387E+03  0.00000000000E+00 0. -1.
        -24    2    1    2    0    0 -0.68053313873E+02 -0.20825063314E+02 -0.68552727465E+03  0.69366177338E+03  0.78447911207E+02 0.  0.
         25    2    1    2    0    0 -0.33263526894E+02  0.46561917705E+02  0.27394338406E+03  0.30653929147E+03  0.12508750994E+03 0.  0.
         24    2    1    2    0    0  0.10131684077E+03 -0.25736854392E+02  0.91788670211E+03  0.92738797440E+03  0.81270962030E+02 0.  0.
        -13    1    5    5    0    0  0.21331981127E+02  0.79609572701E+01  0.47400661820E+02  0.52585672958E+02  0.00000000000E+00 0.  1.
         14    1    5    5    0    0  0.79984859640E+02 -0.33697811662E+02  0.87048604029E+03  0.87480230145E+03  0.00000000000E+00 0. -1.
         11    1    3    3    0    0 -0.69374528607E+02 -0.30625089181E+02 -0.35605097661E+03  0.36403711247E+03  0.00000000000E+00 0. -1.
        -12    1    3    3    0    0  0.13212147339E+01  0.98000258674E+01 -0.32947629803E+03  0.32962466091E+03  0.00000000000E+00 0.  1.
          5    1    4    4  501    0  0.17229980040E+02  0.59416960280E+02  0.23012133387E+03  0.23832865560E+03  0.41800000000E+01 0. -1.
         -5    1    4    4    0  501 -0.50493506934E+02 -0.12855042574E+02  0.43822050195E+02  0.68210635867E+02  0.41800000000E+01 0. -1.
</event>
<event>
11    1  0.8453735E-009  0.1616854E+03  0.7561462E-02  0.1085503E+00
         22   -1    0    0    0    0  0.00000000000E+00  0.00000000000E+00  0.51084192635E+03  0.51084192635E+03  0.00000000000E+00 0.  1.
         22   -1    0    0    0    0 -0.00000000000E+00 -0.00000000000E+00 -0.70749492039E+03  0.70749492039E+03  0.00000000000E+00 0. -1.
         24    2    1    2    0    0 -0.56997171132E+02  0.26003710729E+02 -0.57680709097E+03  0.58500365492E+03  0.74819687170E+02 0.  0.
         25    2    1    2    0    0  0.12688904439E+03 -0.94668511186E+02 -0.30044069898E+02  0.20399325930E+03  0.12509055563E+03 0.  0.
        -24    2    1    2    0    0 -0.69891873260E+02  0.68664800457E+02  0.41019816682E+03  0.42933993251E+03  0.80439497855E+02 0.  0.
        -11    1    3    3    0    0  0.14865634572E+02 -0.92748302587E+01 -0.10652056699E+03  0.10795202990E+03  0.00000000000E+00 0.  1.
         12    1    3    3    0    0 -0.71862805704E+02  0.35278540988E+02 -0.47028652398E+03  0.47705162502E+03  0.00000000000E+00 0. -1.
         11    1    5    5    0    0 -0.25421657500E+02  0.64358879757E+02  0.14819311078E+03  0.16355281763E+03  0.00000000000E+00 0. -1.
        -12    1    5    5    0    0 -0.44470215759E+02  0.43059207005E+01  0.26200505604E+03  0.26578711488E+03  0.00000000000E+00 0.  1.
          5    1    4    4  501    0  0.12739740105E+01 -0.46539595149E+02  0.31126408560E+02  0.56159439422E+02  0.41800000000E+01 0. -1.
         -5    1    4    4    0  501  0.12561507038E+03 -0.48128916038E+02 -0.61170478458E+02  0.14783381988E+03  0.41800000000E+01 0. -1.
</event>
<event>
11    1  0.8453735E-009  0.1354011E+03  0.7561462E-02  0.1112805E+00
         22   -1    0    0    0    0  0.00000000000E+00  0.00000000000E+00  0.72675502613E+03  0.72675502613E+03  0.00000000000E+00 0.  1.
         22   -1    0    0    0    0 -0.00000000000E+00 -0.00000000000E+00 -0.47055215668E+03  0.47055215668E+03  0.00000000000E+00 0.  1.
        -24    2    1    2    0    0  0.43806326534E+02  0.38340885366E+02 -0.33641222207E+03  0.35555094752E+03  0.99268702949E+02 0.  0.
         25    2    1    2    0    0 -0.32567056221E+02 -0.57618357800E+01 -0.87564628680E+02  0.15623229880E+03  0.12508858897E+03 0.  0.
         24    2    1    2    0    0 -0.11239270313E+02 -0.32579049586E+02  0.68017972020E+03  0.68552393649E+03  0.78172246085E+02 0.  0.
        -13    1    5    5    0    0 -0.21730561220E+02  0.69229841292E+01  0.50982519459E+03  0.51033506056E+03  0.00000000000E+00 0.  1.
         14    1    5    5    0    0  0.10491290907E+02 -0.39502033715E+02  0.17035452561E+03  0.17518887593E+03  0.00000000000E+00 0. -1.
         11    1    3    3    0    0  0.16069620024E+02  0.10184889629E+02 -0.23627787070E+01  0.19171525440E+02  0.00000000000E+00 0. -1.
        -12    1    3    3    0    0  0.27736706509E+02  0.28155995737E+02 -0.33404944336E+03  0.33637942208E+03  0.00000000000E+00 0.  1.
          5    1    4    4  501    0  0.46483038314E+02 -0.41087647143E+01 -0.50247941977E+02  0.68701403707E+02  0.41800000000E+01 0. -1.
         -5    1    4    4    0  501 -0.79050094535E+02 -0.16530710658E+01 -0.37316686703E+02  0.87530895097E+02  0.41800000000E+01 0. -1.
</event>
<event>
11    1  0.8800280E-009  0.1520490E+03  0.7561462E-02  0.1094803E+00
         22   -1    0    0    0    0  0.00000000000E+00  0.00000000000E+00  0.12654921685E+03  0.12654921685E+03  0.00000000000E+00 0.  1.
         22   -1    0    0    0    0 -0.00000000000E+00 -0.00000000000E+00 -0.16673671990E+04  0.16673671990E+04  0.00000000000E+00 0. -1.
         24    2    1    2    0    0  0.90614295688E+02 -0.11873927200E+02 -0.11868488989E+04  0.11938302334E+04  0.90930614617E+02 0.  0.
         25    2    1    2    0    0 -0.69942263065E+02 -0.61722494392E+02 -0.43593969290E+03  0.46302531323E+03  0.12508972129E+03 0.  0.
        -24    2    1    2    0    0 -0.20672032622E+02  0.73596421592E+02  0.81970609696E+02  0.13706086915E+03  0.78884312731E+02 0.  0.
        -13    1    3    3    0    0  0.48868559873E+02 -0.28266666498E+02 -0.26771289212E+03  0.27360068199E+03  0.00000000000E+00 0.  1.
         14    1    3    3    0    0  0.41745735815E+02  0.16392739298E+02 -0.91913600680E+03  0.92022955145E+03  0.00000000000E+00 0. -1.
         11    1    5    5    0    0  0.16123408924E+02  0.32390359958E+02 -0.23470593796E+01  0.36257529167E+02  0.00000000000E+00 0. -1.
        -12    1    5    5    0    0 -0.36795441546E+02  0.41206061634E+02  0.84317669076E+02  0.10080333999E+03  0.00000000000E+00 0.  1.
          5    1    4    4  501    0 -0.24411272944E+02 -0.95838343334E+02 -0.27871757057E+03  0.29577331665E+03  0.41800000000E+01 0.  1.
         -5    1    4    4    0  501 -0.45530990121E+02  0.34115848942E+02 -0.15722212233E+03  0.16725199658E+03  0.41800000000E+01 0.  1.
</event>
<event>
11    1  0.8453735E-009  0.1294003E+03  0.7561462E-02  0.1120008E+00
         22   -1    0    0    0    0  0.00000000000E+00  0.00000000000E+00  0.57810381023E+02  0.57810381023E+02  0.00000000000E+00 0.  1.
         22   -1    0    0    0    0 -0.00000000000E+00 -0.00000000000E+00 -0.11698523921E+04  0.11698523921E+04  0.00000000000E+00 0. -1.
        -24    2    1    2    0    0 -0.26201330275E+02 -0.19352271973E+02 -0.90765543700E+03  0.91201229434E+03  0.82867439762E+02 0.  0.
         25    2    1    2    0    0  0.49414819018E+02 -0.43763733449E+01 -0.18201811274E+03  0.22636147487E+03  0.12509175415E+03 0.  0.
         24    2    1    2    0    0 -0.23213488743E+02  0.23728645318E+02 -0.22368461302E+02  0.89289003880E+02  0.79813930392E+02 0.  0.
        -13    1    5    5    0    0 -0.48842030027E+01  0.47502917357E+02  0.58232212781E+01  0.48107094097E+02  0.00000000000E+00 0.  1.
         14    1    5    5    0    0 -0.18329285741E+02 -0.23774272039E+02 -0.28191682580E+02  0.41181909784E+02  0.00000000000E+00 0. -1.
         13    1    3    3    0    0  0.10800396290E+02 -0.12231302587E+02 -0.73978204214E+03  0.73996197416E+03  0.00000000000E+00 0. -1.
        -14    1    3    3    0    0 -0.37001726565E+02 -0.71209693855E+01 -0.16787339486E+03  0.17205032019E+03  0.00000000000E+00 0.  1.
          5    1    4    4  501    0 -0.24876624549E+02 -0.43165874138E+02 -0.57343712574E+02  0.76078334043E+02  0.41800000000E+01 0. -1.
         -5    1    4    4    0  501  0.74291443568E+02  0.38789500793E+02 -0.12467440017E+03  0.15028314082E+03  0.41800000000E+01 0. -1.
</event>
<event>
11    1  0.8453735E-009  0.1448504E+03  0.7561462E-02  0.1102260E+00
         22   -1    0    0    0    0  0.00000000000E+00  0.00000000000E+00  0.19503058402E+04  0.19503058402E+04  0.00000000000E+00 0. -1.
         22   -1    0    0    0    0 -0.00000000000E+00 -0.00000000000E+00 -0.33674295792E+03  0.33674295792E+03  0.00000000000E+00 0.  1.
        -24    2    1    2    0    0  0.67652506605E+02  0.26529687296E+02 -0.31172159103E+03  0.33062197229E+03  0.82824225270E+02 0.  0.
         25    2    1    2    0    0 -0.68829504847E+02 -0.71665093920E+02  0.43439268341E+03  0.46283668341E+03  0.12508959061E+03 0.  0.
         24    2    1    2    0    0  0.11769982428E+01  0.45135406624E+02  0.14908917898E+04  0.14935901424E+04  0.77553814208E+02 0.  0.
        -13    1    5    5    0    0 -0.25855349634E+02  0.31790130788E+02  0.36468362136E+03  0.36697854871E+03  0.00000000000E+00 0.  1.
         14    1    5    5    0    0  0.27032347877E+02  0.13345275835E+02  0.11262081685E+04  0.11266115937E+04  0.00000000000E+00 0. -1.
         11    1    3    3    0    0 -0.12102294543E+02 -0.96610672020E+01 -0.16265194371E+02  0.22457922892E+02  0.00000000000E+00 0. -1.
        -12    1    3    3    0    0  0.79754801148E+02  0.36190754498E+02 -0.29545639665E+03  0.30816404940E+03  0.00000000000E+00 0.  1.
          5    1    4    4  501    0 -0.26270184773E+02 -0.42496746769E+02  0.37566003142E+02  0.62648009434E+02  0.41800000000E+01 0. -1.
         -5    1    4    4    0  501 -0.42559320074E+02 -0.29168347150E+02  0.39682668027E+03  0.40018867397E+03  0.41800000000E+01 0. -1.
</event>
<event>
11    1  0.8453735E-009  0.1588900E+03  0.7561462E-02  0.1088126E+00
         22   -1    0    0    0    0  0.00000000000E+00  0.00000000000E+00  0.91905919493E+03  0.91905919493E+03  0.00000000000E+00 0. -1.
         22   -1    0    0    0    0 -0.00000000000E+00 -0.00000000000E+00 -0.18838088532E+03  0.18838088532E+03  0.00000000000E+00 0.  1.
         24    2    1    2    0    0 -0.64026710334E+02  0.75302782988E+02 -0.12606747816E+03  0.17945821505E+03  0.80884566739E+02 0.  0.
         25    2    1    2    0    0  0.64584163059E+02 -0.66064947420E+02  0.14781359525E+03  0.21454306482E+03  0.12507668178E+03 0.  0.
        -24    2    1    2    0    0 -0.55745272530E+00 -0.92378355684E+01  0.70893219251E+03  0.71343880038E+03  0.79526221793E+02 0.  0.
        -13    1    3    3    0    0 -0.52300288787E+02  0.73758158157E+02 -0.51699942790E+02  0.10415598968E+03  0.00000000000E+00 0.  1.
         14    1    3    3    0    0 -0.11726421546E+02  0.15446248314E+01 -0.74367535371E+02  0.75302225368E+02  0.00000000000E+00 0. -1.
         13    1    5    5    0    0  0.31049148506E+02  0.82081765451E+01  0.52592647230E+03  0.52690613780E+03  0.00000000000E+00 0. -1.
        -14    1    5    5    0    0 -0.31606601232E+02 -0.17446012113E+02  0.18300572021E+03  0.18653266258E+03  0.00000000000E+00 0.  1.
          5    1    4    4  501    0  0.26127148983E+02 -0.16843341423E+02 -0.18791778544E+02  0.36564045251E+02  0.41800000000E+01 0.  1.
         -5    1    4    4    0  501  0.38457014077E+02 -0.49221605997E+02  0.16660537380E+03  0.17797901957E+03  0.41800000000E+01 0.  1.
</event>
<event>
11    1  0.8453735E-009  0.1794993E+03  0.7561462E-02  0.1070049E+00
         22   -1    0    0    0    0  0.00000000000E+00  0.00000000000E+00  0.19927090459E+03  0.19927090459E+03  0.00000000000E+00 0.  1.
         22   -1    0    0    0    0 -0.00000000000E+00 -0.00000000000E+00 -0.10413506866E+04  0.10413506866E+04  0.00000000000E+00 0. -1.
         24    2    1    2    0    0  0.26497629460E+02  0.39175887765E+02 -0.66509208046E+03  0.67150544464E+03  0.79594045849E+02 0.  0.
         25    2    1    2    0    0  0.10457621108E+03 -0.32575617589E+02 -0.31940427446E+03  0.36008478549E+03  0.12507840508E+03 0.  0.
        -24    2    1    2    0    0 -0.13107384054E+03 -0.66002701758E+01  0.14241657296E+03  0.20903136101E+03  0.78662026362E+02 0.  0.
        -11    1    3    3    0    0  0.48386846796E+02  0.26208390178E+02 -0.58224919331E+03  0.58484381656E+03  0.00000000000E+00 0.  1.
         12    1    3    3    0    0 -0.21889217336E+02  0.12967497587E+02 -0.82842887158E+02  0.86661628082E+02  0.00000000000E+00 0. -1.
         11    1    5    5    0    0 -0.36191699645E+02  0.32450298139E+02  0.31437778335E+02  0.57889505777E+02  0.00000000000E+00 0. -1.
        -12    1    5    5    0    0 -0.94882140893E+02 -0.39050568315E+02  0.11097879462E+03  0.15114185523E+03  0.00000000000E+00 0.  1.
          5    1    4    4  501    0  0.10578249321E+02 -0.10288087760E+02  0.89717604414E+01  0.17768201763E+02  0.41800000000E+01 0. -1.
         -5    1    4    4    0  501  0.93997961757E+02 -0.22287529829E+02 -0.32837603490E+03  0.34231658373E+03  0.41800000000E+01 0. -1.
</event>
<event>
11    1  0.8453735E-009  0.1633407E+03  0.7561462E-02  0.1083977E+00
         22   -1    0    0    0    0  0.00000000000E+00  0.00000000000E+00  0.63029344493E+03  0.63029344493E+03  0.00000000000E+00 0.  1.
         22   -1    0    0    0    0 -0.00000000000E+00 -0.00000000000E+00 -0.41423257977E+03  0.41423257977E+03  0.00000000000E+00 0. -1.
        -24    2    1    2    0    0  0.43173204314E+02  0.94342182437E+02 -0.34985744014E+03  0.37350792752E+03  0.79646535016E+02 0.  0.
         25    2    1    2    0    0 -0.31150084696E+02 -0.12014497542E+03  0.11115859627E+03  0.20834909547E+03  0.12509184292E+03 0.  0.
         24    2    1    2    0    0 -0.12023119619E+02  0.25802792980E+02  0.45475970903E+03  0.46266900171E+03  0.80286192204E+02 0.  0.
        -11    1    5    5    0    0  0.24349249895E+02  0.33443382995E+02  0.32721139918E+03  0.32981607843E+03  0.00000000000E+00 0.  1.
         12    1    5    5    0    0 -0.36372369514E+02 -0.76405900146E+01  0.12754830985E+03  0.13285292328E+03  0.00000000000E+00 0. -1.
         13    1    3    3    0    0  0.65642189640E+02  0.60663436617E+02 -0.21923182669E+03  0.23675207166E+03  0.00000000000E+00 0. -1.
        -14    1    3    3    0    0 -0.22468985326E+02  0.33678745820E+02 -0.13062561345E+03  0.13675585585E+03  0.00000000000E+00 0.  1.
          5    1    4    4  501    0  0.38297504693E+02 -0.69440757187E+02  0.89352587269E+02  0.11954110120E+03  0.41800000000E+01 0.  1.
         -5    1    4    4    0  501 -0.69447589388E+02 -0.50704218231E+02  0.21806008999E+02  0.88807994273E+02  0.41800000000E+01 0.  1.
</event>
<event>
11    1  0.8453735E-009  0.1498731E+03  0.7561462E-02  0.1097009E+00
         22   -1    0    0    0    0  0.00000000000E+00  0.00000000000E+00  0.27195891511E+04  0.27195891511E+04  0.00000000000E+00 0.  1.
         22   -1    0    0    0    0 -0.00000000000E+00 -0.00000000000E+00 -0.58919639442E+02  0.58919639442E+02  0.00000000000E+00 0. -1.
        -24    2    1    2    0    0 -0.74684895006E+01 -0.10659824493E+02  0.48390238277E+01  0.82575883343E+02  0.81399939586E+02 0.  0.
         25    2    1    2    0    0 -0.28563494993E+02  0.84438727710E+02  0.29785883115E+03  0.33512991729E+03  0.12508559543E+03 0.  0.
         24    2    1    2    0    0  0.36031984494E+02 -0.73778903218E+02  0.23579716567E+04  0.23608029899E+04  0.81355964736E+02 0.  0.
        -13    1    5    5    0    0  0.69880632782E+01 -0.37429383601E+02  0.19180124450E+04  0.19183903490E+04  0.00000000000E+00 0.  1.
         14    1    5    5    0    0  0.29043921216E+02 -0.36349519617E+02  0.43995921166E+03  0.44241264093E+03  0.00000000000E+00 0. -1.
         13    1    3    3    0    0 -0.33639564235E+01 -0.42753804804E+02 -0.14027394726E+02  0.45121744546E+02  0.00000000000E+00 0. -1.
        -14    1    3    3    0    0 -0.41045330772E+01  0.32093980311E+02  0.18866418554E+02  0.37454138797E+02  0.00000000000E+00 0.  1.
          5    1    4    4  501    0  0.21341999120E+02 -0.73497118716E+01  0.41029907667E+01  0.23319651032E+02  0.41800000000E+01 0. -1.
         -5    1    4    4    0  501 -0.49905494113E+02  0.91788439582E+02  0.29375584038E+03  0.31181026625E+03  0.41800000000E+01 0. -1.
</event>
<event>
11    1  0.8453735E-009  0.1728790E+03  0.7561462E-02  0.1075553E+00
         22   -1    0    0    0    0  0.00000000000E+00  0.00000000000E+00  0.15153984875E+04  0.15153984875E+04  0.00000000000E+00 0. -1.
         22   -1    0    0    0    0 -0.00000000000E+00 -0.00000000000E+00 -0.30798765613E+02  0.30798765613E+02  0.00000000000E+00 0.  1.
        -24    2    1    2    0    0 -0.38977238949E+02  0.39267649449E+02  0.31561119679E+03  0.33229905816E+03  0.88040121903E+02 0.  0.
         25    2    1    2    0    0 -0.58779133084E+02  0.62280458079E+02  0.40651373418E+03  0.43386222548E+03  0.12509665335E+03 0.  0.
         24    2    1    2    0    0  0.97756372033E+02 -0.10154810753E+03  0.76247479097E+03  0.78003596952E+03  0.84970468233E+02 0.  0.
        -11    1    5    5    0    0  0.21376772161E+02 -0.53095240888E+02  0.14360889327E+03  0.15459490683E+03  0.00000000000E+00 0.  1.
         12    1    5    5    0    0  0.76379599872E+02 -0.48452866639E+02  0.61886589770E+03  0.62544106269E+03  0.00000000000E+00 0. -1.
         11    1    3    3    0    0 -0.56268996870E+02 -0.52759287333E+00  0.22357527536E+03  0.23054800393E+03  0.00000000000E+00 0. -1.
        -12    1    3    3    0    0  0.17291757921E+02  0.39795242323E+02  0.92035921425E+02  0.10175105423E+03  0.00000000000E+00 0.  1.
          5    1    4    4  501    0  0.16022690960E+02  0.64628183548E+02  0.27004068497E+03  0.27815997677E+03  0.41800000000E+01 0.  1.
         -5    1    4    4    0  501 -0.74801824043E+02 -0.23477254697E+01  0.13647304921E+03  0.15570224872E+03  0.41800000000E+01 0.  1.
</event>
<event>
11    1  0.8453735E-009  0.1422268E+03  0.7561462E-02  0.1105097E+00
         22   -1    0    0    0    0  0.00000000000E+00  0.00000000000E+00  0.10023660410E+04  0.10023660410E+04  0.00000000000E+00 0. -1.
         22   -1    0    0    0    0 -0.00000000000E+00 -0.00000000000E+00 -0.13889523426E+03  0.13889523426E+03  0.00000000000E+00 0.  1.
        -24    2    1    2    0    0 -0.26590510393E+02 -0.13476192577E+01 -0.95761381462E+02  0.12773580616E+03  0.80232927621E+02 0.  0.
         25    2    1    2    0    0  0.83199079996E+02 -0.29869066650E+02  0.22567335979E+03  0.27274614501E+03  0.12509095188E+03 0.  0.
         24    2    1    2    0    0 -0.56608569603E+02  0.31216685908E+02  0.73355882844E+03  0.74077932412E+03  0.80414181715E+02 0.  0.
        -13    1    5    5    0    0  0.66823588114E+01 -0.13912561788E+02  0.39940503902E+02  0.42818887733E+02  0.00000000000E+00 0.  1.
         14    1    5    5    0    0 -0.63290928414E+02  0.45129247696E+02  0.69361832454E+03  0.69796043638E+03  0.00000000000E+00 0. -1.
         11    1    3    3    0    0 -0.32301389814E+02 -0.16792189099E+02 -0.65159672193E+01  0.36983986095E+02  0.00000000000E+00 0. -1.
        -12    1    3    3    0    0  0.57108794214E+01  0.15444569841E+02 -0.89245414242E+02  0.90751820063E+02  0.00000000000E+00 0.  1.
          5    1    4    4  501    0  0.32444865114E+02 -0.17091662164E+02 -0.40210492645E+01  0.37127286798E+02  0.41800000000E+01 0. -1.
         -5    1    4    4    0  501  0.50754214882E+02 -0.12777404486E+02  0.22969440905E+03  0.23561885821E+03  0.41800000000E+01 0. -1.
</event>
<event>
11    1  0.8453735E-009  0.1490791E+03  0.7561462E-02  0.1097823E+00
         22   -1    0    0    0    0  0.00000000000E+00  0.00000000000E+00  0.14147747990E+03  0.14147747990E+03  0.00000000000E+00 0.  1.
         22   -1    0    0    0    0 -0.00000000000E+00 -0.00000000000E+00 -0.18733077704E+04  0.18733077704E+04  0.00000000000E+00 0.  1.
         24    2    1    2    0    0 -0.72714845719E+02 -0.24323025525E+02 -0.13152217019E+04  0.13200242949E+04  0.82322267118E+02 0.  0.
         25    2    1    2    0    0  0.96203338324E+02  0.38729911384E+02 -0.52908447622E+03  0.55347373025E+03  0.12509076209E+03 0.  0.
        -24    2    1    2    0    0 -0.23488492606E+02 -0.14406885859E+02  0.11247588757E+03  0.14128722518E+03  0.80944345511E+02 0.  0.
        -13    1    3    3    0    0 -0.60044531898E+02  0.11874863872E+02 -0.10767651226E+04  0.10785033553E+04  0.00000000000E+00 0.  1.
         14    1    3    3    0    0 -0.12670313820E+02 -0.36197889398E+02 -0.23845657930E+03  0.24152093959E+03  0.00000000000E+00 0. -1.
         13    1    5    5    0    0 -0.10716687964E+01  0.26883369645E+02  0.10267296569E+02  0.28797246679E+02  0.00000000000E+00 0. -1.
        -14    1    5    5    0    0 -0.22416823809E+02 -0.41290255504E+02  0.10220859100E+03  0.11248997850E+03  0.00000000000E+00 0.  1.
          5    1    4    4  501    0  0.29595844645E+01 -0.94050731459E+01 -0.31337842183E+03  0.31356135319E+03  0.41800000000E+01 0.  1.
         -5    1    4    4    0  501  0.93243753860E+02  0.48134984530E+02 -0.21570605438E+03  0.23991237706E+03  0.41800000000E+01 0.  1.
</event>
<event>
11    1  0.8453735E-009  0.2210399E+03  0.7561462E-02  0.1040568E+00
         22   -1    0    0    0    0  0.00000000000E+00  0.00000000000E+00  0.35675500966E+03  0.35675500966E+03  0.00000000000E+00 0.  1.
         22   -1    0    0    0    0 -0.00000000000E+00 -0.00000000000E+00 -0.15200483884E+04  0.15200483884E+04  0.00000000000E+00 0. -1.
        -24    2    1    2    0    0  0.16087486817E+03 -0.81559200467E+02 -0.13509483512E+04  0.13653827481E+04  0.81706639965E+02 0.  0.
         25    2    1    2    0    0 -0.22851662036E+03  0.16664303508E+02 -0.27221985158E+02  0.26246712642E+03  0.12510160345E+03 0.  0.
         24    2    1    2    0    0  0.67641752184E+02  0.64894896960E+02  0.21487695755E+03  0.24895352353E+03  0.83779446783E+02 0.  0.
        -11    1    5    5    0    0  0.15928773396E+02  0.68699229964E+02  0.94755303466E+02  0.11811806616E+03  0.00000000000E+00 0.  1.
         12    1    5    5    0    0  0.51712978788E+02 -0.38043330045E+01  0.12012165408E+03  0.13083545737E+03  0.00000000000E+00 0. -1.
         13    1    3    3    0    0  0.16181881483E+03 -0.83465585737E+02 -0.11420126454E+04  0.11564362131E+04  0.00000000000E+00 0. -1.
        -14    1    3    3    0    0 -0.94394665652E+00  0.19063852701E+01 -0.20893570582E+03  0.20894653504E+03  0.00000000000E+00 0.  1.
          5    1    4    4  501    0 -0.14071017729E+03 -0.48449215080E+02 -0.34530969191E+02  0.15282846812E+03  0.41800000000E+01 0. -1.
         -5    1    4    4    0  501 -0.87806443072E+02  0.65113518588E+02  0.73089840322E+01  0.10963865831E+03  0.41800000000E+01 0. -1.
</event>
<event>
11    1  0.8453735E-009  0.1389168E+03  0.7561462E-02  0.1108774E+00
         22   -1    0    0    0    0  0.00000000000E+00  0.00000000000E+00  0.17939155576E+03  0.17939155576E+03  0.00000000000E+00 0. -1.
         22   -1    0    0    0    0 -0.00000000000E+00 -0.00000000000E+00 -0.37071902262E+03  0.37071902262E+03  0.00000000000E+00 0.  1.
        -24    2    1    2    0    0 -0.12432087736E+01  0.12120441603E+02 -0.20789942933E+03  0.22335614438E+03  0.80730067785E+02 0.  0.
         25    2    1    2    0    0  0.40705812631E+02  0.34960292412E+02 -0.10261730072E+03  0.17045863632E+03  0.12508657427E+03 0.  0.
         24    2    1    2    0    0 -0.39462603857E+02 -0.47080734015E+02  0.11918926319E+03  0.15629579767E+03  0.80301950738E+02 0.  0.
        -13    1    5    5    0    0 -0.71279937958E+01 -0.50340102074E+02  0.24997356895E+02  0.56655114722E+02  0.00000000000E+00 0.  1.
         14    1    5    5    0    0 -0.32334610061E+02  0.32593680587E+01  0.94191906294E+02  0.99640682952E+02  0.00000000000E+00 0. -1.
         13    1    3    3    0    0  0.13457630752E+02  0.34936755591E+02 -0.46540055311E+02  0.59729904278E+02  0.00000000000E+00 0. -1.
        -14    1    3    3    0    0 -0.14700839525E+02 -0.22816313988E+02 -0.16135937402E+03  0.16362624010E+03  0.00000000000E+00 0.  1.
          5    1    4    4  501    0 -0.36736126915E+02  0.37808182128E+02 -0.18536123569E+02  0.56036255527E+02  0.41800000000E+01 0. -1.
         -5    1    4    4    0  501  0.77441939546E+02 -0.28478897152E+01 -0.84081177149E+02  0.11442238080E+03  0.41800000000E+01 0. -1.
</event>
<event>
11    1  0.8453735E-009  0.1371285E+03  0.7561462E-02  0.1110808E+00
         22   -1    0    0    0    0  0.00000000000E+00  0.00000000000E+00  0.66123722174E+03  0.66123722174E+03  0.00000000000E+00 0. -1.
         22   -1    0    0    0    0 -0.00000000000E+00 -0.00000000000E+00 -0.14977695593E+04  0.14977695593E+04  0.00000000000E+00 0. -1.
        -24    2    1    2    0    0  0.43791599479E+02  0.35041567748E+02 -0.14639943512E+04  0.14670824943E+04  0.76850303246E+02 0.  0.
         25    2    1    2    0    0 -0.65464951218E+02 -0.25848738472E+02  0.15425462540E+03  0.21070439534E+03  0.12509210862E+03 0.  0.
         24    2    1    2    0    0  0.21673351738E+02 -0.91928292761E+01  0.47320738823E+03  0.48121989141E+03  0.84220599232E+02 0.  0.
        -11    1    5    5    0    0 -0.13150253939E+01 -0.35781299945E+02  0.97406650456E+02  0.10377902616E+03  0.00000000000E+00 0.  1.
         12    1    5    5    0    0  0.22988377132E+02  0.26588470669E+02  0.37580073777E+03  0.37744086525E+03  0.00000000000E+00 0. -1.
         13    1    3    3    0    0  0.43818031783E+02 -0.11501253008E+02 -0.91413634750E+03  0.91525819338E+03  0.00000000000E+00 0. -1.
        -14    1    3    3    0    0 -0.26432303889E-01  0.46542820756E+02 -0.54985800369E+03  0.55182430092E+03  0.00000000000E+00 0.  1.
          5    1    4    4  501    0 -0.88367371857E+02  0.20489687835E+01  0.14995180091E+03  0.17411492090E+03  0.41800000000E+01 0. -1.
         -5    1    4    4    0  501  0.22902420639E+02 -0.27897707256E+02  0.43028244866E+01  0.36589474440E+02  0.41800000000E+01 0. -1.
</event>
<event>
11    1  0.8453735E-009  0.1638920E+03  0.7561462E-02  0.1083473E+00
         22   -1    0    0    0    0  0.00000000000E+00  0.00000000000E+00  0.94187815524E+03  0.94187815524E+03  0.00000000000E+00 0. -1.
         22   -1    0    0    0    0 -0.00000000000E+00 -0.00000000000E+00 -0.35477060954E+03  0.35477060954E+03  0.00000000000E+00 0.  1.
         24    2    1    2    0    0  0.26246517931E+02  0.53467348552E+02 -0.28098822340E+03  0.29824177089E+03  0.80287826913E+02 0.  0.
         25    2    1    2    0    0 -0.98656065942E+02  0.26153285090E+02  0.49398438728E+02  0.16883113633E+03  0.12508690250E+03 0.  0.
        -24    2    1    2    0    0  0.72409548011E+02 -0.79620633642E+02  0.81869733037E+03  0.82957585756E+03  0.79675571766E+02 0.  0.
        -11    1    3    3    0    0  0.27525248993E+02  0.73645686018E+02 -0.23978000282E+03  0.25234059553E+03  0.00000000000E+00 0.  1.
         12    1    3    3    0    0 -0.12787310616E+01 -0.20178337466E+02 -0.41208220585E+02  0.45901175364E+02  0.00000000000E+00 0. -1.
         11    1    5    5    0    0  0.47334006125E+02 -0.45985834998E+01  0.44895485147E+03  0.45146662530E+03  0.00000000000E+00 0. -1.
        -12    1    5    5    0    0  0.25075541886E+02 -0.75022050142E+02  0.36974247891E+03  0.37810923225E+03  0.00000000000E+00 0.  1.
          5    1    4    4  501    0 -0.11023086880E+03  0.59521987057E+02  0.44084138909E+02  0.13287059525E+03  0.41800000000E+01 0.  1.
         -5    1    4    4    0  501  0.11574802856E+02 -0.33368701967E+02  0.53142998189E+01  0.35960541079E+02  0.41800000000E+01 0.  1.
</event>
<event>
11    1  0.8453735E-009  0.1377149E+03  0.7561462E-02  0.1110137E+00
         22   -1    0    0    0    0  0.00000000000E+00  0.00000000000E+00  0.57640806143E+03  0.57640806143E+03  0.00000000000E+00 0.  1.
         22   -1    0    0    0    0 -0.00000000000E+00 -0.00000000000E+00 -0.25947943998E+03  0.25947943998E+03  0.00000000000E+00 0.  1.
         24    2    1    2    0    0  0.58538785723E+02 -0.14163076777E+02 -0.20344574240E+03  0.22676417383E+03  0.80027734291E+02 0.  0.
         25    2    1    2    0    0 -0.29821262104E+02  0.20466654646E+02  0.64477351342E+02  0.14530440120E+03  0.12509136079E+03 0.  0.
        -24    2    1    2    0    0 -0.28717523618E+02 -0.63035778689E+01  0.45589701250E+03  0.46381892639E+03  0.80134132618E+02 0.  0.
        -13    1    3    3    0    0  0.50526852149E+02  0.26377050410E+02 -0.13869972101E+03  0.14995440702E+03  0.00000000000E+00 0.  1.
         14    1    3    3    0    0  0.80119335737E+01 -0.40540127187E+02 -0.64746021384E+02  0.76809766808E+02  0.00000000000E+00 0. -1.
         13    1    5    5    0    0 -0.16873171990E+02  0.18897757365E+02  0.42449079688E+02  0.49434335566E+02  0.00000000000E+00 0. -1.
        -14    1    5    5    0    0 -0.11844351628E+02 -0.25201335234E+02  0.41344793281E+03  0.41438459082E+03  0.00000000000E+00 0.  1.
          5    1    4    4  501    0 -0.19321179447E+02  0.17674706230E+02  0.10232589351E+03  0.10570602678E+03  0.41800000000E+01 0.  1.
         -5    1    4    4    0  501 -0.10500082658E+02  0.27919484162E+01 -0.37848542169E+02  0.39598374412E+02  0.41800000000E+01 0.  1.
</event>
<event>
11    1  0.8453735E-009  0.1365897E+03  0.7561462E-02  0.1111427E+00
         22   -1    0    0    0    0  0.00000000000E+00  0.00000000000E+00  0.44557810808E+02  0.44557810808E+02  0.00000000000E+00 0.  1.
         22   -1    0    0    0    0 -0.00000000000E+00 -0.00000000000E+00 -0.36223703351E+04  0.36223703351E+04  0.00000000000E+00 0.  1.
         24    2    1    2    0    0 -0.47139669665E+02  0.25528678034E+02 -0.28486295797E+04  0.28502531665E+04  0.79867195461E+02 0.  0.
         25    2    1    2    0    0  0.73723057064E+02 -0.35886100115E+00 -0.71214111433E+03  0.72679290001E+03  0.12509090641E+03 0.  0.
        -24    2    1    2    0    0 -0.26583387399E+02 -0.25169817033E+02 -0.17041830319E+02  0.89882079457E+02  0.80300485999E+02 0.  0.
        -13    1    3    3    0    0 -0.66881740049E+02  0.28012439929E+02 -0.18415043019E+04  0.18429313492E+04  0.00000000000E+00 0.  1.
         14    1    3    3    0    0  0.19742070384E+02 -0.24837618956E+01 -0.10071252778E+04  0.10073218173E+04  0.00000000000E+00 0. -1.
         13    1    5    5    0    0  0.30366224205E+01 -0.44026381309E+02 -0.28979476720E+02  0.52795391824E+02  0.00000000000E+00 0. -1.
        -14    1    5    5    0    0 -0.29620009820E+02  0.18856564276E+02  0.11937646400E+02  0.37086687633E+02  0.00000000000E+00 0.  1.
          5    1    4    4  501    0  0.99038617272E+02  0.29740735783E+02 -0.56655597926E+03  0.57593081973E+03  0.41800000000E+01 0. -1.
         -5    1    4    4    0  501 -0.25315560208E+02 -0.30099596784E+02 -0.14558513506E+03  0.15086208028E+03  0.41800000000E+01 0. -1.
</event>
<event>
11    1  0.8453735E-009  0.1412017E+03  0.7561462E-02  0.1106224E+00
         22   -1    0    0    0    0  0.00000000000E+00  0.00000000000E+00  0.13894485769E+03  0.13894485769E+03  0.00000000000E+00 0. -1.
         22   -1    0    0    0    0 -0.00000000000E+00 -0.00000000000E+00 -0.39922954051E+03  0.39922954051E+03  0.00000000000E+00 0. -1.
         24    2    1    2    0    0 -0.48095707789E+02 -0.41103216574E+02 -0.27457872093E+03  0.29323031683E+03  0.81165714444E+02 0.  0.
         25    2    1    2    0    0  0.84316639954E+02  0.34205524922E+02  0.24222181794E+02  0.15657778300E+03  0.12510225549E+03 0.  0.
        -24    2    1    2    0    0 -0.36220932165E+02  0.68976916519E+01 -0.99281436878E+01  0.88366298371E+02  0.79690028069E+02 0.  0.
        -13    1    3    3    0    0  0.70004372091E+01 -0.27884470361E+02 -0.27663393904E+02  0.39897533392E+02  0.00000000000E+00 0.  1.
         14    1    3    3    0    0 -0.55096144998E+02 -0.13218746212E+02 -0.24691532702E+03  0.25333278344E+03  0.00000000000E+00 0. -1.
         11    1    5    5    0    0 -0.54834679253E+02 -0.16661890588E+02 -0.10843070765E+02  0.58326947720E+02  0.00000000000E+00 0. -1.
        -12    1    5    5    0    0  0.18613747088E+02  0.23559582240E+02  0.91492707735E+00  0.30039350651E+02  0.00000000000E+00 0.  1.
          5    1    4    4  501    0  0.40600704373E+02  0.10375209552E+02  0.74573651236E+02  0.85643236905E+02  0.41800000000E+01 0. -1.
         -5    1    4    4    0  501  0.43715935581E+02  0.23830315370E+02 -0.50351469442E+02  0.70934546093E+02  0.41800000000E+01 0. -1.
</event>
<event>
11    1  0.8453735E-009  0.1320950E+03  0.7561462E-02  0.1116721E+00
         22   -1    0    0    0    0  0.00000000000E+00  0.00000000000E+00  0.86724194732E+03  0.86724194732E+03  0.00000000000E+00 0.  1.
         22   -1    0    0    0    0 -0.00000000000E+00 -0.00000000000E+00 -0.29408649686E+03  0.29408649686E+03  0.00000000000E+00 0. -1.
        -24    2    1    2    0    0  0.33553324710E+02 -0.76578222414E+00 -0.19143516279E+03  0.20788404895E+03  0.73769534593E+02 0.  0.
         25    2    1    2    0    0 -0.67926881632E+01 -0.32914688133E+02 -0.46262318185E+02  0.13753877666E+03  0.12508875126E+03 0.  0.
         24    2    1    2    0    0 -0.26760636547E+02  0.33680470357E+02  0.81085293144E+03  0.81590561858E+03  0.79805991312E+02 0.  0.
        -11    1    5    5    0    0  0.26869489949E+02  0.10397731008E+02  0.17341592171E+03  0.17579295834E+03  0.00000000000E+00 0.  1.
         12    1    5    5    0    0 -0.53630126496E+02  0.23282739349E+02  0.63743700973E+03  0.64011266023E+03  0.00000000000E+00 0. -1.
         13    1    3    3    0    0  0.50264495700E+02  0.19541623958E+02 -0.11418524733E+03  0.12628010652E+03  0.00000000000E+00 0. -1.
        -14    1    3    3    0    0 -0.16711170990E+02 -0.20307406182E+02 -0.77249915457E+02  0.81603942428E+02  0.00000000000E+00 0.  1.
          5    1    4    4  501    0 -0.68545662115E+01 -0.78929396816E+02 -0.12504112941E+02  0.80316000897E+02  0.41800000000E+01 0. -1.
         -5    1    4    4    0  501  0.61878048209E-01  0.46014708684E+02 -0.33758205244E+02  0.57222775758E+02  0.41800000000E+01 0. -1.
</event>
<event>
11    1  0.8453735E-009  0.3469362E+03  0.7561462E-02  0.9820764E-01
         22   -1    0    0    0    0  0.00000000000E+00  0.00000000000E+00  0.17876733988E+04  0.17876733988E+04  0.00000000000E+00 0.  1.
         22   -1    0    0    0    0 -0.00000000000E+00 -0.00000000000E+00 -0.70924247224E+03  0.70924247224E+03  0.00000000000E+00 0.  1.
        -24    2    1    2    0    0  0.95771214072E+02  0.30650074802E+03 -0.59981503261E+03  0.68507878803E+03  0.80249850363E+02 0.  0.
         25    2    1    2    0    0 -0.64103990056E+02 -0.35282961996E+03  0.49278481749E+03  0.62215937497E+03  0.12508936504E+03 0.  0.
         24    2    1    2    0    0 -0.31667224016E+02  0.46328871941E+02  0.11854611417E+04  0.11896777080E+04  0.82859840241E+02 0.  0.
        -11    1    5    5    0    0  0.15628176871E+02  0.47045254768E+02  0.75495563504E+03  0.75658146077E+03  0.00000000000E+00 0.  1.
         12    1    5    5    0    0 -0.47295400887E+02 -0.71638282762E+00  0.43050550664E+03  0.43309624726E+03  0.00000000000E+00 0. -1.
         13    1    3    3    0    0  0.22060921000E+02  0.10311049938E+03 -0.12661455910E+03  0.16477167807E+03  0.00000000000E+00 0. -1.
        -14    1    3    3    0    0  0.73710293071E+02  0.20339024865E+03 -0.47320047351E+03  0.52030710997E+03  0.00000000000E+00 0.  1.
          5    1    4    4  501    0  0.25956144512E+02 -0.32317248773E+02  0.27126573891E+02  0.49713674349E+02  0.41800000000E+01 0.  1.
         -5    1    4    4    0  501 -0.90060134568E+02 -0.32051237119E+03  0.46565824360E+03  0.57244570062E+03  0.41800000000E+01 0.  1.
</event>
<event>
11    1  0.8453735E-009  0.1456007E+03  0.7561462E-02  0.1101461E+00
         22   -1    0    0    0    0  0.00000000000E+00  0.00000000000E+00  0.85770110502E+03  0.85770110502E+03  0.00000000000E+00 0.  1.
         22   -1    0    0    0    0 -0.00000000000E+00 -0.00000000000E+00 -0.12490451677E+03  0.12490451677E+03  0.00000000000E+00 0. -1.
        -24    2    1    2    0    0 -0.30545540279E+02  0.28052902858E+02 -0.79254380154E+02  0.12054988815E+03  0.80814747228E+02 0.  0.
         25    2    1    2    0    0  0.62968755522E+02  0.41480896065E+02  0.25266672043E+03  0.29184699396E+03  0.12509383424E+03 0.  0.
         24    2    1    2    0    0 -0.32423215243E+02 -0.69533798923E+02  0.55938424798E+03  0.57020873968E+03  0.79630746839E+02 0.  0.
        -13    1    5    5    0    0 -0.45094499834E+02 -0.65363781187E+01  0.26544890986E+03  0.26933132366E+03  0.00000000000E+00 0.  1.
         14    1    5    5    0    0  0.12671284591E+02 -0.62997420805E+02  0.29393533811E+03  0.30087741602E+03  0.00000000000E+00 0. -1.
         11    1    3    3    0    0 -0.50223597508E+02 -0.66292975452E+01 -0.39455281328E+02  0.64211187166E+02  0.00000000000E+00 0. -1.
        -12    1    3    3    0    0  0.19678057229E+02  0.34682200404E+02 -0.39799098826E+02  0.56338700984E+02  0.00000000000E+00 0.  1.
          5    1    4    4  501    0  0.10058219415E+03  0.32273495673E+02  0.20144029761E+03  0.22749510369E+03  0.41800000000E+01 0.  1.
         -5    1    4    4    0  501 -0.37613438623E+02  0.92074003916E+01  0.51226422821E+02  0.64351890276E+02  0.41800000000E+01 0.  1.
</event>
<event>
11    1  0.8453735E-009  0.1775551E+03  0.7561462E-02  0.1071638E+00
         22   -1    0    0    0    0  0.00000000000E+00  0.00000000000E+00  0.44466486044E+03  0.44466486044E+03  0.00000000000E+00 0. -1.
         22   -1    0    0    0    0 -0.00000000000E+00 -0.00000000000E+00 -0.29965239050E+03  0.29965239050E+03  0.00000000000E+00 0. -1.
         24    2    1    2    0    0 -0.14377846738E+02 -0.25846262963E+02 -0.18596921179E+03  0.20493198053E+03  0.80856769184E+02 0.  0.
         25    2    1    2    0    0  0.88662266003E+02  0.12106874370E+03  0.26040780494E+02  0.19708819255E+03  0.12508795017E+03 0.  0.
        -24    2    1    2    0    0 -0.74284419265E+02 -0.95222480741E+02  0.30494090124E+03  0.34229707787E+03  0.97943047149E+02 0.  0.
        -13    1    3    3    0    0  0.20133016977E+02  0.19363152166E+02 -0.45570788331E+02  0.53450601339E+02  0.00000000000E+00 0.  1.
         14    1    3    3    0    0 -0.34510863715E+02 -0.45209415129E+02 -0.14039842346E+03  0.15148137919E+03  0.00000000000E+00 0. -1.
         13    1    5    5    0    0 -0.32419198654E+02 -0.79438573087E+02  0.27595744337E+03  0.28898789228E+03  0.00000000000E+00 0. -1.
        -14    1    5    5    0    0 -0.41865220611E+02 -0.15783907654E+02  0.28983457869E+02  0.53309185585E+02  0.00000000000E+00 0.  1.
          5    1    4    4  501    0 -0.17689221794E+02  0.71164136271E+02  0.30313003314E+02  0.79458123743E+02  0.41800000000E+01 0.  1.
         -5    1    4    4    0  501  0.10635148780E+03  0.49904607433E+02 -0.42722228193E+01  0.11763006881E+03  0.41800000000E+01 0.  1.
</event>
<event>
11    1  0.8453735E-009  0.3052561E+03  0.7561462E-02  0.9979910E-01
         22   -1    0    0    0    0  0.00000000000E+00  0.00000000000E+00  0.48320280454E+03  0.48320280454E+03  0.00000000000E+00 0.  1.
         22   -1    0    0    0    0 -0.00000000000E+00 -0.00000000000E+00 -0.32198344332E+03  0.32198344332E+03  0.00000000000E+00 0.  1.
         24    2    1    2    0    0  0.28857558569E+03 -0.34147035085E+01 -0.12591041446E+03  0.32319682087E+03  0.72905580703E+02 0.  0.
         25    2    1    2    0    0 -0.24843970044E+03  0.50919407707E+02  0.20295465525E+03  0.34806923063E+03  0.12508607592E+03 0.  0.
        -24    2    1    2    0    0 -0.40135885248E+02 -0.47504704198E+02  0.84175120426E+02  0.13392019635E+03  0.83555860872E+02 0.  0.
        -11    1    3    3    0    0  0.21603965298E+03  0.29273712378E+02 -0.88772075150E+02  0.23539448427E+03  0.00000000000E+00 0.  1.
         12    1    3    3    0    0  0.72535932707E+02 -0.32688415887E+02 -0.37138339308E+02  0.87802336605E+02  0.00000000000E+00 0. -1.
         11    1    5    5    0    0  0.13976510606E+02 -0.40613710906E+02  0.61111219139E+02  0.74695364428E+02  0.00000000000E+00 0. -1.
        -12    1    5    5    0    0 -0.54112395854E+02 -0.68909932921E+01  0.23063901287E+02  0.59224831922E+02  0.00000000000E+00 0.  1.
          5    1    4    4  501    0 -0.11467610210E+03  0.53412458352E+02  0.16686065612E+03  0.20943602856E+03  0.41800000000E+01 0. -1.
         -5    1    4    4    0  501 -0.13376359834E+03 -0.24930506457E+01  0.36093999131E+02  0.13863320207E+03  0.41800000000E+01 0. -1.
</event>
<event>
11    1  0.8453735E-009  0.1981786E+03  0.7561462E-02  0.1055819E+00
         22   -1    0    0    0    0  0.00000000000E+00  0.00000000000E+00  0.28289368325E+04  0.28289368325E+04  0.00000000000E+00 0. -1.
         22   -1    0    0    0    0 -0.00000000000E+00 -0.00000000000E+00 -0.14131941558E+03  0.14131941558E+03  0.00000000000E+00 0. -1.
         24    2    1    2    0    0 -0.51578392280E+01 -0.23409490497E+02 -0.11434315267E+03  0.14254339781E+03  0.81667962795E+02 0.  0.
         25    2    1    2    0    0 -0.14779485787E+03 -0.13589797994E+02  0.11469407764E+04  0.11632493264E+04  0.12509135984E+03 0.  0.
        -24    2    1    2    0    0  0.15295269710E+03  0.36999288491E+02  0.16550197932E+04  0.16644635238E+04  0.81146973873E+02 0.  0.
        -11    1    3    3    0    0  0.84574514997E+01 -0.36972953094E+02 -0.14083276633E+02  0.40458205930E+02  0.00000000000E+00 0.  1.
         12    1    3    3    0    0 -0.13615290728E+02  0.13563462597E+02 -0.10025987604E+03  0.10208519188E+03  0.00000000000E+00 0. -1.
         13    1    5    5    0    0  0.10762002173E+03  0.50041850907E+02  0.14070586155E+04  0.14120553117E+04  0.00000000000E+00 0. -1.
        -14    1    5    5    0    0  0.45332675363E+02 -0.13042562416E+02  0.24796117773E+03  0.25240821213E+03  0.00000000000E+00 0.  1.
          5    1    4    4  501    0 -0.74681663474E+01 -0.12898647624E+02  0.54241994580E+03  0.54264078230E+03  0.41800000000E+01 0.  1.
         -5    1    4    4    0  501 -0.14032669152E+03 -0.69115037011E+00  0.60452083058E+03  0.62060854413E+03  0.41800000000E+01 0.  1.
</event>
<event>
11    1  0.8453735E-009  0.1515153E+03  0.7561462E-02  0.1095340E+00
         22   -1    0    0    0    0  0.00000000000E+00  0.00000000000E+00  0.11759262337E+04  0.11759262337E+04  0.00000000000E+00 0.  1.
         22   -1    0    0    0    0 -0.00000000000E+00 -0.00000000000E+00 -0.48893979485E+03  0.48893979485E+03  0.00000000000E+00 0. -1.
        -24    2    1    2    0    0 -0.67999769135E+01 -0.57846920074E+02 -0.42305359612E+03  0.43420764430E+03  0.78545702154E+02 0.  0.
         25    2    1    2    0    0 -0.79039410096E+02  0.52811367949E+02  0.51159486718E+02  0.16523220645E+03  0.12509244595E+03 0.  0.
         24    2    1    2    0    0  0.85839387009E+02  0.50355521247E+01  0.10588805482E+04  0.10654261778E+04  0.80691807143E+02 0.  0.
        -11    1    5    5    0    0  0.11474118885E+02 -0.27369375342E+02  0.14834896188E+03  0.15128830953E+03  0.00000000000E+00 0.  1.
         12    1    5    5    0    0  0.74365268125E+02  0.32404927466E+02  0.91053158636E+03  0.91413786826E+03  0.00000000000E+00 0. -1.
         13    1    3    3    0    0 -0.29825521917E+02  0.47654409328E+00 -0.21033820663E+03  0.21244281588E+03  0.00000000000E+00 0. -1.
        -14    1    3    3    0    0  0.23025545004E+02 -0.58323464167E+02 -0.21271538949E+03  0.22176482842E+03  0.00000000000E+00 0.  1.
          5    1    4    4  501    0 -0.62083642537E+02 -0.11072416155E+02  0.71998694358E+02  0.95803243471E+02  0.41800000000E+01 0. -1.
         -5    1    4    4    0  501 -0.16955767558E+02  0.63883784104E+02 -0.20839207640E+02  0.69428962977E+02  0.41800000000E+01 0. -1.
</event>
<event>
11    1  0.8453735E-009  0.2056584E+03  0.7561462E-02  0.1050593E+00
         22   -1    0    0    0    0  0.00000000000E+00  0.00000000000E+00  0.15400547204E+04  0.15400547204E+04  0.00000000000E+00 0. -1.
         22   -1    0    0    0    0 -0.00000000000E+00 -0.00000000000E+00 -0.15990043408E+04  0.15990043408E+04  0.00000000000E+00 0. -1.
         24    2    1    2    0    0 -0.16340745246E+03 -0.79210706728E+01 -0.15778500549E+04  0.15882934168E+04  0.79375331910E+02 0.  0.
         25    2    1    2    0    0  0.11895855783E+03  0.51679403009E+02  0.60093716641E+03  0.62737098294E+03  0.12508786150E+03 0.  0.
        -24    2    1    2    0    0  0.44448894634E+02 -0.43758332336E+02  0.91796326806E+03  0.92339466136E+03  0.78170603347E+02 0.  0.
        -11    1    3    3    0    0 -0.10246480051E+02 -0.92171293365E+01 -0.43583301162E+03  0.43605086841E+03  0.00000000000E+00 0.  1.
         12    1    3    3    0    0 -0.15316097241E+03  0.12960586637E+01 -0.11420170433E+04  0.11522425484E+04  0.00000000000E+00 0. -1.
         13    1    5    5    0    0  0.41888394235E+02 -0.53859326605E+02  0.43496663905E+03  0.44028563651E+03  0.00000000000E+00 0. -1.
        -14    1    5    5    0    0  0.25605003995E+01  0.10100994269E+02  0.48299662902E+03  0.48310902485E+03  0.00000000000E+00 0.  1.
          5    1    4    4  501    0 -0.13394887817E+02  0.17013629813E+02  0.24548369149E+03  0.24647231448E+03  0.41800000000E+01 0.  1.
         -5    1    4    4    0  501  0.13235344564E+03  0.34665773195E+02  0.35545347492E+03  0.38089866846E+03  0.41800000000E+01 0.  1.
</event>
<event>
11    1  0.8453735E-009  0.1365875E+03  0.7561462E-02  0.1111430E+00
         22   -1    0    0    0    0  0.00000000000E+00  0.00000000000E+00  0.28329664569E+04  0.28329664569E+04  0.00000000000E+00 0.  1.
         22   -1    0    0    0    0 -0.00000000000E+00 -0.00000000000E+00 -0.15212882681E+03  0.15212882681E+03  0.00000000000E+00 0.  1.
         24    2    1    2    0    0  0.46719076004E+02  0.17986408543E+02 -0.87544467540E+02  0.12871453174E+03  0.79982585159E+02 0.  0.
         25    2    1    2    0    0 -0.78732979515E+02 -0.34166847242E+02  0.89516010153E+02  0.17614399539E+03  0.12508931019E+03 0.  0.
        -24    2    1    2    0    0  0.32013903511E+02  0.16180438698E+02  0.26788660875E+04  0.26802367566E+04  0.77838680102E+02 0.  0.
        -13    1    3    3    0    0  0.38532746098E+02  0.48649741087E+02 -0.64382741990E+02  0.89424310430E+02  0.00000000000E+00 0.  1.
         14    1    3    3    0    0  0.81863299063E+01 -0.30663332543E+02 -0.23161725550E+02  0.39290221309E+02  0.00000000000E+00 0. -1.
         11    1    5    5    0    0  0.37230951254E+01 -0.91648463763E+01  0.44057342157E+02  0.45154238387E+02  0.00000000000E+00 0. -1.
        -12    1    5    5    0    0  0.28290808386E+02  0.25345285075E+02  0.26348087453E+04  0.26350825182E+04  0.00000000000E+00 0.  1.
          5    1    4    4  501    0 -0.10608781660E+03 -0.49050364562E+01  0.43096778670E+02  0.11468866093E+03  0.41800000000E+01 0.  1.
         -5    1    4    4    0  501  0.27354837086E+02 -0.29261810785E+02  0.46419231483E+02  0.61455334463E+02  0.41800000000E+01 0.  1.
</event>
<event>
11    1  0.8453735E-009  0.1363589E+03  0.7561462E-02  0.1111694E+00
         22   -1    0    0    0    0  0.00000000000E+00  0.00000000000E+00  0.12690676320E+04  0.12690676320E+04  0.00000000000E+00 0. -1.
         22   -1    0    0    0    0 -0.00000000000E+00 -0.00000000000E+00 -0.59185946321E+02  0.59185946321E+02  0.00000000000E+00 0.  1.
        -24    2    1    2    0    0 -0.48933243056E+01  0.51825963853E+02  0.99335407718E+01  0.94625385887E+02  0.78392686329E+02 0.  0.
         25    2    1    2    0    0  0.34488612942E+02 -0.65611399375E+02  0.34528284145E+03  0.37465099165E+03  0.12509518294E+03 0.  0.
         24    2    1    2    0    0 -0.29595288637E+02  0.13785435522E+02  0.85466530344E+03  0.85897720076E+03  0.79518118625E+02 0.  0.
        -11    1    5    5    0    0 -0.21774661925E+02  0.16034678392E+02  0.83512430245E+02  0.87781392211E+02  0.00000000000E+00 0.  1.
         12    1    5    5    0    0 -0.78206267117E+01 -0.22492428708E+01  0.77115287319E+03  0.77119580855E+03  0.00000000000E+00 0. -1.
         11    1    3    3    0    0 -0.37414077097E+02  0.17081977249E+02  0.20382190281E+02  0.45902514010E+02  0.00000000000E+00 0. -1.
        -12    1    3    3    0    0  0.32520752792E+02  0.34743986605E+02 -0.10448649510E+02  0.48722871877E+02  0.00000000000E+00 0.  1.
          5    1    4    4  501    0  0.61565223605E+02 -0.24358651482E+02  0.30097955049E+03  0.30820412533E+03  0.41800000000E+01 0. -1.
         -5    1    4    4    0  501 -0.27076610663E+02 -0.41252747893E+02  0.44303290963E+02  0.66446866321E+02  0.41800000000E+01 0. -1.
</event>
<event>
11    1  0.8453735E-009  0.1356979E+03  0.7561462E-02  0.1112460E+00
         22   -1    0    0    0    0  0.00000000000E+00  0.00000000000E+00  0.83128172403E+03  0.83128172403E+03  0.00000000000E+00 0.  1.
         22   -1    0    0    0    0 -0.00000000000E+00 -0.00000000000E+00 -0.15435226848E+03  0.15435226848E+03  0.00000000000E+00 0.  1.
        -24    2    1    2    0    0 -0.28232534132E+02 -0.42395499877E+02 -0.95391172345E+02  0.13300142470E+03  0.77430283598E+02 0.  0.
         25    2    1    2    0    0  0.43999878487E+01  0.72777346890E+02  0.97697240215E+02  0.17466788004E+03  0.12509282737E+03 0.  0.
         24    2    1    2    0    0  0.23832546283E+02 -0.30381847013E+02  0.67462338769E+03  0.67796468776E+03  0.55030498374E+02 0.  0.
        -13    1    5    5    0    0  0.30313354277E+02 -0.35594737813E+02  0.65480268198E+03  0.65646967724E+03  0.00000000000E+00 0.  1.
         14    1    5    5    0    0 -0.64808079935E+01  0.52128907999E+01  0.19820705711E+02  0.21495010528E+02  0.00000000000E+00 0. -1.
         13    1    3    3    0    0  0.10260043178E+02 -0.20966605297E+02  0.45493092639E+01  0.23781573507E+02  0.00000000000E+00 0. -1.
        -14    1    3    3    0    0 -0.38492577310E+02 -0.21428894580E+02 -0.99940481609E+02  0.10921985120E+03  0.00000000000E+00 0.  1.
          5    1    4    4  501    0  0.55173514373E+02  0.37697032679E+02  0.10517438064E+02  0.67773681208E+02  0.41800000000E+01 0. -1.
         -5    1    4    4    0  501 -0.50773526524E+02  0.35080314211E+02  0.87179802151E+02  0.10689419883E+03  0.41800000000E+01 0. -1.
</event>
<event>
11    1  0.8453735E-009  0.7437342E+03  0.7561462E-02  0.8970227E-01
         22   -1    0    0    0    0  0.00000000000E+00  0.00000000000E+00  0.13128946820E+04  0.13128946820E+04  0.00000000000E+00 0. -1.
         22   -1    0    0    0    0 -0.00000000000E+00 -0.00000000000E+00 -0.12580281378E+04  0.12580281378E+04  0.00000000000E+00 0. -1.
         24    2    1    2    0    0 -0.30487028704E+03 -0.53344177330E+03 -0.29625562286E+03  0.68664065183E+03  0.78752607912E+02 0.  0.
         25    2    1    2    0    0  0.88546650224E+03  0.61351507722E+03 -0.16759233744E+03  0.10973542736E+04  0.12509010172E+03 0.  0.
        -24    2    1    2    0    0 -0.58059621521E+03 -0.80073303928E+02  0.51871450450E+03  0.78692789433E+03  0.81774535061E+02 0.  0.
        -11    1    3    3    0    0 -0.18027845128E+03 -0.23736956269E+03 -0.13493957091E+03  0.32719003207E+03  0.00000000000E+00 0.  1.
         12    1    3    3    0    0 -0.12459183576E+03 -0.29607221060E+03 -0.16131605195E+03  0.35945061976E+03  0.00000000000E+00 0. -1.
         11    1    5    5    0    0 -0.55769774782E+03 -0.63751039005E+02  0.47703939954E+03  0.73665294516E+03  0.00000000000E+00 0. -1.
        -12    1    5    5    0    0 -0.22898467385E+02 -0.16322264924E+02  0.41675104959E+02  0.50274949171E+02  0.00000000000E+00 0.  1.
          5    1    4    4  501    0  0.22606584982E+03  0.95240249849E+02 -0.50836011039E+02  0.25055587413E+03  0.41800000000E+01 0.  1.
         -5    1    4    4    0  501  0.65940065243E+03  0.51827482737E+03 -0.11675632640E+03  0.84679839942E+03  0.41800000000E+01 0.  1.
</event>
<event>
11    1  0.8453735E-009  0.4111489E+03  0.7561462E-02  0.9617423E-01
         22   -1    0    0    0    0  0.00000000000E+00  0.00000000000E+00  0.15155248276E+04  0.15155248276E+04  0.00000000000E+00 0.  1.
         22   -1    0    0    0    0 -0.00000000000E+00 -0.00000000000E+00 -0.10741722389E+04  0.10741722389E+04  0.00000000000E+00 0. -1.
        -24    2    1    2    0    0  0.14685929628E+03 -0.46905670639E+03 -0.78265577907E+03  0.92763231616E+03  0.79811019038E+02 0.  0.
         25    2    1    2    0    0 -0.11468140574E+03  0.23067856302E+03 -0.10812419247E+03  0.30611057904E+03  0.12509365031E+03 0.  0.
         24    2    1    2    0    0 -0.32177890544E+02  0.23837814337E+03  0.13321325602E+04  0.13559541713E+04  0.78581174618E+02 0.  0.
        -13    1    5    5    0    0 -0.24290106273E+02  0.23237724753E+03  0.11469006272E+04  0.11704572795E+04  0.00000000000E+00 0.  1.
         14    1    5    5    0    0 -0.78877842716E+01  0.60008958429E+01  0.18523193297E+03  0.18549689184E+03  0.00000000000E+00 0. -1.
         11    1    3    3    0    0  0.14516766329E+03 -0.45012577102E+03 -0.77325747589E+03  0.90642924943E+03  0.00000000000E+00 0. -1.
        -12    1    3    3    0    0  0.16916329852E+01 -0.18930935369E+02 -0.93983031816E+01  0.21203066731E+02  0.00000000000E+00 0.  1.
          5    1    4    4  501    0 -0.60638495115E+02  0.95580367360E+02 -0.11362615855E+03  0.16044005117E+03  0.41800000000E+01 0.  1.
         -5    1    4    4    0  501 -0.54042910621E+02  0.13509819566E+03  0.55019660809E+01  0.14567052787E+03  0.41800000000E+01 0.  1.
</event>
<event>
11    1  0.8453735E-009  0.1461248E+03  0.7561462E-02  0.1100906E+00
         22   -1    0    0    0    0  0.00000000000E+00  0.00000000000E+00  0.25961883059E+03  0.25961883059E+03  0.00000000000E+00 0. -1.
         22   -1    0    0    0    0 -0.00000000000E+00 -0.00000000000E+00 -0.40088275477E+04  0.40088275477E+04  0.00000000000E+00 0.  1.
         24    2    1    2    0    0 -0.22159382187E+02 -0.72489265740E+02 -0.37468162365E+04  0.37484386016E+04  0.80089375985E+02 0.  0.
         25    2    1    2    0    0  0.10235854827E+02  0.68796671811E+02 -0.23376948723E+03  0.27410498617E+03  0.12509042931E+03 0.  0.
        -24    2    1    2    0    0  0.11923527360E+02  0.36925939290E+01  0.23137700658E+03  0.24590279054E+03  0.82322885463E+02 0.  0.
        -13    1    3    3    0    0 -0.47641281617E+02 -0.57079208259E+02 -0.31526726660E+04  0.31535492174E+04  0.00000000000E+00 0.  1.
         14    1    3    3    0    0  0.25481899430E+02 -0.15410057481E+02 -0.59414357048E+03  0.59488938418E+03  0.00000000000E+00 0. -1.
         13    1    5    5    0    0  0.23066949386E+02 -0.13061473819E+02  0.22222031218E+03  0.22379578503E+03  0.00000000000E+00 0. -1.
        -14    1    5    5    0    0 -0.11143422026E+02  0.16754067748E+02  0.91566943964E+01  0.22107005514E+02  0.00000000000E+00 0.  1.
          5    1    4    4  501    0 -0.49817208722E+02  0.60962612492E+02 -0.16154564993E+03  0.17975723578E+03  0.41800000000E+01 0. -1.
         -5    1    4    4    0  501  0.60053063549E+02  0.78340593186E+01 -0.72223837309E+02  0.94347750385E+02  0.41800000000E+01 0. -1.
</event>
<event>
11    1  0.8453735E-009  0.1659587E+03  0.7561462E-02  0.1081603E+00
         22   -1    0    0    0    0  0.00000000000E+00  0.00000000000E+00  0.12014473359E+03  0.12014473359E+03  0.00000000000E+00 0. -1.
         22   -1    0    0    0    0 -0.00000000000E+00 -0.00000000000E+00 -0.25079646644E+04  0.25079646644E+04  0.00000000000E+00 0.  1.
         24    2    1    2    0    0 -0.65575743153E+02  0.87151565475E+02 -0.23265658267E+04  0.23304825445E+04  0.79654069220E+02 0.  0.
         25    2    1    2    0    0  0.95555528757E+02 -0.64319286320E+02 -0.99566231686E+02  0.19704744835E+03  0.12508570159E+03 0.  0.
        -24    2    1    2    0    0 -0.29979785604E+02 -0.22832279155E+02  0.38312127583E+02  0.10057940514E+03  0.85019392509E+02 0.  0.
        -13    1    3    3    0    0 -0.69137277898E+02  0.91859462253E+02 -0.23106288222E+04  0.23134873412E+04  0.00000000000E+00 0.  1.
         14    1    3    3    0    0  0.35615347449E+01 -0.47078967784E+01 -0.15937004540E+02  0.16995203309E+02  0.00000000000E+00 0. -1.
         11    1    5    5    0    0 -0.50402001211E+01 -0.29015448981E+02  0.60076106707E+02  0.66906191745E+02  0.00000000000E+00 0. -1.
        -12    1    5    5    0    0 -0.24939585483E+02  0.61831698261E+01 -0.21763979124E+02  0.33673213397E+02  0.00000000000E+00 0.  1.
          5    1    4    4  501    0  0.79459671162E+02 -0.82679010433E+02 -0.11918691279E+03  0.16544682133E+03  0.41800000000E+01 0. -1.
         -5    1    4    4    0  501  0.16095857595E+02  0.18359724113E+02  0.19620681105E+02  0.31600627023E+02  0.41800000000E+01 0. -1.
</event>
<event>
11    1  0.8453735E-009  0.1669844E+03  0.7561462E-02  0.1080686E+00
         22   -1    0    0    0    0  0.00000000000E+00  0.00000000000E+00  0.91021261813E+03  0.91021261813E+03  0.00000000000E+00 0. -1.
         22   -1    0    0    0    0 -0.00000000000E+00 -0.00000000000E+00 -0.33153816305E+03  0.33153816305E+03  0.00000000000E+00 0.  1.
        -24    2    1    2    0    0  0.51570452101E+01 -0.27588655396E+02 -0.27829810956E+03  0.28969879227E+03  0.75417659979E+02 0.  0.
         25    2    1    2    0    0 -0.93923463850E+02 -0.41151753380E+02  0.11740176306E+03  0.19986323439E+03  0.12508818740E+03 0.  0.
         24    2    1    2    0    0  0.88766418640E+02  0.68740408776E+02  0.73957080158E+03  0.75218875452E+03  0.78855760779E+02 0.  0.
        -13    1    5    5    0    0 -0.17388993234E+01 -0.75330404934E+01  0.18342403149E+03  0.18358688896E+03  0.00000000000E+00 0.  1.
         14    1    5    5    0    0  0.90505317963E+02  0.76273449269E+02  0.55614677008E+03  0.56860186556E+03  0.00000000000E+00 0. -1.
         13    1    3    3    0    0  0.27545109947E+02 -0.13580838056E+02 -0.42546658604E+02  0.52472758672E+02  0.00000000000E+00 0. -1.
        -14    1    3    3    0    0 -0.22388064737E+02 -0.14007817340E+02 -0.23575145095E+03  0.23722603360E+03  0.00000000000E+00 0.  1.
          5    1    4    4  501    0  0.29811327769E+02 -0.12222605303E+02  0.37868327584E+02  0.49895791182E+02  0.41800000000E+01 0.  1.
         -5    1    4    4    0  501 -0.12373479162E+03 -0.28929148077E+02  0.79533435471E+02  0.14996744321E+03  0.41800000000E+01 0.  1.
</event>
<event>
11    1  0.8453735E-009  0.1664415E+03  0.7561462E-02  0.1081171E+00
         22   -1    0    0    0    0  0.00000000000E+00  0.00000000000E+00  0.62560913733E+03  0.62560913733E+03  0.00000000000E+00 0.  1.
         22   -1    0    0    0    0 -0.00000000000E+00 -0.00000000000E+00 -0.87397875828E+03  0.87397875828E+03  0.00000000000E+00 0.  1.
        -24    2    1    2    0    0  0.76588006773E+02 -0.81152866744E+02 -0.80181062076E+03  0.81374893947E+03  0.82677411409E+02 0.  0.
         25    2    1    2    0    0 -0.72435801357E+02  0.44669851269E+02  0.28782593726E+02  0.15400973109E+03  0.12509284007E+03 0.  0.
         24    2    1    2    0    0 -0.41522054162E+01  0.36483015475E+02  0.52465840609E+03  0.53182922506E+03  0.78915336450E+02 0.  0.
        -11    1    5    5    0    0  0.25156930544E+02 -0.13907457357E+02  0.17316956256E+03  0.17553912932E+03  0.00000000000E+00 0.  1.
         12    1    5    5    0    0 -0.29309135960E+02  0.50390472832E+02  0.35148884353E+03  0.35629009575E+03  0.00000000000E+00 0. -1.
         13    1    3    3    0    0  0.14474806263E+02 -0.99773529894E+01 -0.21645819434E+02  0.27885643044E+02  0.00000000000E+00 0. -1.
        -14    1    3    3    0    0  0.62113200510E+02 -0.71175513755E+02 -0.78016480133E+03  0.78586329642E+03  0.00000000000E+00 0.  1.
          5    1    4    4  501    0 -0.23466845391E+02 -0.36501981233E+02 -0.19247945154E+02  0.47655464106E+02  0.41800000000E+01 0. -1.
         -5    1    4    4    0  501 -0.48968955966E+02  0.81171832502E+02  0.48030538879E+02  0.10635426698E+03  0.41800000000E+01 0. -1.
</event>
<event>
11    1  0.8453735E-009  0.1627888E+03  0.7561462E-02  0.1084483E+00
         22   -1    0    0    0    0  0.00000000000E+00  0.00000000000E+00  0.31044650172E+03  0.31044650172E+03  0.00000000000E+00 0.  1.
         22   -1    0    0    0    0 -0.00000000000E+00 -0.00000000000E+00 -0.14801222542E+04  0.14801222542E+04  0.00000000000E+00 0.  1.
        -24    2    1    2    0    0  0.10101165878E+03 -0.25545397974E+02 -0.14252155298E+04  0.14314008994E+04  0.82542752711E+02 0.  0.
         25    2    1    2    0    0 -0.96088715821E+02  0.46104474037E+02  0.14445019073E+03  0.21878696212E+03  0.12507283221E+03 0.  0.
         24    2    1    2    0    0 -0.49229429561E+01 -0.20559076063E+02  0.11108958659E+03  0.14038089435E+03  0.83180456076E+02 0.  0.
        -11    1    5    5    0    0 -0.17165937569E+02 -0.48533962804E+02  0.88548533591E+02  0.10242586470E+03  0.00000000000E+00 0.  1.
         12    1    5    5    0    0  0.12242994613E+02  0.27974886741E+02  0.22541052997E+02  0.37955029647E+02  0.00000000000E+00 0. -1.
         13    1    3    3    0    0  0.55167946621E+02 -0.40312624895E+02 -0.11480728944E+04  0.11501043348E+04  0.00000000000E+00 0. -1.
        -14    1    3    3    0    0  0.45843712156E+02  0.14767226920E+02 -0.27714263536E+03  0.28129656463E+03  0.00000000000E+00 0.  1.
          5    1    4    4  501    0 -0.77691944135E+02  0.76644833013E+02  0.54749027212E+02  0.12216954200E+03  0.41800000000E+01 0.  1.
         -5    1    4    4    0  501 -0.18396771685E+02 -0.30540358977E+02  0.89701163514E+02  0.96617420120E+02  0.41800000000E+01 0.  1.
</event>
<event>
11    1  0.8453735E-009  0.1416054E+03  0.7561462E-02  0.1105779E+00
         22   -1    0    0    0    0  0.00000000000E+00  0.00000000000E+00  0.24203527785E+03  0.24203527785E+03  0.00000000000E+00 0. -1.
         22   -1    0    0    0    0 -0.00000000000E+00 -0.00000000000E+00 -0.12581044587E+04  0.12581044587E+04  0.00000000000E+00 0. -1.
        -24    2    1    2    0    0  0.37170860064E+01 -0.77272524841E+01 -0.10855318143E+04  0.10887034833E+04  0.82597987302E+02 0.  0.
         25    2    1    2    0    0 -0.69639982610E+02  0.11565156651E+02 -0.12511569776E+03  0.19048925691E+03  0.12509492054E+03 0.  0.
         24    2    1    2    0    0  0.65922896603E+02 -0.38379041670E+01  0.19457833122E+03  0.22094699633E+03  0.81217549844E+02 0.  0.
        -11    1    5    5    0    0 -0.85655726744E+01 -0.17684771035E+02  0.11397581367E+02  0.22716184161E+02  0.00000000000E+00 0.  1.
         12    1    5    5    0    0  0.74488469278E+02  0.13846866868E+02  0.18318074986E+03  0.19823081217E+03  0.00000000000E+00 0. -1.
         13    1    3    3    0    0  0.34299353472E+02 -0.57260462727E+01 -0.22915531003E+03  0.23177875091E+03  0.00000000000E+00 0. -1.
        -14    1    3    3    0    0 -0.30582267466E+02 -0.20012062114E+01 -0.85637650427E+03  0.85692473238E+03  0.00000000000E+00 0.  1.
          5    1    4    4  501    0  0.31789742592E+02 -0.15905164811E+02 -0.48944617134E+02  0.60635055439E+02  0.41800000000E+01 0. -1.
         -5    1    4    4    0  501 -0.10142972520E+03  0.27470321462E+02 -0.76171080631E+02  0.12985420147E+03  0.41800000000E+01 0. -1.
</event>
<event>
11    1  0.8453735E-009  0.1718777E+03  0.7561462E-02  0.1076409E+00
         22   -1    0    0    0    0  0.00000000000E+00  0.00000000000E+00  0.84377089608E+03  0.84377089608E+03  0.00000000000E+00 0.  1.
         22   -1    0    0    0    0 -0.00000000000E+00 -0.00000000000E+00 -0.27379018348E+03  0.27379018348E+03  0.00000000000E+00 0. -1.
         24    2    1    2    0    0  0.14262744480E+02  0.38497152658E+02 -0.23613954043E+03  0.25107472101E+03  0.74774168882E+02 0.  0.
         25    2    1    2    0    0 -0.59111594237E+02  0.84713717264E+02  0.37377465224E+03  0.40746241664E+03  0.12509011093E+03 0.  0.
        -24    2    1    2    0    0  0.44848849757E+02 -0.12321086992E+03  0.43234560080E+03  0.45902394191E+03  0.81166020746E+02 0.  0.
        -13    1    3    3    0    0 -0.17123709751E+02 -0.52681203416E+01 -0.14683995833E+02  0.23164504337E+02  0.00000000000E+00 0.  1.
         14    1    3    3    0    0  0.31386454231E+02  0.43765273000E+02 -0.22145554460E+03  0.22791021667E+03  0.00000000000E+00 0. -1.
         11    1    5    5    0    0  0.50096638078E+02 -0.92468011224E+02  0.21381345849E+03  0.23827757192E+03  0.00000000000E+00 0. -1.
        -12    1    5    5    0    0 -0.52477883203E+01 -0.30742858698E+02  0.21853214231E+03  0.22074636999E+03  0.00000000000E+00 0.  1.
          5    1    4    4  501    0 -0.31331936166E+02  0.30289566728E+02  0.19488058705E+02  0.47920819156E+02  0.41800000000E+01 0. -1.
         -5    1    4    4    0  501 -0.27779658071E+02  0.54424150536E+02  0.35428659353E+03  0.35954159748E+03  0.41800000000E+01 0. -1.
</event>
<event>
11    1  0.8453735E-009  0.1701646E+03  0.7561462E-02  0.1077889E+00
         22   -1    0    0    0    0  0.00000000000E+00  0.00000000000E+00  0.55779016334E+03  0.55779016334E+03  0.00000000000E+00 0.  1.
         22   -1    0    0    0    0 -0.00000000000E+00 -0.00000000000E+00 -0.44197939837E+03  0.44197939837E+03  0.00000000000E+00 0. -1.
         24    2    1    2    0    0  0.17586537240E+02  0.11755352774E+01 -0.37609133483E+03  0.38477649078E+03  0.79357340857E+02 0.  0.
         25    2    1    2    0    0 -0.32102630069E+02  0.11300101938E+03  0.10003279694E+03  0.19863249067E+03  0.12509395128E+03 0.  0.
        -24    2    1    2    0    0  0.14516092829E+02 -0.11417655466E+03  0.39186930287E+03  0.41636058026E+03  0.80917116071E+02 0.  0.
        -13    1    3    3    0    0  0.35660644270E+02  0.28483077177E+02 -0.16648080924E+03  0.17262336772E+03  0.00000000000E+00 0.  1.
         14    1    3    3    0    0 -0.18074107030E+02 -0.27307541899E+02 -0.20961052559E+03  0.21215312307E+03  0.00000000000E+00 0. -1.
         11    1    5    5    0    0  0.45001380337E+02 -0.40807571871E+02  0.15269990103E+03  0.16434001926E+03  0.00000000000E+00 0. -1.
        -12    1    5    5    0    0 -0.30485287508E+02 -0.73368982789E+02  0.23916940184E+03  0.25202056100E+03  0.00000000000E+00 0.  1.
          5    1    4    4  501    0  0.23182226039E+02  0.78106328447E+01  0.72429841501E+02  0.76563541777E+02  0.41800000000E+01 0. -1.
         -5    1    4    4    0  501 -0.55284856108E+02  0.10519038654E+03  0.27602955436E+02  0.12206894889E+03  0.41800000000E+01 0. -1.
</event>
<event>
11    1  0.8453735E-009  0.1565183E+03  0.7561462E-02  0.1090398E+00
         22   -1    0    0    0    0  0.00000000000E+00  0.00000000000E+00  0.78608055395E+03  0.78608055395E+03  0.00000000000E+00 0.  1.
         22   -1    0    0    0    0 -0.00000000000E+00 -0.00000000000E+00 -0.57608575040E+03  0.57608575040E+03  0.00000000000E+00 0. -1.
         24    2    1    2    0    0  0.23227851969E+02  0.14096780023E+02 -0.47140302910E+03  0.47907913664E+03  0.80979941998E+02 0.  0.
         25    2    1    2    0    0  0.39187035967E+02  0.58123947237E+02 -0.41651570718E+02  0.14931732490E+03  0.12508714219E+03 0.  0.
        -24    2    1    2    0    0 -0.62414887937E+02 -0.72220727260E+02  0.72304940336E+03  0.73376984281E+03  0.80661582137E+02 0.  0.
        -11    1    3    3    0    0 -0.66629214254E+01 -0.26200887301E+02 -0.79357761901E+02  0.83836360795E+02  0.00000000000E+00 0.  1.
         12    1    3    3    0    0  0.29890773395E+02  0.40297667325E+02 -0.39204526719E+03  0.39524277584E+03  0.00000000000E+00 0. -1.
         11    1    5    5    0    0 -0.37996268234E+02  0.59831729557E+00  0.12062509199E+03  0.12646931328E+03  0.00000000000E+00 0. -1.
        -12    1    5    5    0    0 -0.24418619702E+02 -0.72819044556E+02  0.60242431137E+03  0.60730052953E+03  0.00000000000E+00 0.  1.
          5    1    4    4  501    0  0.30262782277E+00 -0.20136537848E+02  0.29903325798E+02  0.36293980684E+02  0.41800000000E+01 0.  1.
         -5    1    4    4    0  501  0.38884408145E+02  0.78260485085E+02 -0.71554896516E+02  0.11302334422E+03  0.41800000000E+01 0.  1.
</event>
<event>
11    1  0.8681124E-009  0.1529180E+03  0.7561462E-02  0.1093934E+00
         22   -1    0    0    0    0  0.00000000000E+00  0.00000000000E+00  0.10399188072E+03  0.10399188072E+03  0.00000000000E+00 0.  1.
         22   -1    0    0    0    0 -0.00000000000E+00 -0.00000000000E+00 -0.22500947338E+04  0.22500947338E+04  0.00000000000E+00 0. -1.
        -24    2    1    2    0    0  0.57311496537E+02  0.54302738159E+02 -0.15422822923E+04  0.15465760274E+04  0.83841185674E+02 0.  0.
         25    2    1    2    0    0 -0.68012071252E+02 -0.13813280760E+03 -0.65160653278E+03  0.68113487784E+03  0.12508930360E+03 0.  0.
         24    2    1    2    0    0  0.10700574715E+02  0.83830069439E+02  0.47785971989E+02  0.12637570928E+03  0.80903262828E+02 0.  0.
        -13    1    5    5    0    0 -0.25017569488E+02  0.68002312634E+02  0.48689128600E+02  0.87297334154E+02  0.00000000000E+00 0.  1.
         14    1    5    5    0    0  0.35718144203E+02  0.15827756806E+02 -0.90315661105E+00  0.39078375128E+02  0.00000000000E+00 0. -1.
         11    1    3    3    0    0  0.71976468553E+02  0.30967362554E+02 -0.13564331627E+04  0.13586944154E+04  0.00000000000E+00 0. -1.
        -12    1    3    3    0    0 -0.14664972016E+02  0.23335375605E+02 -0.18584912964E+03  0.18788161205E+03  0.00000000000E+00 0.  1.
          5    1    4    4  501    0 -0.52965155802E+01 -0.13526304373E+03 -0.43972964538E+03  0.46011278781E+03  0.41800000000E+01 0.  1.
         -5    1    4    4    0  501 -0.62715555672E+02 -0.28697638677E+01 -0.21187688740E+03  0.22102209003E+03  0.41800000000E+01 0.  1.
</event>
<event>
11    1  0.8453735E-009  0.1503065E+03  0.7561462E-02  0.1096566E+00
         22   -1    0    0    0    0  0.00000000000E+00  0.00000000000E+00  0.10588028526E+03  0.10588028526E+03  0.00000000000E+00 0. -1.
         22   -1    0    0    0    0 -0.00000000000E+00 -0.00000000000E+00 -0.11676872209E+04  0.11676872209E+04  0.00000000000E+00 0. -1.
         24    2    1    2    0    0 -0.42773691185E+02 -0.46582932013E+02 -0.89887033808E+03  0.90468681214E+03  0.80565409222E+02 0.  0.
         25    2    1    2    0    0  0.11428684882E+03  0.65586831955E+02 -0.18289617337E+03  0.25780213146E+03  0.12509121637E+03 0.  0.
        -24    2    1    2    0    0 -0.71513157635E+02 -0.19003899941E+02  0.19959575809E+02  0.11107856255E+03  0.80403870957E+02 0.  0.
        -11    1    3    3    0    0  0.13575461631E+01 -0.23002763120E+02 -0.59192069192E+02  0.63519060902E+02  0.00000000000E+00 0.  1.
         12    1    3    3    0    0 -0.44131237349E+02 -0.23580168894E+02 -0.83967826889E+03  0.84116775124E+03  0.00000000000E+00 0. -1.
         13    1    5    5    0    0 -0.25045150280E+02  0.22524496885E+02 -0.17914625309E+02  0.38151622671E+02  0.00000000000E+00 0. -1.
        -14    1    5    5    0    0 -0.46468007355E+02 -0.41528396826E+02  0.37874201118E+02  0.72926939884E+02  0.00000000000E+00 0.  1.
          5    1    4    4  501    0  0.12152589455E+03  0.79717400185E+02 -0.10798314862E+03  0.18111112535E+03  0.41800000000E+01 0.  1.
         -5    1    4    4    0  501 -0.72390457321E+01 -0.14130568230E+02 -0.74913024747E+02  0.76691006111E+02  0.41800000000E+01 0.  1.
</event>
<event>
11    1  0.8453735E-009  0.1461193E+03  0.7561462E-02  0.1100911E+00
         22   -1    0    0    0    0  0.00000000000E+00  0.00000000000E+00  0.11722961426E+04  0.11722961426E+04  0.00000000000E+00 0.  1.
         22   -1    0    0    0    0 -0.00000000000E+00 -0.00000000000E+00 -0.72354249628E+03  0.72354249628E+03  0.00000000000E+00 0.  1.
        -24    2    1    2    0    0  0.76032834745E+02  0.14959055164E+01 -0.69680406503E+03  0.70562633455E+03  0.81175053291E+02 0.  0.
         25    2    1    2    0    0 -0.41262330073E+02 -0.59662784957E+02  0.25471592513E+03  0.29289925183E+03  0.12509013315E+03 0.  0.
         24    2    1    2    0    0 -0.34770504672E+02  0.58166879441E+02  0.89084178619E+03  0.89731305248E+03  0.83541919204E+02 0.  0.
        -11    1    5    5    0    0  0.24480039704E+02  0.37455004802E+02  0.38559006467E+03  0.38817759814E+03  0.00000000000E+00 0.  1.
         12    1    5    5    0    0 -0.59250544376E+02  0.20711874638E+02  0.50525172153E+03  0.50913545434E+03  0.00000000000E+00 0. -1.
         13    1    3    3    0    0 -0.54434447051E+01 -0.23046040499E+02 -0.98778656629E+02  0.10157742898E+03  0.00000000000E+00 0. -1.
        -14    1    3    3    0    0  0.81476279450E+02  0.24541946015E+02 -0.59802540840E+03  0.60404890557E+03  0.00000000000E+00 0.  1.
          5    1    4    4  501    0 -0.15160385220E+02  0.87692189395E+01  0.20141954704E+03  0.20222275542E+03  0.41800000000E+01 0.  1.
         -5    1    4    4    0  501 -0.26101944852E+02 -0.68432003896E+02  0.53296378094E+02  0.90676496405E+02  0.41800000000E+01 0.  1.
</event>
<event>
11    1  0.8453735E-009  0.1414775E+03  0.7561462E-02  0.1105920E+00
         22   -1    0    0    0    0  0.00000000000E+00  0.00000000000E+00  0.99783884047E+03  0.99783884047E+03  0.00000000000E+00 0. -1.
         22   -1    0    0    0    0 -0.00000000000E+00 -0.00000000000E+00 -0.39714285203E+03  0.39714285203E+03  0.00000000000E+00 0.  1.
         24    2    1    2    0    0  0.65276906220E+02  0.13451182378E+01 -0.29079293720E+03  0.30857674914E+03  0.79976208704E+02 0.  0.
         25    2    1    2    0    0 -0.70976534735E+02  0.23356505036E+02 -0.40014861152E+02  0.15110139793E+03  0.12508896247E+03 0.  0.
        -24    2    1    2    0    0  0.56996285147E+01 -0.24701623273E+02  0.93150378679E+03  0.93530354542E+03  0.80316631660E+02 0.  0.
        -13    1    3    3    0    0  0.25243901946E+02 -0.38814921723E+02 -0.14115066221E+03  0.14855087403E+03  0.00000000000E+00 0.  1.
         14    1    3    3    0    0  0.40033004274E+02  0.40160039961E+02 -0.14964227499E+03  0.16002587511E+03  0.00000000000E+00 0. -1.
         13    1    5    5    0    0 -0.12600206785E+02 -0.23643573991E+02  0.88369703666E+03  0.88410306888E+03  0.00000000000E+00 0. -1.
        -14    1    5    5    0    0  0.18299835300E+02 -0.10580492825E+01  0.47806750126E+02  0.51200476540E+02  0.00000000000E+00 0.  1.
          5    1    4    4  501    0  0.27686999957E+02 -0.78844295088E+01  0.16155746318E+02  0.33274836354E+02  0.41800000000E+01 0.  1.
         -5    1    4    4    0  501 -0.98663534691E+02  0.31240934544E+02 -0.56170607470E+02  0.11782656157E+03  0.41800000000E+01 0.  1.
</event>
<event>
11    1  0.8453735E-009  0.2543704E+03  0.7561462E-02  0.1021596E+00
         22   -1    0    0    0    0  0.00000000000E+00  0.00000000000E+00  0.22574402128E+04  0.22574402128E+04  0.00000000000E+00 0.  1.
         22   -1    0    0    0    0 -0.00000000000E+00 -0.00000000000E+00 -0.15644056052E+03  0.15644056052E+03  0.00000000000E+00 0.  1.
        -24    2    1    2    0    0  0.57864253298E+02 -0.25090457931E+01 -0.47861611945E+02  0.11227060638E+03  0.83422946713E+02 0.  0.
         25    2    1    2    0    0 -0.10501486707E+03 -0.21290358373E+03  0.19024235057E+03  0.32893089180E+03  0.12508925356E+03 0.  0.
         24    2    1    2    0    0  0.47150613772E+02  0.21541262953E+03  0.19586189137E+04  0.19726792752E+04  0.81545645431E+02 0.  0.
        -13    1    5    5    0    0  0.70739511945E+01  0.18235996453E+03  0.15830792837E+04  0.15935636843E+04  0.00000000000E+00 0.  1.
         14    1    5    5    0    0  0.40076662578E+02  0.33052665000E+02  0.37553962998E+03  0.37911559085E+03  0.00000000000E+00 0. -1.
         13    1    3    3    0    0  0.25463104399E+01 -0.36362733624E+02 -0.13467288780E+02  0.38860004639E+02  0.00000000000E+00 0. -1.
        -14    1    3    3    0    0  0.55317942858E+02  0.33853687831E+02 -0.34394323165E+02  0.73410601740E+02  0.00000000000E+00 0.  1.
          5    1    4    4  501    0 -0.12305715384E+03 -0.19126321664E+03  0.12927353314E+03  0.26163677097E+03  0.41800000000E+01 0. -1.
         -5    1    4    4    0  501  0.18042286769E+02 -0.21640367089E+02  0.60968817428E+02  0.67294120829E+02  0.41800000000E+01 0. -1.
</event>
<event>
11    1  0.8453735E-009  0.1823641E+03  0.7561462E-02  0.1067746E+00
         22   -1    0    0    0    0  0.00000000000E+00  0.00000000000E+00  0.29410646929E+03  0.29410646929E+03  0.00000000000E+00 0. -1.
         22   -1    0    0    0    0 -0.00000000000E+00 -0.00000000000E+00 -0.88760016281E+03  0.88760016281E+03  0.00000000000E+00 0.  1.
        -24    2    1    2    0    0 -0.71990340394E+02  0.22474093325E+02 -0.65322905459E+03  0.66261931820E+03  0.81660695063E+02 0.  0.
         25    2    1    2    0    0  0.12860641311E+03 -0.13492826176E+03 -0.13792896360E+03  0.26347378562E+03  0.12509512938E+03 0.  0.
         24    2    1    2    0    0 -0.56616072716E+02  0.11245416844E+03  0.19766432467E+03  0.25561352827E+03  0.10205768419E+03 0.  0.
        -13    1    5    5    0    0 -0.79512726990E+00 -0.23986285068E+01 -0.10829570193E+02  0.11120487249E+02  0.00000000000E+00 0.  1.
         14    1    5    5    0    0 -0.55820945446E+02  0.11485279694E+03  0.20849389486E+03  0.24449304103E+03  0.00000000000E+00 0. -1.
         13    1    3    3    0    0 -0.39863241965E+02 -0.88664470860E+01 -0.10665889317E+03  0.11420950677E+03  0.00000000000E+00 0. -1.
        -14    1    3    3    0    0 -0.32127098429E+02  0.31340540411E+02 -0.54657016142E+03  0.54840981143E+03  0.00000000000E+00 0.  1.
          5    1    4    4  501    0  0.81675936310E+02 -0.13081522708E+03 -0.47498699840E+02  0.16142236863E+03  0.41800000000E+01 0.  1.
         -5    1    4    4    0  501  0.46930476801E+02 -0.41130346869E+01 -0.90430263756E+02  0.10205141699E+03  0.41800000000E+01 0.  1.
</event>
<event>
11    1  0.8453735E-009  0.4027636E+03  0.7561462E-02  0.9641639E-01
         22   -1    0    0    0    0  0.00000000000E+00  0.00000000000E+00  0.94215549196E+03  0.94215549196E+03  0.00000000000E+00 0.  1.
         22   -1    0    0    0    0 -0.00000000000E+00 -0.00000000000E+00 -0.10755642552E+04  0.10755642552E+04  0.00000000000E+00 0. -1.
         24    2    1    2    0    0 -0.26554214299E+02 -0.38077971077E+03 -0.95948451713E+03  0.10358401692E+04  0.81584331488E+02 0.  0.
         25    2    1    2    0    0  0.83467015259E+02  0.39730114618E+03  0.58078995327E+03  0.71956642586E+03  0.12507568914E+03 0.  0.
        -24    2    1    2    0    0 -0.56912800960E+02 -0.16521435412E+02  0.24528580061E+03  0.26231315208E+03  0.71631285278E+02 0.  0.
        -13    1    3    3    0    0 -0.35606008463E+01 -0.19126600259E+03 -0.58533165185E+03  0.61579907785E+03  0.00000000000E+00 0.  1.
         14    1    3    3    0    0 -0.22993613453E+02 -0.18951370818E+03 -0.37415286528E+03  0.42004109138E+03  0.00000000000E+00 0. -1.
         11    1    5    5    0    0 -0.38321848617E+01  0.24533811829E+02  0.50139759126E+02  0.55951666722E+02  0.00000000000E+00 0. -1.
        -12    1    5    5    0    0 -0.53080616098E+02 -0.41055247241E+02  0.19514604149E+03  0.20636148536E+03  0.00000000000E+00 0.  1.
          5    1    4    4  501    0  0.39592577540E+02  0.35778083370E+03  0.53447865729E+03  0.64440639713E+03  0.41800000000E+01 0. -1.
         -5    1    4    4    0  501  0.43874437720E+02  0.39520312485E+02  0.46311295971E+02  0.75160028730E+02  0.41800000000E+01 0. -1.
</event>
<event>
11    1  0.8453735E-009  0.1394745E+03  0.7561462E-02  0.1108147E+00
         22   -1    0    0    0    0  0.00000000000E+00  0.00000000000E+00  0.24636054966E+04  0.24636054966E+04  0.00000000000E+00 0.  1.
         22   -1    0    0    0    0 -0.00000000000E+00 -0.00000000000E+00 -0.12941983983E+03  0.12941983983E+03  0.00000000000E+00 0. -1.
        -24    2    1    2    0    0 -0.42879096451E+02  0.42330638216E+02 -0.87991908051E+02  0.13329429569E+03  0.79964326652E+02 0.  0.
         25    2    1    2    0    0  0.87168399766E+02 -0.28833952865E+02  0.32045443291E+03  0.35604533472E+03  0.12509000778E+03 0.  0.
         24    2    1    2    0    0 -0.44289303315E+02 -0.13496685351E+02  0.21017231319E+04  0.21036857061E+04  0.78164720885E+02 0.  0.
        -13    1    5    5    0    0 -0.20446552352E+02 -0.44187022488E+02  0.14395117126E+04  0.14403348657E+04  0.00000000000E+00 0.  1.
         14    1    5    5    0    0 -0.23842750964E+02  0.30690337137E+02  0.66221141930E+03  0.66335084037E+03  0.00000000000E+00 0. -1.
         13    1    3    3    0    0 -0.55914430114E+02  0.37090927182E+02 -0.95998979866E+02  0.11712371455E+03  0.00000000000E+00 0. -1.
        -14    1    3    3    0    0  0.13035333664E+02  0.52397110340E+01  0.80070718146E+01  0.16170581143E+02  0.00000000000E+00 0.  1.
          5    1    4    4  501    0  0.65609062350E+02  0.43823901729E+02  0.15324086777E+03  0.17241032272E+03  0.41800000000E+01 0.  1.
         -5    1    4    4    0  501  0.21559337416E+02 -0.72657854594E+02  0.16721356514E+03  0.18363501200E+03  0.41800000000E+01 0.  1.
</event>
<event>
11    1  0.8453735E-009  0.1605034E+03  0.7561462E-02  0.1086605E+00
         22   -1    0    0    0    0  0.00000000000E+00  0.00000000000E+00  0.41071225857E+02  0.41071225857E+02  0.00000000000E+00 0. -1.
         22   -1    0    0    0    0 -0.00000000000E+00 -0.00000000000E+00 -0.14290778414E+04  0.14290778414E+04  0.00000000000E+00 0.  1.
        -24    2    1    2    0    0  0.62526339610E+02 -0.78320004649E+02 -0.87168569909E+03  0.88093232194E+03  0.78499882585E+02 0.  0.
         25    2    1    2    0    0 -0.64164637038E+02  0.78841123885E+02 -0.46883148043E+03  0.49576238042E+03  0.12507740536E+03 0.  0.
         24    2    1    2    0    0  0.16382974277E+01 -0.52111923627E+00 -0.47489436006E+02  0.93454364886E+02  0.80470592146E+02 0.  0.
        -13    1    5    5    0    0 -0.10137414748E+02  0.26258127586E+02  0.92411589196E+01  0.29625250383E+02  0.00000000000E+00 0.  1.
         14    1    5    5    0    0  0.11775712176E+02 -0.26779246822E+02 -0.56730594925E+02  0.63829114503E+02  0.00000000000E+00 0. -1.
         11    1    3    3    0    0  0.43769241145E+01 -0.19477521582E+02 -0.36023198745E+02  0.41184974924E+02  0.00000000000E+00 0. -1.
        -12    1    3    3    0    0  0.58149415496E+02 -0.58842483067E+02 -0.83566250034E+03  0.83974734701E+03  0.00000000000E+00 0.  1.
          5    1    4    4  501    0 -0.36827501573E+01 -0.26306393307E+02 -0.18676295876E+03  0.18868880238E+03  0.41800000000E+01 0.  1.
         -5    1    4    4    0  501 -0.60481886880E+02  0.10514751719E+03 -0.28206852167E+03  0.30707357804E+03  0.41800000000E+01 0.  1.
</event>
<event>
11    1  0.8453735E-009  0.1450205E+03  0.7561462E-02  0.1102078E+00
         22   -1    0    0    0    0  0.00000000000E+00  0.00000000000E+00  0.18013646596E+03  0.18013646596E+03  0.00000000000E+00 0.  1.
         22   -1    0    0    0    0 -0.00000000000E+00 -0.00000000000E+00 -0.10830364813E+04  0.10830364813E+04  0.00000000000E+00 0. -1.
        -24    2    1    2    0    0  0.35797442083E+02 -0.27678875903E+02 -0.96437573192E+03  0.96890364829E+03  0.81891088082E+02 0.  0.
         25    2    1    2    0    0 -0.83072526224E+02 -0.26916684783E+02 -0.28381327537E+02  0.15517125417E+03  0.12508823220E+03 0.  0.
         24    2    1    2    0    0  0.47275084141E+02  0.54595560686E+02  0.89857044126E+02  0.13909804480E+03  0.77835524424E+02 0.  0.
        -13    1    5    5    0    0 -0.16751557158E+01  0.48151452485E+02  0.17007990778E+02  0.51094425071E+02  0.00000000000E+00 0.  1.
         14    1    5    5    0    0  0.48950239856E+02  0.64441082013E+01  0.72849053348E+02  0.88003619733E+02  0.00000000000E+00 0. -1.
         11    1    3    3    0    0  0.33977095598E+02 -0.10250650028E+02 -0.92640561307E+03  0.92708515185E+03  0.00000000000E+00 0. -1.
        -12    1    3    3    0    0  0.18203464851E+01 -0.17428225876E+02 -0.37970118857E+02  0.41818496440E+02  0.00000000000E+00 0.  1.
          5    1    4    4  501    0 -0.28700371638E+02  0.40999334814E+02 -0.43895582637E+02  0.66700459986E+02  0.41800000000E+01 0. -1.
         -5    1    4    4    0  501 -0.54372154586E+02 -0.67916019596E+02  0.15514255100E+02  0.88470794183E+02  0.41800000000E+01 0. -1.
</event>
<event>
11    1  0.8453735E-009  0.1545323E+03  0.7561462E-02  0.1092336E+00
         22   -1    0    0    0    0  0.00000000000E+00  0.00000000000E+00  0.14401840171E+04  0.14401840171E+04  0.00000000000E+00 0.  1.
         22   -1    0    0    0    0 -0.00000000000E+00 -0.00000000000E+00 -0.52874325775E+03  0.52874325775E+03  0.00000000000E+00 0. -1.
        -24    2    1    2    0    0 -0.61367501636E+02  0.60263362848E+02 -0.40063756284E+03  0.41782650841E+03  0.81675523937E+02 0.  0.
         25    2    1    2    0    0  0.84029592540E+02 -0.97327688665E+02 -0.49844108329E+02  0.18618665756E+03  0.12508950761E+03 0.  0.
         24    2    1    2    0    0 -0.22662090904E+02  0.37064325817E+02  0.13619224305E+04  0.13649141089E+04  0.79186383357E+02 0.  0.
        -13    1    5    5    0    0 -0.44904579114E+02  0.53762480091E+01  0.97786638499E+03  0.97891163654E+03  0.00000000000E+00 0.  1.
         14    1    5    5    0    0  0.22242488210E+02  0.31688077808E+02  0.38405604553E+03  0.38600247236E+03  0.00000000000E+00 0. -1.
         11    1    3    3    0    0 -0.49748089963E+02 -0.53556215013E+01 -0.20995087941E+03  0.21583078302E+03  0.00000000000E+00 0. -1.
        -12    1    3    3    0    0 -0.11619411673E+02  0.65618984349E+02 -0.19068668343E+03  0.20199572538E+03  0.00000000000E+00 0.  1.
          5    1    4    4  501    0 -0.13715232823E+02 -0.66433939512E+02 -0.48653766446E+02  0.83583714441E+02  0.41800000000E+01 0.  1.
         -5    1    4    4    0  501  0.97744825363E+02 -0.30893749153E+02 -0.11903418838E+01  0.10260294311E+03  0.41800000000E+01 0.  1.
</event>
<event>
11    1  0.8453735E-009  0.2139243E+03  0.7561462E-02  0.1045092E+00
         22   -1    0    0    0    0  0.00000000000E+00  0.00000000000E+00  0.17387902839E+04  0.17387902839E+04  0.00000000000E+00 0.  1.
         22   -1    0    0    0    0 -0.00000000000E+00 -0.00000000000E+00 -0.91662357482E+03  0.91662357482E+03  0.00000000000E+00 0.  1.
         24    2    1    2    0    0 -0.14935670577E+03 -0.88372204789E+02 -0.88584016082E+03  0.90618595836E+03  0.79643759695E+02 0.  0.
         25    2    1    2    0    0  0.15304658065E+03  0.81829740150E+02  0.58021548520E+03  0.61839857807E+03  0.12508968733E+03 0.  0.
        -24    2    1    2    0    0 -0.36898748808E+01  0.65424646386E+01  0.11277913847E+04  0.11308293223E+04  0.82493210266E+02 0.  0.
        -11    1    3    3    0    0 -0.55202304172E+02 -0.78542871174E+02 -0.42157227693E+03  0.43236496351E+03  0.00000000000E+00 0.  1.
         12    1    3    3    0    0 -0.94154401602E+02 -0.98293336152E+01 -0.46426788390E+03  0.47382099485E+03  0.00000000000E+00 0. -1.
         13    1    5    5    0    0  0.35939891769E+02 -0.13265675736E+02  0.48211598894E+03  0.48363569013E+03  0.00000000000E+00 0. -1.
        -14    1    5    5    0    0 -0.39629766650E+02  0.19808140374E+02  0.64567539575E+03  0.64719363215E+03  0.00000000000E+00 0.  1.
          5    1    4    4  501    0  0.92798506889E+02  0.62689380971E+02  0.17194243367E+03  0.20523935847E+03  0.41800000000E+01 0.  1.
         -5    1    4    4    0  501  0.60248073765E+02  0.19140359179E+02  0.40827305153E+03  0.41315921960E+03  0.41800000000E+01 0.  1.
</event>
<event>
11    1  0.8453735E-009  0.1318956E+03  0.7561462E-02  0.1116962E+00
         22   -1    0    0    0    0  0.00000000000E+00  0.00000000000E+00  0.27899881951E+03  0.27899881951E+03  0.00000000000E+00 0.  1.
         22   -1    0    0    0    0 -0.00000000000E+00 -0.00000000000E+00 -0.10934679374E+04  0.10934679374E+04  0.00000000000E+00 0.  1.
         24    2    1    2    0    0  0.35775261672E+02  0.18638976157E+02 -0.91603723112E+03  0.92046405667E+03  0.80638638636E+02 0.  0.
         25    2    1    2    0    0 -0.58461817698E+02 -0.19200875486E+02 -0.14057821458E+03  0.19798358576E+03  0.12509519602E+03 0.  0.
        -24    2    1    2    0    0  0.22686556026E+02  0.56189932961E+00  0.24214632783E+03  0.25401911446E+03  0.73320330564E+02 0.  0.
        -13    1    3    3    0    0  0.33706740143E+02  0.48711394883E+02 -0.66190699071E+03  0.66455233705E+03  0.00000000000E+00 0.  1.
         14    1    3    3    0    0  0.20685215283E+01 -0.30072418727E+02 -0.25413024041E+03  0.25591171963E+03  0.00000000000E+00 0. -1.
         11    1    5    5    0    0  0.79381610684E+01  0.24887766580E+02  0.29194916364E+02  0.39175993516E+02  0.00000000000E+00 0. -1.
        -12    1    5    5    0    0  0.14748394958E+02 -0.24325867250E+02  0.21295141147E+03  0.21484312095E+03  0.00000000000E+00 0.  1.
          5    1    4    4  501    0 -0.44282933912E+02  0.38926006367E+02 -0.12138372105E+03  0.13500997127E+03  0.41800000000E+01 0.  1.
         -5    1    4    4    0  501 -0.14178883786E+02 -0.58126881853E+02 -0.19194493526E+02  0.62973614483E+02  0.41800000000E+01 0.  1.
</event>
<event>
11    1  0.8453735E-009  0.1716188E+03  0.7561462E-02  0.1076631E+00
         22   -1    0    0    0    0  0.00000000000E+00  0.00000000000E+00  0.45696488637E+02  0.45696488637E+02  0.00000000000E+00 0.  1.
         22   -1    0    0    0    0 -0.00000000000E+00 -0.00000000000E+00 -0.10437453518E+04  0.10437453518E+04  0.00000000000E+00 0. -1.
        -24    2    1    2    0    0 -0.62467331709E+00  0.28453755529E+02 -0.35112550825E+03  0.36125401502E+03  0.80033333046E+02 0.  0.
         25    2    1    2    0    0  0.46342098152E+02 -0.12845038594E+03 -0.47267962854E+03  0.50766120748E+03  0.12508708419E+03 0.  0.
         24    2    1    2    0    0 -0.45717424835E+02  0.99996630415E+02 -0.17424372637E+03  0.22052661794E+03  0.78623813277E+02 0.  0.
        -11    1    5    5    0    0 -0.33857594909E+02  0.94729298908E+02 -0.18009879218E+03  0.20628997006E+03  0.00000000000E+00 0.  1.
         12    1    5    5    0    0 -0.11859829927E+02  0.52673315074E+01  0.58550658126E+01  0.14236647877E+02  0.00000000000E+00 0. -1.
         13    1    3    3    0    0  0.28555270317E+02  0.26523229339E+02 -0.29863236756E+03  0.30116469931E+03  0.00000000000E+00 0. -1.
        -14    1    3    3    0    0 -0.29179943634E+02  0.19305261905E+01 -0.52493140694E+02  0.60089315704E+02  0.00000000000E+00 0.  1.
          5    1    4    4  501    0  0.67488892205E+01 -0.11254581771E+03 -0.43864217986E+03  0.45292001826E+03  0.41800000000E+01 0. -1.
         -5    1    4    4    0  501  0.39593208932E+02 -0.15904568236E+02 -0.34037448683E+02  0.54741189219E+02  0.41800000000E+01 0. -1.
</event>
<event>
11    1  0.8453735E-009  0.1823563E+03  0.7561462E-02  0.1067753E+00
         22   -1    0    0    0    0  0.00000000000E+00  0.00000000000E+00  0.39269633240E+02  0.39269633240E+02  0.00000000000E+00 0. -1.
         22   -1    0    0    0    0 -0.00000000000E+00 -0.00000000000E+00 -0.19729389217E+04  0.19729389217E+04  0.00000000000E+00 0.  1.
         24    2    1    2    0    0 -0.39210529510E+02  0.13546953396E+03 -0.14095513598E+04  0.14188290176E+04  0.79694950996E+02 0.  0.
         25    2    1    2    0    0  0.83271724677E+02 -0.73319861805E+02 -0.32283047570E+03  0.36356154625E+03  0.12508996605E+03 0.  0.
        -24    2    1    2    0    0 -0.44061195167E+02 -0.62149672154E+02 -0.20128745300E+03  0.22981799106E+03  0.80595903187E+02 0.  0.
        -13    1    3    3    0    0 -0.52164359910E+02  0.40255630751E+02 -0.56654371984E+03  0.57036253624E+03  0.00000000000E+00 0.  1.
         14    1    3    3    0    0  0.12953830400E+02  0.95213903207E+02 -0.84300763991E+03  0.84846648139E+03  0.00000000000E+00 0. -1.
         13    1    5    5    0    0 -0.52446990370E+02 -0.69411640291E+01 -0.12057892246E+03  0.13167438284E+03  0.00000000000E+00 0. -1.
        -14    1    5    5    0    0  0.83857952032E+01 -0.55208508125E+02 -0.80708530540E+02  0.98143608210E+02  0.00000000000E+00 0.  1.
          5    1    4    4  501    0 -0.20452891077E+02 -0.51087463838E+02 -0.15933802054E+03  0.16862481106E+03  0.41800000000E+01 0. -1.
         -5    1    4    4    0  501  0.10372461575E+03 -0.22232397966E+02 -0.16349245515E+03  0.19493673519E+03  0.41800000000E+01 0. -1.
</event>
<event>
11    1  0.8453735E-009  0.1368358E+03  0.7561462E-02  0.1111144E+00
         22   -1    0    0    0    0  0.00000000000E+00  0.00000000000E+00  0.14453673982E+04  0.14453673982E+04  0.00000000000E+00 0. -1.
         22   -1    0    0    0    0 -0.00000000000E+00 -0.00000000000E+00 -0.25591434752E+03  0.25591434752E+03  0.00000000000E+00 0.  1.
         24    2    1    2    0    0  0.10397444453E+02 -0.53994256795E+02 -0.23107008465E+03  0.24728300151E+03  0.68789622772E+02 0.  0.
         25    2    1    2    0    0 -0.27389557481E+02  0.72670369994E+02  0.34375067684E+03  0.37395663686E+03  0.12509143812E+03 0.  0.
        -24    2    1    2    0    0  0.16992113028E+02 -0.18676113200E+02  0.10767724585E+04  0.10800421074E+04  0.80090556151E+02 0.  0.
        -11    1    3    3    0    0  0.10652911153E+02 -0.69902181104E+02 -0.20371492663E+03  0.21563759127E+03  0.00000000000E+00 0.  1.
         12    1    3    3    0    0 -0.25546670024E+00  0.15907924309E+02 -0.27355158018E+02  0.31645410240E+02  0.00000000000E+00 0. -1.
         11    1    5    5    0    0  0.40963286862E+02 -0.11775411359E+01  0.88852090943E+03  0.88946544844E+03  0.00000000000E+00 0. -1.
        -12    1    5    5    0    0 -0.23971173835E+02 -0.17498572064E+02  0.18825154907E+03  0.19057665892E+03  0.00000000000E+00 0.  1.
          5    1    4    4  501    0  0.29434582961E+02  0.94332101629E+01  0.22882826933E+03  0.23094421269E+03  0.41800000000E+01 0.  1.
         -5    1    4    4    0  501 -0.56824140441E+02  0.63237159831E+02  0.11492240750E+03  0.14301242417E+03  0.41800000000E+01 0.  1.
</event>
<event>
11    1  0.8453735E-009  0.1431340E+03  0.7561462E-02  0.1104108E+00
         22   -1    0    0    0    0  0.00000000000E+00  0.00000000000E+00  0.75703470138E+03  0.75703470138E+03  0.00000000000E+00 0.  1.
         22   -1    0    0    0    0 -0.00000000000E+00 -0.00000000000E+00 -0.37108732307E+03  0.37108732307E+03  0.00000000000E+00 0.  1.
         24    2    1    2    0    0  0.67203496964E+02 -0.48668055952E+01 -0.30366296876E+03  0.32171524201E+03  0.82155356160E+02 0.  0.
         25    2    1    2    0    0 -0.95963750725E+02  0.19812807945E+02  0.58387535963E+02  0.16928586791E+03  0.12508801664E+03 0.  0.
        -24    2    1    2    0    0  0.28760253761E+02 -0.14946002350E+02  0.63122281111E+03  0.63712091453E+03  0.80189072111E+02 0.  0.
        -13    1    3    3    0    0  0.26061260968E+02  0.17529493658E+02 -0.27926417406E+02  0.42028053253E+02  0.00000000000E+00 0.  1.
         14    1    3    3    0    0  0.41142235996E+02 -0.22396299253E+02 -0.27573655136E+03  0.27968718876E+03  0.00000000000E+00 0. -1.
         13    1    5    5    0    0  0.70460524955E+01 -0.23871750274E+02  0.54434555039E+02  0.59855059095E+02  0.00000000000E+00 0. -1.
        -14    1    5    5    0    0  0.21714201266E+02  0.89257479245E+01  0.57678825607E+03  0.57726585543E+03  0.00000000000E+00 0.  1.
          5    1    4    4  501    0 -0.19487035995E+00  0.11686816105E+02 -0.33821694801E+02  0.36027754361E+02  0.41800000000E+01 0.  1.
         -5    1    4    4    0  501 -0.95768880365E+02  0.81259918399E+01  0.92209230763E+02  0.13325811355E+03  0.41800000000E+01 0.  1.
</event>
<event>
11    1  0.8453735E-009  0.1482773E+03  0.7561462E-02  0.1098652E+00
         22   -1    0    0    0    0  0.00000000000E+00  0.00000000000E+00  0.24235057765E+04  0.24235057765E+04  0.00000000000E+00 0. -1.
         22   -1    0    0    0    0 -0.00000000000E+00 -0.00000000000E+00 -0.51609505017E+02  0.51609505017E+02  0.00000000000E+00 0.  1.
         24    2    1    2    0    0  0.28090608105E+02 -0.76054883299E+02  0.28578091117E+02  0.11735602480E+03  0.79889309224E+02 0.  0.
         25    2    1    2    0    0 -0.33723303677E+02  0.54960245989E+02  0.80970631605E+03  0.82184499271E+03  0.12508790489E+03 0.  0.
        -24    2    1    2    0    0  0.56326955722E+01  0.21094637310E+02  0.15336118643E+04  0.15359142640E+04  0.81182294896E+02 0.  0.
        -13    1    3    3    0    0  0.39994077777E+02 -0.58101534774E+02 -0.11871791716E+02  0.71527994791E+02  0.00000000000E+00 0.  1.
         14    1    3    3    0    0 -0.11903469672E+02 -0.17953348525E+02  0.40449882833E+02  0.45828030011E+02  0.00000000000E+00 0. -1.
         11    1    5    5    0    0  0.67070737450E+01  0.30790778351E+02  0.15104895095E+04  0.15108181939E+04  0.00000000000E+00 0. -1.
        -12    1    5    5    0    0 -0.10743781729E+01 -0.96961410418E+01  0.23122354816E+02  0.25096070047E+02  0.00000000000E+00 0.  1.
          5    1    4    4  501    0 -0.34750871446E+02  0.87952430284E+02  0.71946123655E+03  0.72566190223E+03  0.41800000000E+01 0. -1.
         -5    1    4    4    0  501  0.10275677690E+01 -0.32992184295E+02  0.90245079500E+02  0.96183090479E+02  0.41800000000E+01 0. -1.
</event>
<event>
11    1  0.8453735E-009  0.1553883E+03  0.7561462E-02  0.1091497E+00
         22   -1    0    0    0    0  0.00000000000E+00  0.00000000000E+00  0.21196661330E+04  0.21196661330E+04  0.00000000000E+00 0.  1.
         22   -1    0    0    0    0 -0.00000000000E+00 -0.00000000000E+00 -0.32571874623E+02  0.32571874623E+02  0.00000000000E+00 0.  1.
        -24    2    1    2    0    0  0.52576279601E+02 -0.84634469041E+02  0.14806846088E+03  0.19879240616E+03  0.87560796668E+02 0.  0.
         25    2    1    2    0    0 -0.49692818651E+01  0.53751569958E+02  0.10065531849E+04  0.10157316342E+04  0.12509002273E+03 0.  0.
         24    2    1    2    0    0 -0.47606997736E+02  0.30882899083E+02  0.93247261267E+03  0.93771396726E+03  0.81130335497E+02 0.  0.
        -11    1    5    5    0    0 -0.47743979236E+02  0.11057975341E+02  0.88381163838E+03  0.88516935019E+03  0.00000000000E+00 0.  1.
         12    1    5    5    0    0  0.13698149996E+00  0.19824923742E+02  0.48660974287E+02  0.52544617078E+02  0.00000000000E+00 0. -1.
         13    1    3    3    0    0  0.15869740405E+01  0.17561225529E+01  0.74141440016E+02  0.74179212591E+02  0.00000000000E+00 0. -1.
        -14    1    3    3    0    0  0.50989305560E+02 -0.86390591594E+02  0.73927020859E+02  0.12461319357E+03  0.00000000000E+00 0.  1.
          5    1    4    4  501    0 -0.35101323698E+02  0.75551104101E+01  0.82842057526E+03  0.82920884253E+03  0.41800000000E+01 0. -1.
         -5    1    4    4    0  501  0.30132041833E+02  0.46196459548E+02  0.17813260962E+03  0.18652279171E+03  0.41800000000E+01 0. -1.
</event>
<event>
11    1  0.8453735E-009  0.1926611E+03  0.7561462E-02  0.1059838E+00
         22   -1    0    0    0    0  0.00000000000E+00  0.00000000000E+00  0.56860623496E+03  0.56860623496E+03  0.00000000000E+00 0. -1.
         22   -1    0    0    0    0 -0.00000000000E+00 -0.00000000000E+00 -0.34225444794E+03  0.34225444794E+03  0.00000000000E+00 0.  1.
        -24    2    1    2    0    0  0.12218549034E+03  0.74476573991E+02 -0.24570681575E+03  0.29546854573E+03  0.80335347672E+02 0.  0.
         25    2    1    2    0    0 -0.13821283190E+03 -0.98454090233E+02  0.97762490550E+02  0.23238041837E+03  0.12508860658E+03 0.  0.
         24    2    1    2    0    0  0.16027341564E+02  0.23977516242E+02  0.37429611222E+03  0.38301171881E+03  0.75951301208E+02 0.  0.
        -13    1    5    5    0    0  0.31096478404E+02  0.11830818452E+02  0.64171882708E+02  0.72284090675E+02  0.00000000000E+00 0.  1.
         14    1    5    5    0    0 -0.15069136839E+02  0.12146697790E+02  0.31012422952E+03  0.31072762813E+03  0.00000000000E+00 0. -1.
         13    1    3    3    0    0 -0.92763172565E+01  0.14261277426E+02 -0.12653946626E+02  0.21202746540E+02  0.00000000000E+00 0. -1.
        -14    1    3    3    0    0  0.13146180759E+03  0.60215296566E+02 -0.23305286913E+03  0.27426579919E+03  0.00000000000E+00 0.  1.
          5    1    4    4  501    0  0.11447234935E+02  0.62972904646E+00  0.42970431140E+02  0.44669520914E+02  0.41800000000E+01 0.  1.
         -5    1    4    4    0  501 -0.14966006684E+03 -0.99083819279E+02  0.54792059411E+02  0.18771089745E+03  0.41800000000E+01 0.  1.
</event>
<event>
11    1  0.8453735E-009  0.2644709E+03  0.7561462E-02  0.1016461E+00
         22   -1    0    0    0    0  0.00000000000E+00  0.00000000000E+00  0.58874664257E+03  0.58874664257E+03  0.00000000000E+00 0.  1.
         22   -1    0    0    0    0 -0.00000000000E+00 -0.00000000000E+00 -0.15937983358E+04  0.15937983358E+04  0.00000000000E+00 0. -1.
        -24    2    1    2    0    0  0.86028305037E+02  0.21696668468E+03 -0.14695148835E+04  0.14901762834E+04  0.81706493859E+02 0.  0.
         25    2    1    2    0    0 -0.98485201621E+02 -0.20554283985E+03  0.43549018373E+02  0.26360836599E+03  0.12508261138E+03 0.  0.
         24    2    1    2    0    0  0.12456896584E+02 -0.11423844830E+02  0.42091417186E+03  0.42876032905E+03  0.79881169193E+02 0.  0.
        -13    1    5    5    0    0 -0.28235857566E+02 -0.22435178452E+02  0.25672225619E+03  0.25924297041E+03  0.00000000000E+00 0.  1.
         14    1    5    5    0    0  0.40692754150E+02  0.11011333622E+02  0.16419191567E+03  0.16951735864E+03  0.00000000000E+00 0. -1.
         13    1    3    3    0    0  0.78883941381E+02  0.19204768812E+03 -0.14107797366E+04  0.14259749142E+04  0.00000000000E+00 0. -1.
        -14    1    3    3    0    0  0.71443636557E+01  0.24918996557E+02 -0.58735146928E+02  0.64201369191E+02  0.00000000000E+00 0.  1.
          5    1    4    4  501    0 -0.98948154721E+02 -0.21507014753E+03  0.59887310349E+02  0.24423322465E+03  0.41800000000E+01 0.  1.
         -5    1    4    4    0  501  0.46295310020E+00  0.95273076874E+01 -0.16338291977E+02  0.19375141343E+02  0.41800000000E+01 0.  1.
</event>
<event>
11    1  0.8453735E-009  0.1707643E+03  0.7561462E-02  0.1077368E+00
         22   -1    0    0    0    0  0.00000000000E+00  0.00000000000E+00  0.37112406056E+03  0.37112406056E+03  0.00000000000E+00 0.  1.
         22   -1    0    0    0    0 -0.00000000000E+00 -0.00000000000E+00 -0.94394143615E+03  0.94394143615E+03  0.00000000000E+00 0. -1.
         24    2    1    2    0    0 -0.15699617344E+02  0.11783049470E+03 -0.83543752092E+03  0.84859841592E+03  0.89626540019E+02 0.  0.
         25    2    1    2    0    0  0.12948967230E+02 -0.90490593916E+02 -0.33733118213E+02  0.15855590474E+03  0.12508328556E+03 0.  0.
        -24    2    1    2    0    0  0.27506501139E+01 -0.27339900781E+02  0.29635326355E+03  0.30791117605E+03  0.78924009462E+02 0.  0.
        -11    1    3    3    0    0 -0.14628171604E+02  0.36523799745E+02 -0.83813203800E+02  0.92588468415E+02  0.00000000000E+00 0.  1.
         12    1    3    3    0    0 -0.10714457395E+01  0.81306694953E+02 -0.75162431712E+03  0.75600994750E+03  0.00000000000E+00 0. -1.
         11    1    5    5    0    0 -0.16397304195E+02  0.88156296779E+01  0.15879952979E+02  0.24469569226E+02  0.00000000000E+00 0. -1.
        -12    1    5    5    0    0  0.19147954309E+02 -0.36155530459E+02  0.28047331057E+03  0.28344160682E+03  0.00000000000E+00 0.  1.
          5    1    4    4  501    0  0.13249609539E+02 -0.11920550248E+03 -0.43926268710E+02  0.12779864419E+03  0.41800000000E+01 0.  1.
         -5    1    4    4    0  501 -0.30064230938E+00  0.28714908564E+02  0.10193150498E+02  0.30757260553E+02  0.41800000000E+01 0.  1.
</event>
<event>
11    1  0.8453735E-009  0.2001418E+03  0.7561462E-02  0.1054423E+00
         22   -1    0    0    0    0  0.00000000000E+00  0.00000000000E+00  0.58721194900E+03  0.58721194900E+03  0.00000000000E+00 0.  1.
         22   -1    0    0    0    0 -0.00000000000E+00 -0.00000000000E+00 -0.36987664578E+03  0.36987664578E+03  0.00000000000E+00 0.  1.
        -24    2    1    2    0    0  0.97364041723E+01  0.17320545189E+02 -0.28565314334E+03  0.29729687547E+03  0.79955706564E+02 0.  0.
         25    2    1    2    0    0 -0.15294953790E+03  0.43725039207E+02  0.10834476022E+03  0.22954471627E+03  0.12508696774E+03 0.  0.
         24    2    1    2    0    0  0.14321313373E+03 -0.61045584397E+02  0.39464368634E+03  0.43024700305E+03  0.71639928980E+02 0.  0.
        -11    1    5    5    0    0  0.11325195307E+03 -0.15726284055E+02  0.30100109007E+03  0.32198598899E+03  0.00000000000E+00 0.  1.
         12    1    5    5    0    0  0.29961180665E+02 -0.45319300342E+02  0.93642596265E+02  0.10826101406E+03  0.00000000000E+00 0. -1.
         11    1    3    3    0    0  0.99029772350E+01 -0.28863230047E+02 -0.64251180237E+02  0.71129242711E+02  0.00000000000E+00 0. -1.
        -12    1    3    3    0    0 -0.16657306274E+00  0.46183775236E+02 -0.22140196310E+03  0.22616763276E+03  0.00000000000E+00 0.  1.
          5    1    4    4  501    0 -0.16961528198E+03  0.26393082830E+02  0.11179913264E+03  0.20489621071E+03  0.41800000000E+01 0. -1.
         -5    1    4    4    0  501  0.16665744075E+02  0.17331956377E+02 -0.34543724236E+01  0.24648505559E+02  0.41800000000E+01 0. -1.
</event>
<event>
11    1  0.8453735E-009  0.1491084E+03  0.7561462E-02  0.1097793E+00
         22   -1    0    0    0    0  0.00000000000E+00  0.00000000000E+00  0.60761027837E+03  0.60761027837E+03  0.00000000000E+00 0. -1.
         22   -1    0    0    0    0 -0.00000000000E+00 -0.00000000000E+00 -0.43603748497E+03  0.43603748497E+03  0.00000000000E+00 0.  1.
         24    2    1    2    0    0  0.58428135036E+02  0.97668225360E+01 -0.29870168782E+03  0.31594433060E+03  0.84195510266E+02 0.  0.
         25    2    1    2    0    0  0.94212222881E+01  0.39068964001E+02 -0.87846763402E+02  0.15801598787E+03  0.12504741182E+03 0.  0.
        -24    2    1    2    0    0 -0.67849357324E+02 -0.48835786537E+02  0.55812124461E+03  0.56968744487E+03  0.77820253279E+02 0.  0.
        -13    1    3    3    0    0 -0.18796344215E+02 -0.88076766074E+01 -0.36649855556E+02  0.42119943440E+02  0.00000000000E+00 0.  1.
         14    1    3    3    0    0  0.77224479251E+02  0.18574499143E+02 -0.26205183226E+03  0.27382438716E+03  0.00000000000E+00 0. -1.
         11    1    5    5    0    0 -0.84075728524E+02 -0.50156351697E+02  0.48317878278E+03  0.49299708302E+03  0.00000000000E+00 0. -1.
        -12    1    5    5    0    0  0.16226371199E+02  0.13205651604E+01  0.74942461833E+02  0.76690361847E+02  0.00000000000E+00 0.  1.
          5    1    4    4  501    0  0.19474045669E+02 -0.10151581121E+02 -0.10298366345E+03  0.10538216354E+03  0.41800000000E+01 0.  1.
         -5    1    4    4    0  501 -0.10052823381E+02  0.49220545121E+02  0.15136900052E+02  0.52633824326E+02  0.41800000000E+01 0.  1.
</event>
<event>
11    1  0.8453735E-009  0.1390760E+03  0.7561462E-02  0.1108595E+00
         22   -1    0    0    0    0  0.00000000000E+00  0.00000000000E+00  0.52830556405E+02  0.52830556405E+02  0.00000000000E+00 0. -1.
         22   -1    0    0    0    0 -0.00000000000E+00 -0.00000000000E+00 -0.14652077834E+04  0.14652077834E+04  0.00000000000E+00 0. -1.
        -24    2    1    2    0    0 -0.46012563967E+02  0.36858228979E+02 -0.11227284504E+04  0.11271683814E+04  0.80707506349E+02 0.  0.
         25    2    1    2    0    0  0.83146012477E+02 -0.17696783669E+02 -0.26315316341E+03  0.30352382410E+03  0.12510271316E+03 0.  0.
         24    2    1    2    0    0 -0.37133448511E+02 -0.19161445310E+02 -0.26495613139E+02  0.87346134270E+02  0.71981078567E+02 0.  0.
        -13    1    5    5    0    0 -0.27828412897E+01 -0.20446504361E+02 -0.44127060202E+02  0.48713460032E+02  0.00000000000E+00 0.  1.
         14    1    5    5    0    0 -0.34350607221E+02  0.12850590513E+01  0.17631447063E+02  0.38632674238E+02  0.00000000000E+00 0. -1.
         11    1    3    3    0    0  0.29354720628E+01  0.49003797338E+02 -0.60565111484E+03  0.60763744293E+03  0.00000000000E+00 0. -1.
        -12    1    3    3    0    0 -0.48948036029E+02 -0.12145568358E+02 -0.51707733561E+03  0.51953093850E+03  0.00000000000E+00 0.  1.
          5    1    4    4  501    0  0.57554737663E+02 -0.33914597707E+02 -0.26457097520E+03  0.27290661605E+03  0.41800000000E+01 0.  1.
         -5    1    4    4    0  501  0.25591274814E+02  0.16217814038E+02  0.14178117857E+01  0.30617208054E+02  0.41800000000E+01 0.  1.
</event>
<event>
11    1  0.8453735E-009  0.1689636E+03  0.7561462E-02  0.1078937E+00
         22   -1    0    0    0    0  0.00000000000E+00  0.00000000000E+00  0.13877853182E+03  0.13877853182E+03  0.00000000000E+00 0. -1.
         22   -1    0    0    0    0 -0.00000000000E+00 -0.00000000000E+00 -0.12326205514E+04  0.12326205514E+04  0.00000000000E+00 0.  1.
         24    2    1    2    0    0  0.92614346285E+02  0.45549402759E+02 -0.84313201894E+03  0.85320595156E+03  0.80228605832E+02 0.  0.
         25    2    1    2    0    0 -0.16262557452E+03 -0.11823546809E+03 -0.29806629732E+03  0.38068005882E+03  0.12508831352E+03 0.  0.
        -24    2    1    2    0    0  0.70011228232E+02  0.72686065333E+02  0.47356296675E+02  0.13751307284E+03  0.80513292045E+02 0.  0.
        -13    1    3    3    0    0  0.54983948844E+02  0.64010782365E+02 -0.44979529162E+03  0.45764223936E+03  0.00000000000E+00 0.  1.
         14    1    3    3    0    0  0.37630397441E+02 -0.18461379606E+02 -0.39333672732E+03  0.39556371220E+03  0.00000000000E+00 0. -1.
         11    1    5    5    0    0  0.32366186226E+02  0.20181135685E+02  0.60561050152E+02  0.71571565889E+02  0.00000000000E+00 0. -1.
        -12    1    5    5    0    0  0.37645042006E+02  0.52504929648E+02 -0.13204753477E+02  0.65941506954E+02  0.00000000000E+00 0.  1.
          5    1    4    4  501    0 -0.18416329344E+02 -0.28877125114E+02  0.34619703882E+01  0.34677185300E+02  0.41800000000E+01 0.  1.
         -5    1    4    4    0  501 -0.14420924517E+03 -0.89358342979E+02 -0.30152826771E+03  0.34600287352E+03  0.41800000000E+01 0.  1.
</event>
<event>
11    1  0.8453735E-009  0.1487039E+03  0.7561462E-02  0.1098211E+00
         22   -1    0    0    0    0  0.00000000000E+00  0.00000000000E+00  0.29038235018E+03  0.29038235018E+03  0.00000000000E+00 0. -1.
         22   -1    0    0    0    0 -0.00000000000E+00 -0.00000000000E+00 -0.20056986056E+04  0.20056986056E+04  0.00000000000E+00 0.  1.
         24    2    1    2    0    0  0.76310789171E+02 -0.10242469709E+00 -0.15712316376E+04  0.15751613875E+04  0.80877626788E+02 0.  0.
         25    2    1    2    0    0 -0.11555372605E+03 -0.57840829016E+01 -0.40812094440E+03  0.44227095510E+03  0.12511903630E+03 0.  0.
        -24    2    1    2    0    0  0.39242936876E+02  0.58865075987E+01  0.26403632658E+03  0.27864861323E+03  0.79719563712E+02 0.  0.
        -13    1    3    3    0    0  0.32535493236E+02  0.40169524545E+02 -0.74590818275E+03  0.74769724228E+03  0.00000000000E+00 0.  1.
         14    1    3    3    0    0  0.43775295935E+02 -0.40271949242E+02 -0.82532345488E+03  0.82746414521E+03  0.00000000000E+00 0. -1.
         13    1    5    5    0    0  0.44732790237E+02 -0.28533256820E+02  0.18038303066E+03  0.18802448515E+03  0.00000000000E+00 0. -1.
        -14    1    5    5    0    0 -0.54898533605E+01  0.34419764419E+02  0.83653295916E+02  0.90624128080E+02  0.00000000000E+00 0.  1.
          5    1    4    4  501    0 -0.22750677175E+02 -0.58876615324E+02 -0.16092512824E+03  0.17291159141E+03  0.41800000000E+01 0. -1.
         -5    1    4    4    0  501 -0.92803048872E+02  0.53092532422E+02 -0.24719581616E+03  0.26935936369E+03  0.41800000000E+01 0. -1.
</event>
<event>
11    1  0.8453735E-009  0.1703694E+03  0.7561462E-02  0.1077711E+00
         22   -1    0    0    0    0  0.00000000000E+00  0.00000000000E+00  0.13662032758E+04  0.13662032758E+04  0.00000000000E+00 0. -1.
         22   -1    0    0    0    0 -0.00000000000E+00 -0.00000000000E+00 -0.16449787924E+04  0.16449787924E+04  0.00000000000E+00 0. -1.
        -24    2    1    2    0    0 -0.56692315325E+02  0.10191830027E+03 -0.15237686459E+04  0.15303260736E+04  0.80160131954E+02 0.  0.
         25    2    1    2    0    0  0.68271375491E+02 -0.75605391859E+02 -0.60693228687E+02  0.17235817682E+03  0.12508603886E+03 0.  0.
         24    2    1    2    0    0 -0.11579060167E+02 -0.26312908413E+02  0.13056863580E+04  0.13084978178E+04  0.80766515009E+02 0.  0.
        -11    1    5    5    0    0  0.25171061070E+01  0.11284132339E+01  0.33133133557E+00  0.27782944470E+01  0.00000000000E+00 0.  1.
         12    1    5    5    0    0 -0.14096166274E+02 -0.27441321647E+02  0.13053550266E+04  0.13057195233E+04  0.00000000000E+00 0. -1.
         11    1    3    3    0    0 -0.74262882908E+02  0.95132836159E+02 -0.12136047284E+04  0.12195907793E+04  0.00000000000E+00 0. -1.
        -12    1    3    3    0    0  0.17570567583E+02  0.67854641135E+01 -0.31016391750E+03  0.31073529424E+03  0.00000000000E+00 0.  1.
          5    1    4    4  501    0  0.69076819438E+02 -0.27626861540E+01  0.10927183678E+02  0.70115013810E+02  0.41800000000E+01 0.  1.
         -5    1    4    4    0  501 -0.80544394643E+00 -0.72842705706E+02 -0.71620412365E+02  0.10224316301E+03  0.41800000000E+01 0.  1.
</event>
<event>
11    1  0.8453735E-009  0.1499632E+03  0.7561462E-02  0.1096916E+00
         22   -1    0    0    0    0  0.00000000000E+00  0.00000000000E+00  0.11825548052E+04  0.11825548052E+04  0.00000000000E+00 0. -1.
         22   -1    0    0    0    0 -0.00000000000E+00 -0.00000000000E+00 -0.33533927004E+03  0.33533927004E+03  0.00000000000E+00 0.  1.
        -24    2    1    2    0    0 -0.53304162327E+02  0.64677308219E+01 -0.26836323927E+03  0.28560663993E+03  0.81664920958E+02 0.  0.
         25    2    1    2    0    0  0.13007349236E+03  0.16289771373E+02  0.93366202713E+02  0.20383638026E+03  0.12509017564E+03 0.  0.
         24    2    1    2    0    0 -0.76769330035E+02 -0.22757502195E+02  0.10222125717E+04  0.10284510550E+04  0.79884898057E+02 0.  0.
        -11    1    5    5    0    0 -0.58932879211E+02  0.63197190334E+01  0.32209760312E+03  0.32750555573E+03  0.00000000000E+00 0.  1.
         12    1    5    5    0    0 -0.17836450824E+02 -0.29077221229E+02  0.70011496857E+03  0.70094549930E+03  0.00000000000E+00 0. -1.
         11    1    3    3    0    0  0.21517235391E+02  0.28515703215E+01 -0.80075563622E+02  0.82965165952E+02  0.00000000000E+00 0. -1.
        -12    1    3    3    0    0 -0.74821397718E+02  0.36161605004E+01 -0.18828767565E+03  0.20264147397E+03  0.00000000000E+00 0.  1.
          5    1    4    4  501    0  0.10174477529E+03 -0.27525769972E+01 -0.25934835325E+01  0.10190080734E+03  0.41800000000E+01 0.  1.
         -5    1    4    4    0  501  0.28328717068E+02  0.19042348371E+02  0.95959686245E+02  0.10193557292E+03  0.41800000000E+01 0.  1.
</event>
<event>
11    1  0.8453735E-009  0.1452544E+03  0.7561462E-02  0.1101829E+00
         22   -1    0    0    0    0  0.00000000000E+00  0.00000000000E+00  0.60696136862E+03  0.60696136862E+03  0.00000000000E+00 0.  1.
         22   -1    0    0    0    0 -0.00000000000E+00 -0.00000000000E+00 -0.17322816767E+03  0.17322816767E+03  0.00000000000E+00 0.  1.
         24    2    1    2    0    0  0.77091154428E+02 -0.13343554879E+02 -0.10236556627E+03  0.15242708196E+03  0.81450657518E+02 0.  0.
         25    2    1    2    0    0 -0.34086724177E+02 -0.55812180171E+02  0.90340550437E+02  0.16759089133E+03  0.12509351535E+03 0.  0.
        -24    2    1    2    0    0 -0.43004430251E+02  0.69155735050E+02  0.44575821678E+03  0.46017156300E+03  0.80159733356E+02 0.  0.
        -11    1    3    3    0    0  0.65972484142E+02 -0.34053986060E+02 -0.10519007791E+03  0.12875168007E+03  0.00000000000E+00 0.  1.
         12    1    3    3    0    0  0.11118670286E+02  0.20710431181E+02  0.28245116423E+01  0.23675401890E+02  0.00000000000E+00 0. -1.
         11    1    5    5    0    0  0.13973306089E+01  0.64677708605E+01 -0.11438319924E+01  0.67151280227E+01  0.00000000000E+00 0. -1.
        -12    1    5    5    0    0 -0.44401760860E+02  0.62687964189E+02  0.44690204877E+03  0.45345643497E+03  0.00000000000E+00 0.  1.
          5    1    4    4  501    0 -0.42661267922E+02 -0.78403486831E+02  0.17925924880E+02  0.91136719881E+02  0.41800000000E+01 0.  1.
         -5    1    4    4    0  501  0.85745437450E+01  0.22591306660E+02  0.72414625557E+02  0.76454171447E+02  0.41800000000E+01 0.  1.
</event>
<event>
11    1  0.8601200E-009  0.1628731E+03  0.7561462E-02  0.1084406E+00
         22   -1    0    0    0    0  0.00000000000E+00  0.00000000000E+00  0.15411667656E+04  0.15411667656E+04  0.00000000000E+00 0.  1.
         22   -1    0    0    0    0 -0.00000000000E+00 -0.00000000000E+00 -0.14397909757E+04  0.14397909757E+04  0.00000000000E+00 0.  1.
        -24    2    1    2    0    0  0.12752054797E+02 -0.75239741018E+02 -0.12849755776E+04  0.12898037286E+04  0.81288311918E+02 0.  0.
         25    2    1    2    0    0 -0.11636212161E+03  0.83614587006E+02 -0.89029682776E+02  0.21001055652E+03  0.12508639785E+03 0.  0.
         24    2    1    2    0    0  0.10361006681E+03 -0.83748459883E+01  0.14753810504E+04  0.14811434562E+04  0.78939914503E+02 0.  0.
        -11    1    5    5    0    0  0.69891262029E+02 -0.27609853780E+02  0.12636997321E+04  0.12659321093E+04  0.00000000000E+00 0.  1.
         12    1    5    5    0    0  0.33718804782E+02  0.19235007792E+02  0.21168131824E+03  0.21521134685E+03  0.00000000000E+00 0. -1.
         13    1    3    3    0    0  0.43360987698E+02 -0.22387740012E+02 -0.46386832507E+03  0.46642813933E+03  0.00000000000E+00 0. -1.
        -14    1    3    3    0    0 -0.30608932901E+02 -0.52852001006E+02 -0.82110725256E+03  0.82337558926E+03  0.00000000000E+00 0.  1.
          5    1    4    4  501    0 -0.13751042848E+03  0.43066860974E+02 -0.70763251737E+02  0.16058886216E+03  0.41800000000E+01 0. -1.
         -5    1    4    4    0  501  0.21148306869E+02  0.40547726032E+02 -0.18266431040E+02  0.49421694353E+02  0.41800000000E+01 0. -1.
</event>
<event>
11    1  0.8453735E-009  0.1279194E+03  0.7561462E-02  0.1121852E+00
         22   -1    0    0    0    0  0.00000000000E+00  0.00000000000E+00  0.16864662084E+04  0.16864662084E+04  0.00000000000E+00 0. -1.
         22   -1    0    0    0    0 -0.00000000000E+00 -0.00000000000E+00 -0.54557136332E+02  0.54557136332E+02  0.00000000000E+00 0. -1.
        -24    2    1    2    0    0 -0.62441170425E+01 -0.57344097067E+00 -0.81951952335E+01  0.83981842682E+02  0.83345490839E+02 0.  0.
         25    2    1    2    0    0 -0.19970711175E+02 -0.92978157553E+01  0.59595578349E+03  0.60934109952E+03  0.12509197021E+03 0.  0.
         24    2    1    2    0    0  0.26214828217E+02  0.98712567259E+01  0.10441484838E+04  0.10477004025E+04  0.81519434988E+02 0.  0.
        -11    1    5    5    0    0 -0.27809413725E+02 -0.52810770031E+01  0.25684619523E+03  0.25840127954E+03  0.00000000000E+00 0.  1.
         12    1    5    5    0    0  0.54024241942E+02  0.15152333729E+02  0.78730228859E+03  0.78929912299E+03  0.00000000000E+00 0. -1.
         13    1    3    3    0    0  0.12048722234E+02  0.19040805156E+02 -0.37817547979E+02  0.44021482297E+02  0.00000000000E+00 0. -1.
        -14    1    3    3    0    0 -0.18292839276E+02 -0.19614246126E+02  0.29622352746E+02  0.39960360385E+02  0.00000000000E+00 0.  1.
          5    1    4    4  501    0 -0.58047130114E+02  0.32013062922E+02  0.24285900527E+03  0.25177822454E+03  0.41800000000E+01 0. -1.
         -5    1    4    4    0  501  0.38076418939E+02 -0.41310878677E+02  0.35309677822E+03  0.35756287498E+03  0.41800000000E+01 0. -1.
</event>
<event>
11    1  0.8453735E-009  0.1337040E+03  0.7561462E-02  0.1114800E+00
         22   -1    0    0    0    0  0.00000000000E+00  0.00000000000E+00  0.41558484677E+03  0.41558484677E+03  0.00000000000E+00 0. -1.
         22   -1    0    0    0    0 -0.00000000000E+00 -0.00000000000E+00 -0.48066639048E+03  0.48066639048E+03  0.00000000000E+00 0. -1.
         24    2    1    2    0    0  0.16314901452E+02 -0.41457335518E+02 -0.41749029484E+03  0.42763405889E+03  0.81165604567E+02 0.  0.
         25    2    1    2    0    0  0.24636875072E+02  0.10061151849E+02  0.28371589412E+02  0.13099794356E+03  0.12508921513E+03 0.  0.
        -24    2    1    2    0    0 -0.40951776524E+02  0.31396183669E+02  0.32403716171E+03  0.33761923480E+03  0.79522934958E+02 0.  0.
        -11    1    3    3    0    0  0.44162160675E+02 -0.38658298839E+01 -0.16529779546E+03  0.17113913129E+03  0.00000000000E+00 0.  1.
         12    1    3    3    0    0 -0.27847259223E+02 -0.37591505634E+02 -0.25219249938E+03  0.25649492760E+03  0.00000000000E+00 0. -1.
         11    1    5    5    0    0 -0.49587445405E+02  0.12093336338E+02  0.97088080353E+02  0.10968709529E+03  0.00000000000E+00 0. -1.
        -12    1    5    5    0    0  0.86356688804E+01  0.19302847331E+02  0.22694908136E+03  0.22793213951E+03  0.00000000000E+00 0.  1.
          5    1    4    4  501    0  0.15898544800E+02  0.85048485066E+01  0.78124461897E+02  0.80286986004E+02  0.41800000000E+01 0.  1.
         -5    1    4    4    0  501  0.87383302725E+01  0.15563033425E+01 -0.49752872485E+02  0.50710957559E+02  0.41800000000E+01 0.  1.
</event>
<event>
11    1  0.8453735E-009  0.2523189E+03  0.7561462E-02  0.1022671E+00
         22   -1    0    0    0    0  0.00000000000E+00  0.00000000000E+00  0.14347457308E+04  0.14347457308E+04  0.00000000000E+00 0.  1.
         22   -1    0    0    0    0 -0.00000000000E+00 -0.00000000000E+00 -0.79658146560E+02  0.79658146560E+02  0.00000000000E+00 0. -1.
        -24    2    1    2    0    0  0.12476699572E+02 -0.11104543864E+03  0.12093189009E+03  0.18340290181E+03  0.80779606829E+02 0.  0.
         25    2    1    2    0    0  0.78415997205E+01 -0.16236018324E+03  0.40377643667E+03  0.45288548868E+03  0.12509010857E+03 0.  0.
         24    2    1    2    0    0 -0.20318299293E+02  0.27340562187E+03  0.83037925748E+03  0.87811548686E+03  0.79960175410E+02 0.  0.
        -11    1    5    5    0    0 -0.50282992372E+02  0.19898550856E+03  0.60809235919E+03  0.64179430446E+03  0.00000000000E+00 0.  1.
         12    1    5    5    0    0  0.29964693079E+02  0.74420113317E+02  0.22228689829E+03  0.23632118239E+03  0.00000000000E+00 0. -1.
         11    1    3    3    0    0  0.25168979520E+02 -0.11962709682E+03  0.10332343825E+03  0.16006202772E+03  0.00000000000E+00 0. -1.
        -12    1    3    3    0    0 -0.12692279947E+02  0.85816581890E+01  0.17608451833E+02  0.23340874094E+02  0.00000000000E+00 0.  1.
          5    1    4    4  501    0  0.26241419249E+02 -0.10707905859E+03  0.36846832515E+03  0.38463088268E+03  0.41800000000E+01 0. -1.
         -5    1    4    4    0  501 -0.18399819528E+02 -0.55281124654E+02  0.35308111520E+02  0.68254606004E+02  0.41800000000E+01 0. -1.
</event>
<event>
11    1  0.8453735E-009  0.1511650E+03  0.7561462E-02  0.1095694E+00
         22   -1    0    0    0    0  0.00000000000E+00  0.00000000000E+00  0.28382861308E+04  0.28382861308E+04  0.00000000000E+00 0. -1.
         22   -1    0    0    0    0 -0.00000000000E+00 -0.00000000000E+00 -0.55392162398E+03  0.55392162398E+03  0.00000000000E+00 0. -1.
        -24    2    1    2    0    0  0.45930425187E+02  0.71350903667E+02 -0.51370778697E+03  0.52677686359E+03  0.79985112415E+02 0.  0.
         25    2    1    2    0    0  0.92378185017E+01 -0.10659513806E+03  0.17417539937E+03  0.23965057220E+03  0.12508983277E+03 0.  0.
         24    2    1    2    0    0 -0.55168243688E+02  0.35244234391E+02  0.26238968945E+04  0.26257803190E+04  0.74844370905E+02 0.  0.
        -11    1    5    5    0    0 -0.23704563480E+02  0.17530992362E+02  0.26972832846E+03  0.27133487280E+03  0.00000000000E+00 0.  1.
         12    1    5    5    0    0 -0.31463680208E+02  0.17713242029E+02  0.23541685660E+04  0.23544454462E+04  0.00000000000E+00 0. -1.
         11    1    3    3    0    0  0.41700286296E+02  0.77072744286E+02 -0.28987590509E+03  0.30283190410E+03  0.00000000000E+00 0. -1.
        -12    1    3    3    0    0  0.42301388906E+01 -0.57218406192E+01 -0.22383188188E+03  0.22394495949E+03  0.00000000000E+00 0.  1.
          5    1    4    4  501    0  0.43140097712E+02 -0.31683852350E+02  0.14101882161E+03  0.15089305809E+03  0.41800000000E+01 0.  1.
         -5    1    4    4    0  501 -0.33902279211E+02 -0.74911285708E+02  0.33156577753E+02  0.88757514107E+02  0.41800000000E+01 0.  1.
</event>
<event>
11    1  0.8461958E-009  0.1458144E+03  0.7561462E-02  0.1101234E+00
         22   -1    0    0    0    0  0.00000000000E+00  0.00000000000E+00  0.11541144856E+04  0.11541144856E+04  0.00000000000E+00 0. -1.
         22   -1    0    0    0    0 -0.00000000000E+00 -0.00000000000E+00 -0.34575941299E+03  0.34575941299E+03  0.00000000000E+00 0. -1.
         24    2    1    2    0    0  0.48717967034E+02  0.44456941201E+02 -0.22788031864E+03  0.25264976340E+03  0.86905715510E+02 0.  0.
         25    2    1    2    0    0 -0.10265823139E+03 -0.86350107946E+02 -0.21450032490E+02  0.18466962898E+03  0.12509082444E+03 0.  0.
        -24    2    1    2    0    0  0.53940264355E+02  0.41893166745E+02  0.10576854237E+04  0.10625545062E+04  0.75226548077E+02 0.  0.
        -11    1    3    3    0    0 -0.22181277431E+02 -0.46233069157E+01 -0.54052007418E+02  0.58608903259E+02  0.00000000000E+00 0.  1.
         12    1    3    3    0    0  0.70899244465E+02  0.49080248117E+02 -0.17382831122E+03  0.19404086014E+03  0.00000000000E+00 0. -1.
         13    1    5    5    0    0  0.41613324778E+02  0.59003685984E+02  0.95502823973E+03  0.95775364392E+03  0.00000000000E+00 0. -1.
        -14    1    5    5    0    0  0.12326939577E+02 -0.17110519239E+02  0.10265718401E+03  0.10480086229E+03  0.00000000000E+00 0.  1.
          5    1    4    4  501    0 -0.93817023114E+02 -0.99468802387E+02 -0.54924127405E+02  0.14741034104E+03  0.41800000000E+01 0.  1.
         -5    1    4    4    0  501 -0.88412082752E+01  0.13118694441E+02  0.33474094914E+02  0.37259287942E+02  0.41800000000E+01 0.  1.
</event>
<event>
11    1  0.8453735E-009  0.2359785E+03  0.7561462E-02  0.1031646E+00
         22   -1    0    0    0    0  0.00000000000E+00  0.00000000000E+00  0.25130729295E+04  0.25130729295E+04  0.00000000000E+00 0.  1.
         22   -1    0    0    0    0 -0.00000000000E+00 -0.00000000000E+00 -0.27780163034E+03  0.27780163034E+03  0.00000000000E+00 0. -1.
        -24    2    1    2    0    0  0.31300960662E+01  0.41925400861E+02 -0.24713814000E+03  0.26324365927E+03  0.80327001473E+02 0.  0.
         25    2    1    2    0    0 -0.20211174652E+03 -0.33130891841E+02  0.94170574643E+03  0.97180435355E+03  0.12508866716E+03 0.  0.
         24    2    1    2    0    0  0.19898165045E+03 -0.87945090206E+01  0.15407036927E+04  0.15558265470E+04  0.84601034414E+02 0.  0.
        -11    1    5    5    0    0  0.11357698548E+03 -0.18929942036E+02  0.11510271691E+04  0.11567720685E+04  0.00000000000E+00 0.  1.
         12    1    5    5    0    0  0.85404664976E+02  0.10135433015E+02  0.38967652361E+03  0.39905447855E+03  0.00000000000E+00 0. -1.
         13    1    3    3    0    0  0.12066468212E+02  0.58615278904E+02 -0.23016362969E+03  0.23781641450E+03  0.00000000000E+00 0. -1.
        -14    1    3    3    0    0 -0.89363721458E+01 -0.16689878043E+02 -0.16974510312E+02  0.25427244769E+02  0.00000000000E+00 0.  1.
          5    1    4    4  501    0 -0.17592418653E+03  0.89344689229E-01  0.54215759688E+03  0.57000145583E+03  0.41800000000E+01 0. -1.
         -5    1    4    4    0  501 -0.26187559987E+02 -0.33220236530E+02  0.39954814955E+03  0.40180289772E+03  0.41800000000E+01 0. -1.
</event>
<event>
11    1  0.8453735E-009  0.1259322E+03  0.7561462E-02  0.1124370E+00
         22   -1    0    0    0    0  0.00000000000E+00  0.00000000000E+00  0.15746614413E+03  0.15746614413E+03  0.00000000000E+00 0. -1.
         22   -1    0    0    0    0 -0.00000000000E+00 -0.00000000000E+00 -0.10535161911E+04  0.10535161911E+04  0.00000000000E+00 0. -1.
         24    2    1    2    0    0  0.15213615363E+01 -0.52610350634E+01 -0.83269623626E+03  0.83670503201E+03  0.81622886976E+02 0.  0.
         25    2    1    2    0    0 -0.12113968218E+02  0.14696661805E+02 -0.18106471550E+03  0.22089349960E+03  0.12508703719E+03 0.  0.
        -24    2    1    2    0    0  0.10592606682E+02 -0.94356267411E+01  0.11771090482E+03  0.15338380359E+03  0.97311354537E+02 0.  0.
        -13    1    3    3    0    0 -0.82835377382E+01  0.27340101325E+02 -0.12636659752E+03  0.12955545186E+03  0.00000000000E+00 0.  1.
         14    1    3    3    0    0  0.98048992744E+01 -0.32601136388E+02 -0.70632963874E+03  0.70714958015E+03  0.00000000000E+00 0. -1.
         13    1    5    5    0    0  0.12320383962E+02  0.65992631328E+01  0.13145390398E+03  0.13219482217E+03  0.00000000000E+00 0. -1.
        -14    1    5    5    0    0 -0.17277772801E+01 -0.16034889874E+02 -0.13742999167E+02  0.21188981422E+02  0.00000000000E+00 0.  1.
          5    1    4    4  501    0 -0.48055313699E+02  0.51366289004E+02 -0.74588809743E+02  0.10260980343E+03  0.41800000000E+01 0.  1.
         -5    1    4    4    0  501  0.35941345481E+02 -0.36669627199E+02 -0.10647590576E+03  0.11828369618E+03  0.41800000000E+01 0.  1.
</event>
<event>
11    1  0.8453735E-009  0.1360215E+03  0.7561462E-02  0.1112084E+00
         22   -1    0    0    0    0  0.00000000000E+00  0.00000000000E+00  0.30688014564E+03  0.30688014564E+03  0.00000000000E+00 0. -1.
         22   -1    0    0    0    0 -0.00000000000E+00 -0.00000000000E+00 -0.25865157437E+03  0.25865157437E+03  0.00000000000E+00 0.  1.
         24    2    1    2    0    0  0.37965365730E+02 -0.41079605760E+02 -0.20889361719E+03  0.22908357702E+03  0.75589939477E+02 0.  0.
         25    2    1    2    0    0 -0.11798197200E+02  0.11073687802E+02  0.12321512372E+03  0.17632794393E+03  0.12509097922E+03 0.  0.
        -24    2    1    2    0    0 -0.26167168530E+02  0.30005917959E+02  0.13390706474E+03  0.16012019906E+03  0.78245129806E+02 0.  0.
        -11    1    3    3    0    0  0.18177460473E+02 -0.26561225222E+02 -0.20061765067E+03  0.20318307143E+03  0.00000000000E+00 0.  1.
         12    1    3    3    0    0  0.19787905257E+02 -0.14518380538E+02 -0.82759665252E+01  0.25900505590E+02  0.00000000000E+00 0. -1.
         13    1    5    5    0    0  0.21264328225E+02 -0.10118659111E+02  0.53935538881E+02  0.58852368444E+02  0.00000000000E+00 0. -1.
        -14    1    5    5    0    0 -0.47431496756E+02  0.40124577070E+02  0.79971525862E+02  0.10126783062E+03  0.00000000000E+00 0.  1.
          5    1    4    4  501    0 -0.54799727116E+02  0.39880701640E+02  0.41723914452E+02  0.79698418381E+02  0.41800000000E+01 0. -1.
         -5    1    4    4    0  501  0.43001529916E+02 -0.28807013838E+02  0.81491209264E+02  0.96629525554E+02  0.41800000000E+01 0. -1.
</event>
<event>
11    1  0.8453735E-009  0.1532913E+03  0.7561462E-02  0.1093562E+00
         22   -1    0    0    0    0  0.00000000000E+00  0.00000000000E+00  0.39337784225E+04  0.39337784225E+04  0.00000000000E+00 0. -1.
         22   -1    0    0    0    0 -0.00000000000E+00 -0.00000000000E+00 -0.90989412991E+02  0.90989412991E+02  0.00000000000E+00 0. -1.
        -24    2    1    2    0    0 -0.53798063303E+02  0.69114276848E+02 -0.39843326383E+02  0.12695805310E+03  0.82824161388E+02 0.  0.
         25    2    1    2    0    0  0.10170460254E+03 -0.65950008823E+02  0.11158282965E+04  0.11293422035E+04  0.12509114886E+03 0.  0.
         24    2    1    2    0    0 -0.47906539235E+02 -0.31642680258E+01  0.27668040394E+04  0.27684675789E+04  0.83084859219E+02 0.  0.
        -11    1    5    5    0    0  0.20808112570E+02 -0.13398395164E+02  0.51828908012E+03  0.51887962488E+03  0.00000000000E+00 0.  1.
         12    1    5    5    0    0 -0.68714651804E+02  0.10234127139E+02  0.22485149593E+04  0.22495879540E+04  0.00000000000E+00 0. -1.
         13    1    3    3    0    0 -0.73060517076E+02  0.35986347321E+02 -0.20266690633E+02  0.83926128816E+02  0.00000000000E+00 0. -1.
        -14    1    3    3    0    0  0.19262453772E+02  0.33127929527E+02 -0.19576635749E+02  0.43031924281E+02  0.00000000000E+00 0.  1.
          5    1    4    4  501    0  0.11185247313E+03 -0.66962300923E+02  0.62860548204E+03  0.64199474292E+03  0.41800000000E+01 0.  1.
         -5    1    4    4    0  501 -0.10147870588E+02  0.10122921009E+01  0.48722281447E+03  0.48734746060E+03  0.41800000000E+01 0.  1.
</event>
<event>
11    1  0.8453735E-009  0.1357227E+03  0.7561462E-02  0.1112431E+00
         22   -1    0    0    0    0  0.00000000000E+00  0.00000000000E+00  0.13648594107E+04  0.13648594107E+04  0.00000000000E+00 0. -1.
         22   -1    0    0    0    0 -0.00000000000E+00 -0.00000000000E+00 -0.76277333903E+03  0.76277333903E+03  0.00000000000E+00 0. -1.
         24    2    1    2    0    0  0.54448314365E+02 -0.87957718124E+01 -0.58787840110E+03  0.59680246436E+03  0.86776623892E+02 0.  0.
         25    2    1    2    0    0 -0.18531414483E+02  0.71586684728E+02 -0.13711106404E+03  0.19978665347E+03  0.12508875358E+03 0.  0.
        -24    2    1    2    0    0 -0.35916899882E+02 -0.62790912916E+02  0.13270755368E+04  0.13310436319E+04  0.72903684181E+02 0.  0.
        -13    1    3    3    0    0  0.15700234924E+02 -0.44224033739E+02 -0.20265144493E+03  0.20801411170E+03  0.00000000000E+00 0.  1.
         14    1    3    3    0    0  0.38748079441E+02  0.35428261926E+02 -0.38522695617E+03  0.38878835266E+03  0.00000000000E+00 0. -1.
         13    1    5    5    0    0 -0.33148358399E+02  0.59210872491E+01  0.39280548225E+03  0.39424614116E+03  0.00000000000E+00 0. -1.
        -14    1    5    5    0    0 -0.27685414831E+01 -0.68712000165E+02  0.93427005459E+03  0.93679749076E+03  0.00000000000E+00 0.  1.
          5    1    4    4  501    0  0.22384934579E+02  0.95186680333E+02 -0.90839002095E+02  0.13353196662E+03  0.41800000000E+01 0.  1.
         -5    1    4    4    0  501 -0.40916349062E+02 -0.23599995605E+02 -0.46272061940E+02  0.66254686848E+02  0.41800000000E+01 0.  1.
</event>
<event>
11    1  0.8453735E-009  0.1425581E+03  0.7561462E-02  0.1104735E+00
         22   -1    0    0    0    0  0.00000000000E+00  0.00000000000E+00  0.69208773692E+03  0.69208773692E+03  0.00000000000E+00 0.  1.
         22   -1    0    0    0    0 -0.00000000000E+00 -0.00000000000E+00 -0.10018532460E+04  0.10018532460E+04  0.00000000000E+00 0.  1.
         24    2    1    2    0    0  0.11908087479E+02 -0.47711808841E+01 -0.94664551151E+03  0.95018117733E+03  0.80882498497E+02 0.  0.
         25    2    1    2    0    0 -0.72883983386E+02  0.33089634362E+02  0.64499849964E+02  0.16191424291E+03  0.12509593309E+03 0.  0.
        -24    2    1    2    0    0  0.60975895907E+02 -0.28318453478E+02  0.57238015250E+03  0.58184556265E+03  0.80032650309E+02 0.  0.
        -13    1    3    3    0    0  0.19198095251E+02  0.26866106833E+02 -0.76114808999E+03  0.76186400982E+03  0.00000000000E+00 0.  1.
         14    1    3    3    0    0 -0.72900077724E+01 -0.31637287717E+02 -0.18549742152E+03  0.18831716751E+03  0.00000000000E+00 0. -1.
         11    1    5    5    0    0 -0.16745096041E+02  0.60571997867E+01  0.64888409167E+02  0.67287395216E+02  0.00000000000E+00 0. -1.
        -12    1    5    5    0    0  0.77720991948E+02 -0.34375653265E+02  0.50749174333E+03  0.51455816744E+03  0.00000000000E+00 0.  1.
          5    1    4    4  501    0  0.23015040372E+02 -0.15867373471E+02  0.43894616958E+02  0.52208001514E+02  0.41800000000E+01 0.  1.
         -5    1    4    4    0  501 -0.95899023758E+02  0.48957007834E+02  0.20605233005E+02  0.10970624139E+03  0.41800000000E+01 0.  1.
</event>
<event>
11    1  0.8453735E-009  0.1369435E+03  0.7561462E-02  0.1111020E+00
         22   -1    0    0    0    0  0.00000000000E+00  0.00000000000E+00  0.23757281974E+04  0.23757281974E+04  0.00000000000E+00 0. -1.
         22   -1    0    0    0    0 -0.00000000000E+00 -0.00000000000E+00 -0.63618783622E+02  0.63618783622E+02  0.00000000000E+00 0. -1.
         24    2    1    2    0    0 -0.24649866264E+02 -0.88950742653E+01 -0.11743310247E+01  0.84093876190E+02  0.79897826668E+02 0.  0.
         25    2    1    2    0    0  0.59313751638E+02 -0.34120149561E+02  0.23644333306E+03  0.27610776106E+03  0.12509092785E+03 0.  0.
        -24    2    1    2    0    0 -0.34663885375E+02  0.43015223826E+02  0.20768404118E+04  0.20791453438E+04  0.80792142263E+02 0.  0.
        -11    1    3    3    0    0 -0.38471130841E+01  0.31512885534E+02  0.15947538717E+02  0.35527260306E+02  0.00000000000E+00 0.  1.
         12    1    3    3    0    0 -0.20802753179E+02 -0.40407959799E+02 -0.17121869741E+02  0.48566615884E+02  0.00000000000E+00 0. -1.
         11    1    5    5    0    0 -0.23532145779E+02  0.12614052322E+02  0.18295333043E+04  0.18297281185E+04  0.00000000000E+00 0. -1.
        -12    1    5    5    0    0 -0.11131739596E+02  0.30401171503E+02  0.24730710745E+03  0.24941722525E+03  0.00000000000E+00 0.  1.
          5    1    4    4  501    0  0.59162861114E+02  0.34895680716E+02  0.15284088892E+03  0.16761790595E+03  0.41800000000E+01 0. -1.
         -5    1    4    4    0  501  0.15089052417E+00 -0.69015830276E+02  0.83602444140E+02  0.10848985511E+03  0.41800000000E+01 0. -1.
</event>
<event>
11    1  0.8510906E-009  0.1625394E+03  0.7561462E-02  0.1084713E+00
         22   -1    0    0    0    0  0.00000000000E+00  0.00000000000E+00  0.36011566919E+03  0.36011566919E+03  0.00000000000E+00 0. -1.
         22   -1    0    0    0    0 -0.00000000000E+00 -0.00000000000E+00 -0.68604563575E+03  0.68604563575E+03  0.00000000000E+00 0. -1.
         24    2    1    2    0    0  0.18661527201E+02  0.69587921696E+01 -0.42216880886E+03  0.43053189739E+03  0.82064207232E+02 0.  0.
         25    2    1    2    0    0  0.39863258029E+02 -0.92949809498E+02 -0.22044833869E+03  0.27289959428E+03  0.12509185466E+03 0.  0.
        -24    2    1    2    0    0 -0.58524785230E+02  0.85991017328E+02  0.31668718098E+03  0.34272981326E+03  0.79707896431E+02 0.  0.
        -11    1    3    3    0    0 -0.28133320918E+02  0.46621242979E+01 -0.75401847343E+02  0.80614252658E+02  0.00000000000E+00 0.  1.
         12    1    3    3    0    0  0.46794848120E+02  0.22966678717E+01 -0.34676696152E+03  0.34991764473E+03  0.00000000000E+00 0. -1.
         13    1    5    5    0    0 -0.74545509943E+02  0.87493227144E+02  0.27633904422E+03  0.29929143858E+03  0.00000000000E+00 0. -1.
        -14    1    5    5    0    0  0.16020724713E+02 -0.15022098154E+01  0.40348136768E+02  0.43438374685E+02  0.00000000000E+00 0.  1.
          5    1    4    4  501    0  0.75108125950E+02 -0.64016618400E+02 -0.19935446473E+03  0.22248378148E+03  0.41800000000E+01 0.  1.
         -5    1    4    4    0  501 -0.35244867921E+02 -0.28933191098E+02 -0.21093873960E+02  0.50415812803E+02  0.41800000000E+01 0.  1.
</event>
<event>
11    1  0.8453735E-009  0.1403550E+03  0.7561462E-02  0.1107163E+00
         22   -1    0    0    0    0  0.00000000000E+00  0.00000000000E+00  0.19070060003E+04  0.19070060003E+04  0.00000000000E+00 0.  1.
         22   -1    0    0    0    0 -0.00000000000E+00 -0.00000000000E+00 -0.78289639550E+02  0.78289639550E+02  0.00000000000E+00 0.  1.
        -24    2    1    2    0    0  0.54145748019E+02 -0.33619332686E+02 -0.34092547921E+02  0.10838598448E+03  0.80766318785E+02 0.  0.
         25    2    1    2    0    0 -0.53328990690E+02  0.31310805154E+02  0.91261299023E+03  0.92321925885E+03  0.12508789791E+03 0.  0.
         24    2    1    2    0    0 -0.81675732884E+00  0.23085275321E+01  0.95019591848E+03  0.95369039655E+03  0.81529703764E+02 0.  0.
        -11    1    5    5    0    0 -0.35542072055E+02  0.21842579572E+02  0.49208067207E+03  0.49384585145E+03  0.00000000000E+00 0.  1.
         12    1    5    5    0    0  0.34725314726E+02 -0.19534052040E+02  0.45811524640E+03  0.45984454510E+03  0.00000000000E+00 0. -1.
         13    1    3    3    0    0 -0.51971231552E+01 -0.35104730059E+02 -0.33822950094E+02  0.49023913702E+02  0.00000000000E+00 0. -1.
        -14    1    3    3    0    0  0.59342871174E+02  0.14853973728E+01 -0.26959782706E+00  0.59362070782E+02  0.00000000000E+00 0.  1.
          5    1    4    4  501    0 -0.55683868055E+02  0.75322031570E+02  0.55319809881E+03  0.56108797040E+03  0.41800000000E+01 0.  1.
         -5    1    4    4    0  501  0.23548773650E+01 -0.44011226416E+02  0.35941489142E+03  0.36213128845E+03  0.41800000000E+01 0.  1.
</event>
<event>
11    1  0.8453735E-009  0.1320408E+03  0.7561462E-02  0.1116787E+00
         22   -1    0    0    0    0  0.00000000000E+00  0.00000000000E+00  0.65026336744E+02  0.65026336744E+02  0.00000000000E+00 0. -1.
         22   -1    0    0    0    0 -0.00000000000E+00 -0.00000000000E+00 -0.20171453578E+04  0.20171453578E+04  0.00000000000E+00 0. -1.
         24    2    1    2    0    0 -0.40902510946E+02 -0.14454538948E+02 -0.18185831990E+04  0.18208971502E+04  0.80867985161E+02 0.  0.
         25    2    1    2    0    0  0.20180738534E+02 -0.13442874799E+02 -0.11249170243E+03  0.16997113514E+03  0.12509128897E+03 0.  0.
        -24    2    1    2    0    0  0.20721772413E+02  0.27897413747E+02 -0.21044119683E+02  0.91303409203E+02  0.81766741486E+02 0.  0.
        -11    1    3    3    0    0 -0.22441309194E+02  0.15348890750E+02 -0.18987354419E+03  0.19181022806E+03  0.00000000000E+00 0.  1.
         12    1    3    3    0    0 -0.18461201752E+02 -0.29803429698E+02 -0.16287096548E+04  0.16290869222E+04  0.00000000000E+00 0. -1.
         11    1    5    5    0    0  0.50856538563E+02  0.16210942399E+02 -0.12298577362E+01  0.53391897495E+02  0.00000000000E+00 0. -1.
        -12    1    5    5    0    0 -0.30134766150E+02  0.11686471348E+02 -0.19814261947E+02  0.37911511708E+02  0.00000000000E+00 0.  1.
          5    1    4    4  501    0 -0.33998923304E+02 -0.35004694709E+02 -0.71524300214E+01  0.49496313931E+02  0.41800000000E+01 0.  1.
         -5    1    4    4    0  501  0.54179661838E+02  0.21561819910E+02 -0.10533927241E+03  0.12047482121E+03  0.41800000000E+01 0.  1.
</event>
<event>
11    1  0.8453735E-009  0.1853263E+03  0.7561462E-02  0.1065414E+00
         22   -1    0    0    0    0  0.00000000000E+00  0.00000000000E+00  0.18831923414E+04  0.18831923414E+04  0.00000000000E+00 0.  1.
         22   -1    0    0    0    0 -0.00000000000E+00 -0.00000000000E+00 -0.85095265835E+02  0.85095265835E+02  0.00000000000E+00 0.  1.
         24    2    1    2    0    0  0.49156329259E+02 -0.12446856467E+03  0.21224160961E+02  0.16272442182E+03  0.90111065645E+02 0.  0.
         25    2    1    2    0    0 -0.67019412723E+02  0.14913721781E+03  0.82555140365E+03  0.85083239057E+03  0.12508847011E+03 0.  0.
        -24    2    1    2    0    0  0.17863083464E+02 -0.24668653142E+02  0.95132151100E+03  0.95473079489E+03  0.74636728350E+02 0.  0.
        -13    1    3    3    0    0  0.18960414113E+02 -0.12913923048E+03  0.13583764624E+02  0.13122864327E+03  0.00000000000E+00 0.  1.
         14    1    3    3    0    0  0.30195915146E+02  0.46706658095E+01  0.76403963374E+01  0.31495778555E+02  0.00000000000E+00 0. -1.
         11    1    5    5    0    0 -0.28523048765E+02 -0.14691287185E+02  0.30975335182E+03  0.31141056050E+03  0.00000000000E+00 0. -1.
        -12    1    5    5    0    0  0.46386132228E+02 -0.99773659571E+01  0.64156815918E+03  0.64332023439E+03  0.00000000000E+00 0.  1.
          5    1    4    4  501    0 -0.79976842278E+02  0.13916802729E+03  0.81557255107E+03  0.83122806351E+03  0.41800000000E+01 0. -1.
         -5    1    4    4    0  501  0.12957429555E+02  0.99691905229E+01  0.99788525819E+01  0.19604327053E+02  0.41800000000E+01 0. -1.
</event>
<event>
11    1  0.8453735E-009  0.1865757E+03  0.7561462E-02  0.1064445E+00
         22   -1    0    0    0    0  0.00000000000E+00  0.00000000000E+00  0.21336204583E+03  0.21336204583E+03  0.00000000000E+00 0.  1.
         22   -1    0    0    0    0 -0.00000000000E+00 -0.00000000000E+00 -0.88124139412E+03  0.88124139412E+03  0.00000000000E+00 0.  1.
        -24    2    1    2    0    0  0.56586135098E+01  0.26757327549E+02 -0.53846685120E+03  0.54499983162E+03  0.79563133018E+02 0.  0.
         25    2    1    2    0    0  0.13135186493E+03 -0.47405828371E+02 -0.27537658693E+03  0.33314165641E+03  0.12510185299E+03 0.  0.
         24    2    1    2    0    0 -0.13701047844E+03  0.20648500821E+02  0.14596408984E+03  0.21646195193E+03  0.79699619334E+02 0.  0.
        -13    1    5    5    0    0 -0.13163194853E+03  0.41254528032E+02  0.13246119548E+03  0.19124558626E+03  0.00000000000E+00 0.  1.
         14    1    5    5    0    0 -0.53785299129E+01 -0.20606027211E+02  0.13502894356E+02  0.25216365667E+02  0.00000000000E+00 0. -1.
         13    1    3    3    0    0  0.21764999019E+02  0.45366657960E+02 -0.22449718210E+03  0.23006701981E+03  0.00000000000E+00 0. -1.
        -14    1    3    3    0    0 -0.16106385510E+02 -0.18609330410E+02 -0.31396966910E+03  0.31493281180E+03  0.00000000000E+00 0.  1.
          5    1    4    4  501    0  0.11836035337E+03  0.17445869085E+02 -0.19678896038E+03  0.23034083208E+03  0.41800000000E+01 0.  1.
         -5    1    4    4    0  501  0.12991511565E+02 -0.64851697456E+02 -0.78587626546E+02  0.10280082432E+03  0.41800000000E+01 0.  1.
</event>
<event>
11    1  0.2147506E-008  0.1969031E+03  0.7561462E-02  0.1056736E+00
         22   -1    0    0    0    0  0.00000000000E+00  0.00000000000E+00  0.16481336015E+04  0.16481336015E+04  0.00000000000E+00 0.  1.
         22   -1    0    0    0    0 -0.00000000000E+00 -0.00000000000E+00 -0.96334930563E+03  0.96334930563E+03  0.00000000000E+00 0.  1.
         24    2    1    2    0    0  0.64738004704E+02  0.15512247063E+02 -0.71290590141E+03  0.72044577511E+03  0.79847677122E+02 0.  0.
         25    2    1    2    0    0  0.64310823054E+02 -0.97619835645E+02 -0.21161620027E+03  0.27220274607E+03  0.12508958581E+03 0.  0.
        -24    2    1    2    0    0 -0.12904882776E+03  0.82107588582E+02  0.16093063975E+04  0.16188343859E+04  0.85804614530E+02 0.  0.
        -11    1    3    3    0    0  0.81600862230E+02  0.70202262339E+01 -0.63620826552E+03  0.64145844870E+03  0.00000000000E+00 0.  1.
         12    1    3    3    0    0 -0.16862857526E+02  0.84920208295E+01 -0.76697635894E+02  0.78987326410E+02  0.00000000000E+00 0. -1.
         13    1    5    5    0    0 -0.32986161249E+01  0.18891580696E+02  0.56570802897E+02  0.59732976068E+02  0.00000000000E+00 0. -1.
        -14    1    5    5    0    0 -0.12575021163E+03  0.63216007886E+02  0.15527355946E+04  0.15591014098E+04  0.00000000000E+00 0.  1.
          5    1    4    4  501    0  0.20479535320E+02 -0.27890747376E+02 -0.18085910692E+03  0.18418684565E+03  0.41800000000E+01 0. -1.
         -5    1    4    4    0  501  0.43831287734E+02 -0.69729088269E+02 -0.30757093351E+02  0.88015900419E+02  0.41800000000E+01 0. -1.
</event>
<event>
11    1  0.8453735E-009  0.1538101E+03  0.7561462E-02  0.1093048E+00
         22   -1    0    0    0    0  0.00000000000E+00  0.00000000000E+00  0.42181399310E+03  0.42181399310E+03  0.00000000000E+00 0.  1.
         22   -1    0    0    0    0 -0.00000000000E+00 -0.00000000000E+00 -0.21622240687E+03  0.21622240687E+03  0.00000000000E+00 0. -1.
        -24    2    1    2    0    0 -0.85934915315E+02 -0.24000847111E+02 -0.15988099209E+03  0.19977035184E+03  0.79908769919E+02 0.  0.
         25    2    1    2    0    0  0.92692531680E+02  0.14663571747E+02  0.25064342031E+03  0.29542607682E+03  0.12509003538E+03 0.  0.
         24    2    1    2    0    0 -0.67576163650E+01  0.93372753649E+01  0.11482915801E+03  0.14283997131E+03  0.84170492358E+02 0.  0.
        -13    1    5    5    0    0 -0.37489258649E+02 -0.19704267014E+02  0.63663435974E+02  0.76463950543E+02  0.00000000000E+00 0.  1.
         14    1    5    5    0    0  0.30731642284E+02  0.29041542379E+02  0.51165722037E+02  0.66376020766E+02  0.00000000000E+00 0. -1.
         11    1    3    3    0    0 -0.95174922585E+02 -0.23019612488E+02 -0.16284462886E+03  0.19001721395E+03  0.00000000000E+00 0. -1.
        -12    1    3    3    0    0  0.92400072702E+01 -0.98123462355E+00  0.29636367728E+01  0.97531378879E+01  0.00000000000E+00 0.  1.
          5    1    4    4  501    0  0.18952059573E+02  0.64021460390E+02  0.94520058611E+02  0.11579914435E+03  0.41800000000E+01 0. -1.
         -5    1    4    4    0  501  0.73740472107E+02 -0.49357888643E+02  0.15612336170E+03  0.17962693247E+03  0.41800000000E+01 0. -1.
</event>
<event>
11    1  0.8453735E-009  0.1356118E+03  0.7561462E-02  0.1112560E+00
         22   -1    0    0    0    0  0.00000000000E+00  0.00000000000E+00  0.12652244547E+04  0.12652244547E+04  0.00000000000E+00 0.  1.
         22   -1    0    0    0    0 -0.00000000000E+00 -0.00000000000E+00 -0.10666325167E+03  0.10666325167E+03  0.00000000000E+00 0.  1.
        -24    2    1    2    0    0  0.39367454585E+02 -0.35547196153E+02 -0.61277882622E+02  0.11378272598E+03  0.79863196773E+02 0.  0.
         25    2    1    2    0    0 -0.47770029559E+02  0.14833502363E+02  0.24389833435E+03  0.27863141949E+03  0.12508821651E+03 0.  0.
         24    2    1    2    0    0  0.84025749736E+01  0.20713693791E+02  0.97594075131E+03  0.97947356092E+03  0.80052770628E+02 0.  0.
        -13    1    5    5    0    0  0.11524318705E+02  0.16552170911E+02  0.97353166409E+03  0.97374056363E+03  0.00000000000E+00 0.  1.
         14    1    5    5    0    0 -0.31217437310E+01  0.41615228792E+01  0.24090872255E+01  0.57329972838E+01  0.00000000000E+00 0. -1.
         11    1    3    3    0    0 -0.61361416202E+00 -0.99591663149E+01  0.18460678538E+02  0.20984712724E+02  0.00000000000E+00 0. -1.
        -12    1    3    3    0    0  0.39981068747E+02 -0.25588029838E+02 -0.79738561160E+02  0.92798013260E+02  0.00000000000E+00 0.  1.
          5    1    4    4  501    0  0.25534645677E+02  0.47701960147E+02  0.99546251562E+02  0.11337735105E+03  0.41800000000E+01 0.  1.
         -5    1    4    4    0  501 -0.73304675236E+02 -0.32868457785E+02  0.14435208279E+03  0.16525406844E+03  0.41800000000E+01 0.  1.
</event>
<event>
11    1  0.8453735E-009  0.1638558E+03  0.7561462E-02  0.1083506E+00
         22   -1    0    0    0    0  0.00000000000E+00  0.00000000000E+00  0.10541569514E+04  0.10541569514E+04  0.00000000000E+00 0. -1.
         22   -1    0    0    0    0 -0.00000000000E+00 -0.00000000000E+00 -0.83019628742E+02  0.83019628742E+02  0.00000000000E+00 0. -1.
        -24    2    1    2    0    0  0.59662329131E+01  0.10574256479E+03  0.17832974407E+02  0.13595715302E+03  0.83362140912E+02 0.  0.
         25    2    1    2    0    0  0.85445753644E+02 -0.10552969738E+03  0.55111064484E+03  0.58121287218E+03  0.12509183058E+03 0.  0.
         24    2    1    2    0    0 -0.91411986557E+02 -0.21286740894E+00  0.40219370341E+03  0.42000655495E+03  0.79306585712E+02 0.  0.
        -11    1    5    5    0    0 -0.58088813450E+02 -0.92844233564E+01  0.10133446809E+03  0.11717160572E+03  0.00000000000E+00 0.  1.
         12    1    5    5    0    0 -0.33323173107E+02  0.90715559474E+01  0.30085923532E+03  0.30283494922E+03  0.00000000000E+00 0. -1.
         13    1    3    3    0    0  0.20809134113E+02  0.51880639360E+02 -0.29073999400E+02  0.63007287230E+02  0.00000000000E+00 0. -1.
        -14    1    3    3    0    0 -0.14842901200E+02  0.53861925433E+02  0.46906973807E+02  0.72949865792E+02  0.00000000000E+00 0.  1.
          5    1    4    4  501    0  0.11484178347E+02 -0.50693278239E+01 -0.27056411988E+01  0.13504715146E+02  0.41800000000E+01 0. -1.
         -5    1    4    4    0  501  0.73961575298E+02 -0.10046036956E+03  0.55381628604E+03  0.56770815703E+03  0.41800000000E+01 0. -1.
</event>
<event>
11    1  0.8453735E-009  0.1389080E+03  0.7561462E-02  0.1108784E+00
         22   -1    0    0    0    0  0.00000000000E+00  0.00000000000E+00  0.61503405562E+03  0.61503405562E+03  0.00000000000E+00 0.  1.
         22   -1    0    0    0    0 -0.00000000000E+00 -0.00000000000E+00 -0.56922270828E+03  0.56922270828E+03  0.00000000000E+00 0.  1.
         24    2    1    2    0    0  0.41713943013E+02 -0.43971328064E+02 -0.48855245765E+03  0.49887376796E+03  0.80734142368E+02 0.  0.
         25    2    1    2    0    0 -0.61405263360E+02  0.20257552737E+02 -0.33259544445E+01  0.14085528107E+03  0.12509265934E+03 0.  0.
        -24    2    1    2    0    0  0.19691320347E+02  0.23713775327E+02  0.53768975944E+03  0.54452771488E+03  0.80312288138E+02 0.  0.
        -11    1    3    3    0    0  0.19797417563E+02 -0.58459065228E+02 -0.43352314147E+03  0.43789463828E+03  0.00000000000E+00 0.  1.
         12    1    3    3    0    0  0.21916525450E+02  0.14487737164E+02 -0.55029316183E+02  0.60979129671E+02  0.00000000000E+00 0. -1.
         13    1    5    5    0    0 -0.22714687529E+02 -0.13787773348E+02  0.11302651200E+03  0.11610793314E+03  0.00000000000E+00 0. -1.
        -14    1    5    5    0    0  0.42406007876E+02  0.37501548675E+02  0.42466324744E+03  0.42841978173E+03  0.00000000000E+00 0.  1.
          5    1    4    4  501    0 -0.72135213529E+02  0.58522607698E+02  0.19255631486E+02  0.94955970779E+02  0.41800000000E+01 0.  1.
         -5    1    4    4    0  501  0.10729950169E+02 -0.38265054961E+02 -0.22581585931E+02  0.45899310288E+02  0.41800000000E+01 0.  1.
</event>
<event>
11    1  0.8453735E-009  0.1641667E+03  0.7561462E-02  0.1083223E+00
         22   -1    0    0    0    0  0.00000000000E+00  0.00000000000E+00  0.72077971080E+03  0.72077971080E+03  0.00000000000E+00 0.  1.
         22   -1    0    0    0    0 -0.00000000000E+00 -0.00000000000E+00 -0.25061776728E+04  0.25061776728E+04  0.00000000000E+00 0.  1.
        -24    2    1    2    0    0 -0.90768432252E+02  0.70767866676E+02 -0.22543644746E+04  0.22586827388E+04  0.79003360169E+02 0.  0.
         25    2    1    2    0    0  0.32746085855E+02 -0.16287649317E+02 -0.22773027154E+03  0.26238534325E+03  0.12508956039E+03 0.  0.
         24    2    1    2    0    0  0.58022346396E+02 -0.54480217359E+02  0.69669678411E+03  0.70588930159E+03  0.80985247707E+02 0.  0.
        -11    1    5    5    0    0  0.44389341054E+02 -0.75835752424E+02  0.51682060998E+03  0.52423755859E+03  0.00000000000E+00 0.  1.
         12    1    5    5    0    0  0.13633005342E+02  0.21355535064E+02  0.17987617414E+03  0.18165174300E+03  0.00000000000E+00 0. -1.
         13    1    3    3    0    0  0.56369169401E+01 -0.22302256862E+01 -0.55018704792E+03  0.55022044349E+03  0.00000000000E+00 0. -1.
        -14    1    3    3    0    0 -0.96405349192E+02  0.72998092362E+02 -0.17041774267E+04  0.17084622953E+04  0.00000000000E+00 0.  1.
          5    1    4    4  501    0 -0.24513173441E+02 -0.43008795348E+02 -0.16852089678E+03  0.17569125534E+03  0.41800000000E+01 0. -1.
         -5    1    4    4    0  501  0.57259259296E+02  0.26721146031E+02 -0.59209374761E+02  0.86694087918E+02  0.41800000000E+01 0. -1.
</event>
<event>
11    1  0.8453735E-009  0.1610882E+03  0.7561462E-02  0.1086058E+00
         22   -1    0    0    0    0  0.00000000000E+00  0.00000000000E+00  0.17189944288E+04  0.17189944288E+04  0.00000000000E+00 0.  1.
         22   -1    0    0    0    0 -0.00000000000E+00 -0.00000000000E+00 -0.43336158759E+03  0.43336158759E+03  0.00000000000E+00 0. -1.
         24    2    1    2    0    0 -0.26406885456E+02  0.14682038688E+02 -0.35534306824E+03  0.36578988364E+03  0.81367419594E+02 0.  0.
         25    2    1    2    0    0  0.31466993501E+02 -0.11528960810E+03  0.38339407218E+02  0.17720906652E+03  0.12510506662E+03 0.  0.
        -24    2    1    2    0    0 -0.50601080452E+01  0.10060756941E+03  0.16026365022E+04  0.16093570662E+04  0.10695288969E+03 0.  0.
        -11    1    3    3    0    0 -0.41283064053E+02  0.37420807371E+02 -0.18225717812E+03  0.19058406853E+03  0.00000000000E+00 0.  1.
         12    1    3    3    0    0  0.14876178597E+02 -0.22738768683E+02 -0.17308589012E+03  0.17520581512E+03  0.00000000000E+00 0. -1.
         13    1    5    5    0    0 -0.30488838989E+02 -0.10593720215E+02  0.41601422899E+03  0.41726446642E+03  0.00000000000E+00 0. -1.
        -14    1    5    5    0    0  0.25428730943E+02  0.11120128963E+03  0.11866222733E+04  0.11920925998E+04  0.00000000000E+00 0.  1.
          5    1    4    4  501    0  0.69412399478E+02 -0.24381879097E+02  0.24441930887E+02  0.77636573953E+02  0.41800000000E+01 0. -1.
         -5    1    4    4    0  501 -0.37945405977E+02 -0.90907729005E+02  0.13897476331E+02  0.99572492567E+02  0.41800000000E+01 0. -1.
</event>
<event>
11    1  0.8453735E-009  0.1417736E+03  0.7561462E-02  0.1105594E+00
         22   -1    0    0    0    0  0.00000000000E+00  0.00000000000E+00  0.36424753085E+03  0.36424753085E+03  0.00000000000E+00 0.  1.
         22   -1    0    0    0    0 -0.00000000000E+00 -0.00000000000E+00 -0.35771151692E+03  0.35771151692E+03  0.00000000000E+00 0.  1.
         24    2    1    2    0    0 -0.31436582335E+02  0.56930788688E+02 -0.27748067039E+03  0.29376129685E+03  0.71209575763E+02 0.  0.
         25    2    1    2    0    0  0.71359160523E+02 -0.58543052625E+02  0.31120958872E+02  0.15854142290E+03  0.12508976734E+03 0.  0.
        -24    2    1    2    0    0 -0.39922578188E+02  0.16122639375E+01  0.25289572545E+03  0.26965632801E+03  0.84627865640E+02 0.  0.
        -13    1    3    3    0    0 -0.28650382331E+02  0.63628697170E+02 -0.14332749496E+03  0.15941212728E+03  0.00000000000E+00 0.  1.
         14    1    3    3    0    0 -0.27862000037E+01 -0.66979084824E+01 -0.13415317543E+03  0.13434916958E+03  0.00000000000E+00 0. -1.
         13    1    5    5    0    0  0.95062749632E+01 -0.30590409735E+02  0.61031572344E+02  0.68927463715E+02  0.00000000000E+00 0. -1.
        -14    1    5    5    0    0 -0.49428853151E+02  0.32202673673E+02  0.19186415310E+03  0.20072886429E+03  0.00000000000E+00 0.  1.
          5    1    4    4  501    0  0.13438348548E+02 -0.87730373505E+01 -0.46622740553E+02  0.49484419091E+02  0.41800000000E+01 0. -1.
         -5    1    4    4    0  501  0.57920811975E+02 -0.49770015275E+02  0.77743699425E+02  0.10905700381E+03  0.41800000000E+01 0. -1.
</event>
<event>
11    1  0.8453735E-009  0.1394105E+03  0.7561462E-02  0.1108218E+00
         22   -1    0    0    0    0  0.00000000000E+00  0.00000000000E+00  0.32768774608E+03  0.32768774608E+03  0.00000000000E+00 0.  1.
         22   -1    0    0    0    0 -0.00000000000E+00 -0.00000000000E+00 -0.50656776869E+03  0.50656776869E+03  0.00000000000E+00 0. -1.
         24    2    1    2    0    0  0.19823690170E+02  0.54620424125E+02 -0.33673311951E+03  0.35113125907E+03  0.80793551080E+02 0.  0.
         25    2    1    2    0    0  0.81675903261E+00 -0.82976109067E+02 -0.11973893669E+03  0.19201419216E+03  0.12508531192E+03 0.  0.
        -24    2    1    2    0    0 -0.20640449202E+02  0.28355684942E+02  0.27759203360E+03  0.29111006354E+03  0.80359560524E+02 0.  0.
        -11    1    3    3    0    0  0.47817123756E+02  0.28156430502E+02 -0.25222645659E+03  0.25825848932E+03  0.00000000000E+00 0.  1.
         12    1    3    3    0    0 -0.27993433587E+02  0.26463993623E+02 -0.84506662926E+02  0.92872769752E+02  0.00000000000E+00 0. -1.
         13    1    5    5    0    0  0.28018495212E+02 -0.47518201671E+01  0.77702219857E+02  0.82736031085E+02  0.00000000000E+00 0. -1.
        -14    1    5    5    0    0 -0.48658944414E+02  0.33107505109E+02  0.19988981374E+03  0.20837403246E+03  0.00000000000E+00 0.  1.
          5    1    4    4  501    0 -0.41997843652E+02 -0.36669701926E+02  0.79280874090E+00  0.55915890912E+02  0.41800000000E+01 0. -1.
         -5    1    4    4    0  501  0.42814602684E+02 -0.46306407141E+02 -0.12053174543E+03  0.13609830124E+03  0.41800000000E+01 0. -1.
</event>
<event>
11    1  0.8453735E-009  0.2323480E+03  0.7561462E-02  0.1033747E+00
         22   -1    0    0    0    0  0.00000000000E+00  0.00000000000E+00  0.13374055830E+03  0.13374055830E+03  0.00000000000E+00 0. -1.
         22   -1    0    0    0    0 -0.00000000000E+00 -0.00000000000E+00 -0.84837688178E+03  0.84837688178E+03  0.00000000000E+00 0. -1.
         24    2    1    2    0    0  0.50100066117E+02  0.55724127891E+02 -0.39837568891E+03  0.41190780849E+03  0.73141357138E+02 0.  0.
         25    2    1    2    0    0 -0.22889154082E+03 -0.57809737914E+02 -0.24255383186E+03  0.36085062310E+03  0.12508999797E+03 0.  0.
        -24    2    1    2    0    0  0.17879147470E+03  0.20856100229E+01 -0.73706802713E+02  0.20935900848E+03  0.80173315214E+02 0.  0.
        -11    1    3    3    0    0 -0.13846289405E+02 -0.66075621868E+01 -0.63997377287E+02  0.65810667128E+02  0.00000000000E+00 0.  1.
         12    1    3    3    0    0  0.63946355522E+02  0.62331690078E+02 -0.33437831163E+03  0.34609714136E+03  0.00000000000E+00 0. -1.
         13    1    5    5    0    0  0.14455615329E+03 -0.16233618157E+02 -0.25870136518E+02  0.14774733762E+03  0.00000000000E+00 0. -1.
        -14    1    5    5    0    0  0.34235321411E+02  0.18319228179E+02 -0.47836666195E+02  0.61611670857E+02  0.00000000000E+00 0.  1.
          5    1    4    4  501    0  0.79658211159E+01 -0.18833510313E+01 -0.49039440311E+02  0.49893290363E+02  0.41800000000E+01 0.  1.
         -5    1    4    4    0  501 -0.23685736193E+03 -0.55926386883E+02 -0.19351439154E+03  0.31095733274E+03  0.41800000000E+01 0.  1.
</event>
<event>
11    1  0.8453735E-009  0.1399408E+03  0.7561462E-02  0.1107625E+00
         22   -1    0    0    0    0  0.00000000000E+00  0.00000000000E+00  0.29088604875E+03  0.29088604875E+03  0.00000000000E+00 0.  1.
         22   -1    0    0    0    0 -0.00000000000E+00 -0.00000000000E+00 -0.34681194377E+03  0.34681194377E+03  0.00000000000E+00 0. -1.
         24    2    1    2    0    0  0.17377658954E+02  0.66171283586E+02 -0.26826264851E+03  0.28809305011E+03  0.79700283134E+02 0.  0.
         25    2    1    2    0    0 -0.37248728833E+02 -0.91764812248E+01  0.19852495501E+02  0.13232592352E+03  0.12507738744E+03 0.  0.
        -24    2    1    2    0    0  0.19871069878E+02 -0.56994802362E+02  0.19248425800E+03  0.21727901889E+03  0.80726176416E+02 0.  0.
        -13    1    3    3    0    0  0.19184387927E+01  0.91025598506E+01  0.35254298851E+01  0.99481485268E+01  0.00000000000E+00 0.  1.
         14    1    3    3    0    0  0.15459220162E+02  0.57068723736E+02 -0.27178807840E+03  0.27814490158E+03  0.00000000000E+00 0. -1.
         13    1    5    5    0    0 -0.13483729328E+02  0.11108214589E+02  0.78175404251E+02  0.80103665446E+02  0.00000000000E+00 0. -1.
        -14    1    5    5    0    0  0.33354799207E+02 -0.68103016951E+02  0.11430885375E+03  0.13717535345E+03  0.00000000000E+00 0.  1.
          5    1    4    4  501    0 -0.23338373781E+02  0.49918505355E+02 -0.20904120250E+02  0.59084613150E+02  0.41800000000E+01 0.  1.
         -5    1    4    4    0  501 -0.13910355051E+02 -0.59094986580E+02  0.40756615751E+02  0.73241310365E+02  0.41800000000E+01 0.  1.
</event>
<event>
11    1  0.8453735E-009  0.1572277E+03  0.7561462E-02  0.1089714E+00
         22   -1    0    0    0    0  0.00000000000E+00  0.00000000000E+00  0.12681805917E+03  0.12681805917E+03  0.00000000000E+00 0.  1.
         22   -1    0    0    0    0 -0.00000000000E+00 -0.00000000000E+00 -0.44741672586E+03  0.44741672586E+03  0.00000000000E+00 0. -1.
        -24    2    1    2    0    0 -0.41168553626E+02  0.78830495774E+02 -0.14873709386E+03  0.19110069344E+03  0.80545981086E+02 0.  0.
         25    2    1    2    0    0 -0.18783055862E+02 -0.11535769393E+03 -0.20955285526E+03  0.27059151751E+03  0.12508864643E+03 0.  0.
         24    2    1    2    0    0  0.59951609488E+02  0.36527198159E+02  0.37691282438E+02  0.11254257408E+03  0.79478088326E+02 0.  0.
        -13    1    5    5    0    0  0.32875194678E+02  0.50885439131E+02  0.50941890348E+02  0.79152906029E+02  0.00000000000E+00 0.  1.
         14    1    5    5    0    0  0.27076414810E+02 -0.14358240972E+02 -0.13250607910E+02  0.33389668054E+02  0.00000000000E+00 0. -1.
         13    1    3    3    0    0 -0.13858026703E+02  0.70107498235E+02 -0.47323332788E+02  0.85712333062E+02  0.00000000000E+00 0. -1.
        -14    1    3    3    0    0 -0.27310526923E+02  0.87229975397E+01 -0.10141376107E+03  0.10538836037E+03  0.00000000000E+00 0.  1.
          5    1    4    4  501    0  0.68589558114E+01 -0.11151860089E+03 -0.77715816564E+02  0.13616410748E+03  0.41800000000E+01 0. -1.
         -5    1    4    4    0  501 -0.25642011673E+02 -0.38390930390E+01 -0.13183703869E+03  0.13442741004E+03  0.41800000000E+01 0. -1.
</event>
<event>
11    1  0.8453735E-009  0.2002274E+03  0.7561462E-02  0.1054363E+00
         22   -1    0    0    0    0  0.00000000000E+00  0.00000000000E+00  0.17921569006E+04  0.17921569006E+04  0.00000000000E+00 0. -1.
         22   -1    0    0    0    0 -0.00000000000E+00 -0.00000000000E+00 -0.14098723017E+04  0.14098723017E+04  0.00000000000E+00 0. -1.
         24    2    1    2    0    0 -0.13234402854E+02  0.22977564413E+02 -0.13459887892E+04  0.13487967423E+04  0.82847531895E+02 0.  0.
         25    2    1    2    0    0  0.11562012758E+02  0.13512970785E+03  0.89864298112E+02  0.20522426461E+03  0.12509072158E+03 0.  0.
        -24    2    1    2    0    0  0.16723900959E+01 -0.15810727226E+03  0.16384090901E+04  0.16480081954E+04  0.80907101456E+02 0.  0.
        -11    1    3    3    0    0 -0.36066886059E+02 -0.15040505234E+02 -0.44321105301E+03  0.44493041543E+03  0.00000000000E+00 0.  1.
         12    1    3    3    0    0  0.22832483205E+02  0.38018069647E+02 -0.90277773622E+03  0.90386632691E+03  0.00000000000E+00 0. -1.
         11    1    5    5    0    0  0.40967216892E+02 -0.86631915224E+02  0.84414599895E+03  0.84956804857E+03  0.00000000000E+00 0. -1.
        -12    1    5    5    0    0 -0.39294826796E+02 -0.71475357040E+02  0.79426309114E+03  0.79844014680E+03  0.00000000000E+00 0.  1.
          5    1    4    4  501    0 -0.20690997455E+02 -0.16584598113E+02  0.26196453279E+02  0.37508570149E+02  0.41800000000E+01 0.  1.
         -5    1    4    4    0  501  0.32253010213E+02  0.15171430596E+03  0.63667844833E+02  0.16771569446E+03  0.41800000000E+01 0.  1.
</event>
<event>
11    1  0.8453735E-009  0.1361606E+03  0.7561462E-02  0.1111923E+00
         22   -1    0    0    0    0  0.00000000000E+00  0.00000000000E+00  0.14986827479E+04  0.14986827479E+04  0.00000000000E+00 0. -1.
         22   -1    0    0    0    0 -0.00000000000E+00 -0.00000000000E+00 -0.93788147749E+02  0.93788147749E+02  0.00000000000E+00 0. -1.
        -24    2    1    2    0    0 -0.73247555440E+01 -0.55850780241E+02 -0.50665900777E+02  0.11188650504E+03  0.82332222198E+02 0.  0.
         25    2    1    2    0    0  0.37881588523E+02  0.13771726084E+02  0.40573370176E+03  0.42648559909E+03  0.12508179045E+03 0.  0.
         24    2    1    2    0    0 -0.30556832979E+02  0.42079054157E+02  0.10498267992E+04  0.10540987915E+04  0.79269080830E+02 0.  0.
        -13    1    5    5    0    0 -0.55169989858E+02  0.13029468822E+02  0.61247174729E+03  0.61508953500E+03  0.00000000000E+00 0.  1.
         14    1    5    5    0    0  0.24613156879E+02  0.29049585335E+02  0.43735505189E+03  0.43900925652E+03  0.00000000000E+00 0. -1.
         13    1    3    3    0    0 -0.27697123037E+02 -0.22144168737E+02 -0.61541954698E+02  0.71027508907E+02  0.00000000000E+00 0. -1.
        -14    1    3    3    0    0  0.20372367493E+02 -0.33706611504E+02  0.10876053920E+02  0.40858996136E+02  0.00000000000E+00 0.  1.
          5    1    4    4  501    0  0.19456932088E+02  0.69618792970E+02  0.21763781616E+03  0.22936660604E+03  0.41800000000E+01 0.  1.
         -5    1    4    4    0  501  0.18424656435E+02 -0.55847066886E+02  0.18809588560E+03  0.19711899306E+03  0.41800000000E+01 0.  1.
</event>
<event>
11    1  0.8453735E-009  0.2388292E+03  0.7561462E-02  0.1030024E+00
         22   -1    0    0    0    0  0.00000000000E+00  0.00000000000E+00  0.20444660818E+03  0.20444660818E+03  0.00000000000E+00 0.  1.
         22   -1    0    0    0    0 -0.00000000000E+00 -0.00000000000E+00 -0.44722334067E+03  0.44722334067E+03  0.00000000000E+00 0.  1.
         24    2    1    2    0    0  0.10084637858E+02 -0.62833616432E+02 -0.13665451506E+03  0.17093052536E+03  0.80579307128E+02 0.  0.
         25    2    1    2    0    0  0.14362212902E+03  0.17630051051E+03 -0.87371465294E+02  0.27384785676E+03  0.12509872002E+03 0.  0.
        -24    2    1    2    0    0 -0.15370676688E+03 -0.11346689408E+03 -0.18750752135E+02  0.20689156674E+03  0.77149358025E+02 0.  0.
        -13    1    3    3    0    0 -0.33429702796E+02 -0.11652508889E+02 -0.50730315375E+02  0.61861869439E+02  0.00000000000E+00 0.  1.
         14    1    3    3    0    0  0.43514340654E+02 -0.51181107543E+02 -0.85924199687E+02  0.10906865592E+03  0.00000000000E+00 0. -1.
         13    1    5    5    0    0 -0.42137083346E+02 -0.59576344042E+01  0.20236821334E+02  0.47122777277E+02  0.00000000000E+00 0. -1.
        -14    1    5    5    0    0 -0.11156968354E+03 -0.10750925968E+03 -0.38987573469E+02  0.15976878946E+03  0.00000000000E+00 0.  1.
          5    1    4    4  501    0  0.11427358395E+02 -0.19653028907E+02 -0.71415796873E+01  0.24192987115E+02  0.41800000000E+01 0. -1.
         -5    1    4    4    0  501  0.13219477063E+03  0.19595353942E+03 -0.80229885607E+02  0.24965486965E+03  0.41800000000E+01 0. -1.
</event>
<event>
11    1  0.8453735E-009  0.1316605E+03  0.7561462E-02  0.1117245E+00
         22   -1    0    0    0    0  0.00000000000E+00  0.00000000000E+00  0.29248716205E+03  0.29248716205E+03  0.00000000000E+00 0. -1.
         22   -1    0    0    0    0 -0.00000000000E+00 -0.00000000000E+00 -0.28472549456E+03  0.28472549456E+03  0.00000000000E+00 0.  1.
         24    2    1    2    0    0 -0.40094662201E+02  0.91883469303E+01 -0.11922160512E+03  0.14918104623E+03  0.79681778157E+02 0.  0.
         25    2    1    2    0    0  0.42609216088E+02  0.31415927260E+02 -0.11063294551E+03  0.17518828350E+03  0.12509508489E+03 0.  0.
        -24    2    1    2    0    0 -0.25145538870E+01 -0.40604274191E+02  0.23761621812E+03  0.25284332688E+03  0.76244676989E+02 0.  0.
        -13    1    3    3    0    0 -0.55468750862E+02 -0.30598043814E+01 -0.11684813030E+03  0.12938172312E+03  0.00000000000E+00 0.  1.
         14    1    3    3    0    0  0.15374088661E+02  0.12248151312E+02 -0.23734748265E+01  0.19799323106E+02  0.00000000000E+00 0. -1.
         13    1    5    5    0    0 -0.40738324150E+01 -0.58957339832E+02  0.21827845682E+03  0.22613723432E+03  0.00000000000E+00 0. -1.
        -14    1    5    5    0    0  0.15592785280E+01  0.18353065641E+02  0.19337761294E+02  0.26706092560E+02  0.00000000000E+00 0.  1.
          5    1    4    4  501    0  0.70687319947E+02  0.72190037802E+01 -0.11738730629E+03  0.13728096479E+03  0.41800000000E+01 0.  1.
         -5    1    4    4    0  501 -0.28078103859E+02  0.24196923480E+02  0.67543607817E+01  0.37907318710E+02  0.41800000000E+01 0.  1.
</event>
<event>
11    1  0.8453735E-009  0.1447013E+03  0.7561462E-02  0.1102419E+00
         22   -1    0    0    0    0  0.00000000000E+00  0.00000000000E+00  0.11550730709E+03  0.11550730709E+03  0.00000000000E+00 0.  1.
         22   -1    0    0    0    0 -0.00000000000E+00 -0.00000000000E+00 -0.12406971813E+04  0.12406971813E+04  0.00000000000E+00 0. -1.
         24    2    1    2    0    0  0.57430127557E+02 -0.45656731735E+02 -0.10522803051E+04  0.10579182954E+04  0.80712591961E+02 0.  0.
         25    2    1    2    0    0 -0.72652818815E+02  0.11357209591E+02 -0.12891416972E+03  0.19412157606E+03  0.12512755430E+03 0.  0.
        -24    2    1    2    0    0  0.15222691258E+02  0.34299522144E+02  0.56004600640E+02  0.10416461691E+03  0.79407585120E+02 0.  0.
        -13    1    3    3    0    0 -0.12202663464E+02 -0.13100781609E+01 -0.31519297627E+02  0.33824361388E+02  0.00000000000E+00 0.  1.
         14    1    3    3    0    0  0.69632791021E+02 -0.44346653574E+02 -0.10207610075E+04  0.10240939340E+04  0.00000000000E+00 0. -1.
         11    1    5    5    0    0  0.20774902845E+02  0.52493046497E+02  0.14165834430E+02  0.58204702420E+02  0.00000000000E+00 0. -1.
        -12    1    5    5    0    0 -0.55522115867E+01 -0.18193524353E+02  0.41838766210E+02  0.45959914490E+02  0.00000000000E+00 0.  1.
          5    1    4    4  501    0 -0.10350079506E+03  0.30170116587E+02 -0.86777243451E+02  0.13845726017E+03  0.41800000000E+01 0.  1.
         -5    1    4    4    0  501  0.30847976244E+02 -0.18812906996E+02 -0.42136926266E+02  0.55664315886E+02  0.41800000000E+01 0.  1.
</event>
<event>
11    1  0.8453735E-009  0.1364739E+03  0.7561462E-02  0.1111561E+00
         22   -1    0    0    0    0  0.00000000000E+00  0.00000000000E+00  0.31000075054E+04  0.31000075054E+04  0.00000000000E+00 0.  1.
         22   -1    0    0    0    0 -0.00000000000E+00 -0.00000000000E+00 -0.17020363929E+03  0.17020363929E+03  0.00000000000E+00 0. -1.
        -24    2    1    2    0    0 -0.35199394174E+02 -0.40647448369E+02 -0.14603006866E+03  0.17463185948E+03  0.79248299548E+02 0.  0.
         25    2    1    2    0    0  0.56627530327E+02  0.71945404674E+02  0.65199398240E+03  0.67016894467E+03  0.12508973926E+03 0.  0.
         24    2    1    2    0    0 -0.21428136153E+02 -0.31297956305E+02  0.24238399524E+04  0.24254103406E+04  0.78590572991E+02 0.  0.
        -13    1    5    5    0    0 -0.48841654789E+02 -0.31571276399E+02  0.14080920926E+04  0.14092925864E+04  0.00000000000E+00 0.  1.
         14    1    5    5    0    0  0.27413518636E+02  0.27332009484E+00  0.10157478598E+04  0.10161177542E+04  0.00000000000E+00 0. -1.
         13    1    3    3    0    0 -0.13158683786E+02 -0.37269782859E+02 -0.14709088705E+03  0.15230862328E+03  0.00000000000E+00 0. -1.
        -14    1    3    3    0    0 -0.22040710388E+02 -0.33776655095E+01  0.10608183817E+01  0.22323236197E+02  0.00000000000E+00 0.  1.
          5    1    4    4  501    0 -0.17231712161E+02  0.77512049433E+02  0.38065162151E+03  0.38886781696E+03  0.41800000000E+01 0.  1.
         -5    1    4    4    0  501  0.73859242488E+02 -0.55666447593E+01  0.27134236089E+03  0.28130112771E+03  0.41800000000E+01 0.  1.
</event>
<event>
11    1  0.1045399E-008  0.1424800E+03  0.7561462E-02  0.1104820E+00
         22   -1    0    0    0    0  0.00000000000E+00  0.00000000000E+00  0.13231544197E+04  0.13231544197E+04  0.00000000000E+00 0. -1.
         22   -1    0    0    0    0 -0.00000000000E+00 -0.00000000000E+00 -0.22176230196E+03  0.22176230196E+03  0.00000000000E+00 0.  1.
         24    2    1    2    0    0  0.27117095702E+02 -0.29423208770E+02 -0.89501607738E+02  0.12679965034E+03  0.80414870788E+02 0.  0.
         25    2    1    2    0    0 -0.94706542883E+02  0.25408236080E+02 -0.54686449702E+02  0.16808885977E+03  0.12509336222E+03 0.  0.
        -24    2    1    2    0    0  0.67589447182E+02  0.40149726908E+01  0.12455801752E+04  0.12500282116E+04  0.80722385571E+02 0.  0.
        -11    1    3    3    0    0  0.26782124375E+02 -0.50819369458E+02 -0.88333078684E+02  0.10536898637E+03  0.00000000000E+00 0.  1.
         12    1    3    3    0    0  0.33497132648E+00  0.21396160688E+02 -0.11685290533E+01  0.21430663968E+02  0.00000000000E+00 0. -1.
         13    1    5    5    0    0  0.22962616011E+01  0.84215333072E+01  0.76089324875E+03  0.76094331657E+03  0.00000000000E+00 0. -1.
        -14    1    5    5    0    0  0.65293185581E+02 -0.44065606165E+01  0.48468692642E+03  0.48908489499E+03  0.00000000000E+00 0.  1.
          5    1    4    4  501    0 -0.94266584823E+02  0.41620424254E+02  0.77728122152E+01  0.10342310061E+03  0.41800000000E+01 0.  1.
         -5    1    4    4    0  501 -0.43995806011E+00 -0.16212188175E+02 -0.62459261917E+02  0.64665759160E+02  0.41800000000E+01 0.  1.
</event>
<event>
11    1  0.8453735E-009  0.1536702E+03  0.7561462E-02  0.1093187E+00
         22   -1    0    0    0    0  0.00000000000E+00  0.00000000000E+00  0.18443910318E+03  0.18443910318E+03  0.00000000000E+00 0. -1.
         22   -1    0    0    0    0 -0.00000000000E+00 -0.00000000000E+00 -0.69169404148E+03  0.69169404148E+03  0.00000000000E+00 0. -1.
         24    2    1    2    0    0 -0.18000873277E+01  0.83214353851E+02 -0.32493381883E+03  0.34544963690E+03  0.82617165342E+02 0.  0.
         25    2    1    2    0    0  0.77732952632E+01 -0.99948457012E+02 -0.32730912847E+03  0.36445791443E+03  0.12509271616E+03 0.  0.
        -24    2    1    2    0    0 -0.59732079355E+01  0.16734103161E+02  0.14498800900E+03  0.16622559333E+03  0.79332942098E+02 0.  0.
        -13    1    3    3    0    0 -0.29798003717E+02  0.72606858596E+01 -0.48296511419E+02  0.57211813465E+02  0.00000000000E+00 0.  1.
         14    1    3    3    0    0  0.27997916389E+02  0.75953667992E+02 -0.27663730742E+03  0.28823782343E+03  0.00000000000E+00 0. -1.
         11    1    5    5    0    0 -0.41397131401E+02  0.19512804319E+02  0.81814633663E+02  0.93744900139E+02  0.00000000000E+00 0. -1.
        -12    1    5    5    0    0  0.35423923465E+02 -0.27787011581E+01  0.63173375338E+02  0.72480693191E+02  0.00000000000E+00 0.  1.
          5    1    4    4  501    0 -0.20392312710E+02 -0.11337199846E+03 -0.17942243808E+03  0.21325791929E+03  0.41800000000E+01 0. -1.
         -5    1    4    4    0  501  0.28165607973E+02  0.13423541451E+02 -0.14788669039E+03  0.15119999514E+03  0.41800000000E+01 0. -1.
</event>
<event>
11    1  0.8453735E-009  0.1351350E+03  0.7561462E-02  0.1113116E+00
         22   -1    0    0    0    0  0.00000000000E+00  0.00000000000E+00  0.12284327861E+04  0.12284327861E+04  0.00000000000E+00 0. -1.
         22   -1    0    0    0    0 -0.00000000000E+00 -0.00000000000E+00 -0.78909970546E+03  0.78909970546E+03  0.00000000000E+00 0. -1.
         24    2    1    2    0    0 -0.57341442722E+02  0.23473649453E+02 -0.49955942037E+03  0.50969655776E+03  0.79949441752E+02 0.  0.
         25    2    1    2    0    0  0.13428957083E+02 -0.20274774876E+02 -0.26860454335E+03  0.29729464751E+03  0.12507718954E+03 0.  0.
        -24    2    1    2    0    0  0.43912485638E+02 -0.31988745771E+01  0.12074970443E+04  0.12105412863E+04  0.73637996211E+02 0.  0.
        -13    1    3    3    0    0 -0.30048462156E+00 -0.16524278977E+02 -0.25142603011E+03  0.25196863040E+03  0.00000000000E+00 0.  1.
         14    1    3    3    0    0 -0.57040958100E+02  0.39997928430E+02 -0.24813339026E+03  0.25772792736E+03  0.00000000000E+00 0. -1.
         11    1    5    5    0    0  0.23935924202E+01  0.17975939582E+02  0.82722983070E+03  0.82742858090E+03  0.00000000000E+00 0. -1.
        -12    1    5    5    0    0  0.41518893218E+02 -0.21174814159E+02  0.38026721362E+03  0.38311270535E+03  0.00000000000E+00 0.  1.
          5    1    4    4  501    0 -0.20022297591E+02  0.20203786803E+02 -0.23048464390E+03  0.23227080935E+03  0.41800000000E+01 0. -1.
         -5    1    4    4    0  501  0.33451254674E+02 -0.40478561678E+02 -0.38119899452E+02  0.65023838160E+02  0.41800000000E+01 0. -1.
</event>
<event>
11    1  0.8453735E-009  0.1478885E+03  0.7561462E-02  0.1099056E+00
         22   -1    0    0    0    0  0.00000000000E+00  0.00000000000E+00  0.15912155766E+03  0.15912155766E+03  0.00000000000E+00 0.  1.
         22   -1    0    0    0    0 -0.00000000000E+00 -0.00000000000E+00 -0.16674157841E+04  0.16674157841E+04  0.00000000000E+00 0.  1.
         24    2    1    2    0    0 -0.77216597897E+02  0.18618895511E+02 -0.15392138852E+04  0.15434939913E+04  0.82977410455E+02 0.  0.
         25    2    1    2    0    0  0.40556652766E+02 -0.88121617757E+02 -0.21110847386E+02  0.15970094317E+03  0.12509381189E+03 0.  0.
        -24    2    1    2    0    0  0.36659945131E+02  0.69502722246E+02  0.52030506095E+02  0.12334240729E+03  0.79571325836E+02 0.  0.
        -11    1    3    3    0    0 -0.94302906106E+02  0.10188695441E+02 -0.13480957482E+04  0.13514285012E+04  0.00000000000E+00 0.  1.
         12    1    3    3    0    0  0.17086308208E+02  0.84302000700E+01 -0.19111813699E+03  0.19206549010E+03  0.00000000000E+00 0. -1.
         11    1    5    5    0    0  0.48367790718E+02  0.88932227987E+01  0.30974570334E+02  0.58120190967E+02  0.00000000000E+00 0. -1.
        -12    1    5    5    0    0 -0.11707845586E+02  0.60609499448E+02  0.21055935761E+02  0.65222216325E+02  0.00000000000E+00 0.  1.
          5    1    4    4  501    0 -0.52694522655E+01  0.29780657133E+02  0.36158469722E+01  0.30744128151E+02  0.41800000000E+01 0.  1.
         -5    1    4    4    0  501  0.45826105032E+02 -0.11790227489E+03 -0.24726694358E+02  0.12895681502E+03  0.41800000000E+01 0.  1.
</event>
<event>
11    1  0.8453735E-009  0.1621567E+03  0.7561462E-02  0.1085066E+00
         22   -1    0    0    0    0  0.00000000000E+00  0.00000000000E+00  0.22480096648E+03  0.22480096648E+03  0.00000000000E+00 0.  1.
         22   -1    0    0    0    0 -0.00000000000E+00 -0.00000000000E+00 -0.53862041879E+03  0.53862041879E+03  0.00000000000E+00 0.  1.
         24    2    1    2    0    0  0.99238153068E+02  0.56539067260E+02 -0.33719633656E+03  0.36345513624E+03  0.73166860832E+02 0.  0.
         25    2    1    2    0    0 -0.94905935766E+02  0.45158285286E+02 -0.12305665728E+03  0.20453878481E+03  0.12508703457E+03 0.  0.
        -24    2    1    2    0    0 -0.43322173018E+01 -0.10169735255E+03  0.14643354152E+03  0.19542746422E+03  0.79924915181E+02 0.  0.
        -13    1    3    3    0    0  0.59873568677E+02  0.27827812947E+02 -0.28290309567E+03  0.29050540948E+03  0.00000000000E+00 0.  1.
         14    1    3    3    0    0  0.39364584391E+02  0.28711254313E+02 -0.54293240887E+02  0.72949726761E+02  0.00000000000E+00 0. -1.
         11    1    5    5    0    0 -0.42430674698E+01 -0.59460705091E+02  0.21210086235E+02  0.63272796916E+02  0.00000000000E+00 0. -1.
        -12    1    5    5    0    0 -0.89149832049E-01 -0.42236647455E+02  0.12522345529E+03  0.13215466730E+03  0.00000000000E+00 0.  1.
          5    1    4    4  501    0  0.21017498035E+02  0.36953892152E+02 -0.13575381359E+02  0.44822859657E+02  0.41800000000E+01 0. -1.
         -5    1    4    4    0  501 -0.11592343380E+03  0.82043931342E+01 -0.10948127592E+03  0.15971592515E+03  0.41800000000E+01 0. -1.
</event>
<event>
11    1  0.8453735E-009  0.1791804E+03  0.7561462E-02  0.1070308E+00
         22   -1    0    0    0    0  0.00000000000E+00  0.00000000000E+00  0.26021004211E+04  0.26021004211E+04  0.00000000000E+00 0. -1.
         22   -1    0    0    0    0 -0.00000000000E+00 -0.00000000000E+00 -0.71008076197E+02  0.71008076197E+02  0.00000000000E+00 0. -1.
         24    2    1    2    0    0  0.77089557015E+02  0.91087222833E+02  0.50429332799E+02  0.14993514106E+03  0.75483421723E+02 0.  0.
         25    2    1    2    0    0 -0.18586391984E+03 -0.10524336381E+03  0.81368038020E+03  0.85049690939E+03  0.12509064486E+03 0.  0.
        -24    2    1    2    0    0  0.10877436283E+03  0.14156140982E+02  0.16669826319E+04  0.16726764468E+04  0.83565198615E+02 0.  0.
        -11    1    3    3    0    0  0.50306466718E+01  0.51491315553E+02  0.43192212137E+02  0.67396069415E+02  0.00000000000E+00 0.  1.
         12    1    3    3    0    0  0.72058910343E+02  0.39595907280E+02  0.72371206626E+01  0.82539071649E+02  0.00000000000E+00 0. -1.
         13    1    5    5    0    0  0.11678718129E+03  0.28683366716E+02  0.15231883837E+04  0.15279282815E+04  0.00000000000E+00 0. -1.
        -14    1    5    5    0    0 -0.80128184580E+01 -0.14527225734E+02  0.14379424823E+03  0.14474816534E+03  0.00000000000E+00 0.  1.
          5    1    4    4  501    0 -0.11096746257E+03  0.25013719204E+01  0.46045513939E+03  0.47366279398E+03  0.41800000000E+01 0.  1.
         -5    1    4    4    0  501 -0.74896457269E+02 -0.10774473573E+03  0.35322524081E+03  0.37683411541E+03  0.41800000000E+01 0.  1.
</event>
<event>
11    1  0.8453735E-009  0.1365830E+03  0.7561462E-02  0.1111435E+00
         22   -1    0    0    0    0  0.00000000000E+00  0.00000000000E+00  0.36458638997E+03  0.36458638997E+03  0.00000000000E+00 0. -1.
         22   -1    0    0    0    0 -0.00000000000E+00 -0.00000000000E+00 -0.10714792898E+04  0.10714792898E+04  0.00000000000E+00 0.  1.
         24    2    1    2    0    0  0.83009567617E+00  0.10537668778E+02 -0.76539934601E+03  0.76979784883E+03  0.81491334931E+02 0.  0.
         25    2    1    2    0    0 -0.46197512952E+02  0.20470807835E+02 -0.28181989576E+03  0.31244787409E+03  0.12509179110E+03 0.  0.
        -24    2    1    2    0    0  0.45367417276E+02 -0.31008476613E+02  0.34032634197E+03  0.35381995681E+03  0.79666897930E+02 0.  0.
        -13    1    3    3    0    0  0.37475804742E+02  0.21164192619E+02 -0.46432315355E+03  0.46631357466E+03  0.00000000000E+00 0.  1.
         14    1    3    3    0    0 -0.36645709066E+02 -0.10626523841E+02 -0.30107619246E+03  0.30348427417E+03  0.00000000000E+00 0. -1.
         11    1    5    5    0    0  0.44743993230E+02 -0.33457738387E+01  0.30807680756E+03  0.31132706032E+03  0.00000000000E+00 0. -1.
        -12    1    5    5    0    0  0.62342404588E+00 -0.27662702774E+02  0.32249534417E+02  0.42492896494E+02  0.00000000000E+00 0.  1.
          5    1    4    4  501    0  0.27222880509E+02  0.48442064471E+02 -0.10367200220E+03  0.11769908782E+03  0.41800000000E+01 0.  1.
         -5    1    4    4    0  501 -0.73420393461E+02 -0.27971256635E+02 -0.17814789355E+03  0.19474878626E+03  0.41800000000E+01 0.  1.
</event>
<event>
11    1  0.8453735E-009  0.1850645E+03  0.7561462E-02  0.1065618E+00
         22   -1    0    0    0    0  0.00000000000E+00  0.00000000000E+00  0.15871214043E+04  0.15871214043E+04  0.00000000000E+00 0. -1.
         22   -1    0    0    0    0 -0.00000000000E+00 -0.00000000000E+00 -0.42256870096E+03  0.42256870096E+03  0.00000000000E+00 0.  1.
         24    2    1    2    0    0  0.90974111972E+01  0.12982727026E+02 -0.94942129208E+02  0.12541185806E+03  0.80391617421E+02 0.  0.
         25    2    1    2    0    0 -0.11499945355E+02  0.12355179783E+03 -0.28311963547E+03  0.33346861922E+03  0.12508915429E+03 0.  0.
        -24    2    1    2    0    0  0.24025341579E+01 -0.13653452486E+03  0.15426144681E+04  0.15508096280E+04  0.81875861119E+02 0.  0.
        -13    1    3    3    0    0 -0.32346504788E+02 -0.96261358522E+01 -0.49311183322E+02  0.59754093283E+02  0.00000000000E+00 0.  1.
         14    1    3    3    0    0  0.41443915985E+02  0.22608862878E+02 -0.45630945885E+02  0.65657764775E+02  0.00000000000E+00 0. -1.
         11    1    5    5    0    0 -0.32009577009E+02 -0.98037568285E+02  0.11861220092E+04  0.11905970765E+04  0.00000000000E+00 0. -1.
        -12    1    5    5    0    0  0.34412111167E+02 -0.38496956570E+02  0.35649245884E+03  0.36021255152E+03  0.00000000000E+00 0.  1.
          5    1    4    4  501    0  0.18378207314E+02  0.59145377854E+02 -0.27064021499E+02  0.67719036358E+02  0.41800000000E+01 0.  1.
         -5    1    4    4    0  501 -0.29878152669E+02  0.64406419975E+02 -0.25605561397E+03  0.26574958286E+03  0.41800000000E+01 0.  1.
</event>
<event>
11    1  0.8453735E-009  0.3515955E+03  0.7561462E-02  0.9804473E-01
         22   -1    0    0    0    0  0.00000000000E+00  0.00000000000E+00  0.35139523485E+03  0.35139523485E+03  0.00000000000E+00 0.  1.
         22   -1    0    0    0    0 -0.00000000000E+00 -0.00000000000E+00 -0.28007185936E+04  0.28007185936E+04  0.00000000000E+00 0.  1.
        -24    2    1    2    0    0  0.89887643876E+02 -0.29737574581E+03 -0.18801079542E+04  0.19073019137E+04  0.80514272274E+02 0.  0.
         25    2    1    2    0    0 -0.15195958029E+03  0.36212699686E+03 -0.84727288089E+03  0.94220336044E+03  0.12509261309E+03 0.  0.
         24    2    1    2    0    0  0.62071936418E+02 -0.64751251047E+02  0.27805747632E+03  0.30260855427E+03  0.78805629074E+02 0.  0.
        -11    1    5    5    0    0  0.79595961506E+02 -0.53127016162E+02  0.19918933530E+03  0.22098504074E+03  0.00000000000E+00 0.  1.
         12    1    5    5    0    0 -0.17524025087E+02 -0.11624234886E+02  0.78868141019E+02  0.81623513522E+02  0.00000000000E+00 0. -1.
         11    1    3    3    0    0  0.20154441241E+02 -0.79914335854E+02 -0.31420944901E+03  0.32483854516E+03  0.00000000000E+00 0. -1.
        -12    1    3    3    0    0  0.69733202634E+02 -0.21746140996E+03 -0.15658985052E+04  0.15824633686E+04  0.00000000000E+00 0.  1.
          5    1    4    4  501    0  0.13835631705E+02  0.54611936649E+02 -0.18481892377E+03  0.19325991647E+03  0.41800000000E+01 0.  1.
         -5    1    4    4    0  501 -0.16579521200E+03  0.30751506021E+03 -0.66245395712E+03  0.74894344398E+03  0.41800000000E+01 0.  1.
</event>
<event>
11    1  0.8453735E-009  0.1710584E+03  0.7561462E-02  0.1077114E+00
         22   -1    0    0    0    0  0.00000000000E+00  0.00000000000E+00  0.51700201463E+02  0.51700201463E+02  0.00000000000E+00 0.  1.
         22   -1    0    0    0    0 -0.00000000000E+00 -0.00000000000E+00 -0.14860501066E+04  0.14860501066E+04  0.00000000000E+00 0.  1.
        -24    2    1    2    0    0  0.69906111871E+02  0.79861128656E+02 -0.56810275222E+03  0.58310677140E+03  0.77511969556E+02 0.  0.
         25    2    1    2    0    0 -0.85710921209E+02  0.47501985334E+02 -0.74089214736E+03  0.75774013862E+03  0.12508454358E+03 0.  0.
         24    2    1    2    0    0  0.15804809338E+02 -0.12736311399E+03 -0.12535500553E+03  0.19690339801E+03  0.81153656315E+02 0.  0.
        -11    1    5    5    0    0 -0.26617237274E+02 -0.91027527145E+02 -0.90336035798E+02  0.13097743081E+03  0.00000000000E+00 0.  1.
         12    1    5    5    0    0  0.42422046612E+02 -0.36335586845E+02 -0.35018969735E+02  0.65925967201E+02  0.00000000000E+00 0. -1.
         11    1    3    3    0    0  0.36250681118E+02 -0.56563631661E+01 -0.22195057195E+03  0.22496258070E+03  0.00000000000E+00 0. -1.
        -12    1    3    3    0    0  0.33655430753E+02  0.85517491822E+02 -0.34615218027E+03  0.35814419070E+03  0.00000000000E+00 0.  1.
          5    1    4    4  501    0 -0.27643380013E+02  0.85111752142E+02 -0.41514005383E+03  0.42469624852E+03  0.41800000000E+01 0. -1.
         -5    1    4    4    0  501 -0.58067541197E+02 -0.37609766807E+02 -0.32575209353E+03  0.33304389010E+03  0.41800000000E+01 0. -1.
</event>
<event>
11    1  0.8453735E-009  0.1305766E+03  0.7561462E-02  0.1118563E+00
         22   -1    0    0    0    0  0.00000000000E+00  0.00000000000E+00  0.92779358773E+02  0.92779358773E+02  0.00000000000E+00 0.  1.
         22   -1    0    0    0    0 -0.00000000000E+00 -0.00000000000E+00 -0.20074016693E+04  0.20074016693E+04  0.00000000000E+00 0. -1.
         24    2    1    2    0    0 -0.14524992161E+02 -0.34641328236E+02 -0.18271728202E+04  0.18293228643E+04  0.80315814074E+02 0.  0.
         25    2    1    2    0    0  0.36438716170E+02  0.22029384420E+02 -0.12162364603E+03  0.17958924621E+03  0.12508761837E+03 0.  0.
        -24    2    1    2    0    0 -0.21913724010E+02  0.12611943816E+02  0.34174155762E+02  0.91268917487E+02  0.80764286354E+02 0.  0.
        -13    1    3    3    0    0 -0.35299918440E+02  0.79911822723E+01 -0.11062044953E+04  0.11067964260E+04  0.00000000000E+00 0.  1.
         14    1    3    3    0    0  0.20774926280E+02 -0.42632510508E+02 -0.72096832493E+03  0.72252643832E+03  0.00000000000E+00 0. -1.
         11    1    5    5    0    0  0.28039302376E+01  0.27729159862E+02 -0.16867266332E+02  0.32577185344E+02  0.00000000000E+00 0. -1.
        -12    1    5    5    0    0 -0.24717654247E+02 -0.15117216046E+02  0.51041422095E+02  0.58691732143E+02  0.00000000000E+00 0.  1.
          5    1    4    4  501    0 -0.43689801567E+01  0.40995121966E+02  0.80963426184E+01  0.42222164515E+02  0.41800000000E+01 0.  1.
         -5    1    4    4    0  501  0.40807696327E+02 -0.18965737545E+02 -0.12971998864E+03  0.13736708170E+03  0.41800000000E+01 0.  1.
</event>
<event>
11    1  0.8453735E-009  0.1532742E+03  0.7561462E-02  0.1093579E+00
         22   -1    0    0    0    0  0.00000000000E+00  0.00000000000E+00  0.16988092470E+04  0.16988092470E+04  0.00000000000E+00 0. -1.
         22   -1    0    0    0    0 -0.00000000000E+00 -0.00000000000E+00 -0.13208771530E+03  0.13208771530E+03  0.00000000000E+00 0.  1.
        -24    2    1    2    0    0  0.34663840011E+01 -0.89078486087E+02 -0.93413326080E+02  0.15175692458E+03  0.79731563176E+02 0.  0.
         25    2    1    2    0    0 -0.31246925933E+01  0.75269522157E+02  0.67495569380E+03  0.69057008172E+03  0.12508630817E+03 0.  0.
         24    2    1    2    0    0 -0.34169140781E+00  0.13808963930E+02  0.98517916397E+03  0.98856995600E+03  0.80633544888E+02 0.  0.
        -13    1    5    5    0    0  0.31817099951E+01  0.11904072241E+02  0.20752421107E+02  0.24134895820E+02  0.00000000000E+00 0.  1.
         14    1    5    5    0    0 -0.35234014030E+01  0.19048916891E+01  0.96442674286E+03  0.96443506018E+03  0.00000000000E+00 0. -1.
         13    1    3    3    0    0 -0.37382130992E+02 -0.31134162457E+02 -0.35759460988E+02  0.60377966507E+02  0.00000000000E+00 0. -1.
        -14    1    3    3    0    0  0.40848514993E+02 -0.57944323631E+02 -0.57653865093E+02  0.91378958072E+02  0.00000000000E+00 0.  1.
          5    1    4    4  501    0  0.40109325466E+01  0.61453903707E+02  0.11615577865E+03  0.13153823465E+03  0.41800000000E+01 0.  1.
         -5    1    4    4    0  501 -0.71356251399E+01  0.13815618450E+02  0.55879991515E+03  0.55903184706E+03  0.41800000000E+01 0.  1.
</event>
<event>
11    1  0.8453735E-009  0.1354383E+03  0.7561462E-02  0.1112762E+00
         22   -1    0    0    0    0  0.00000000000E+00  0.00000000000E+00  0.15370249170E+03  0.15370249170E+03  0.00000000000E+00 0.  1.
         22   -1    0    0    0    0 -0.00000000000E+00 -0.00000000000E+00 -0.29762333093E+04  0.29762333093E+04  0.00000000000E+00 0.  1.
        -24    2    1    2    0    0 -0.21711296728E+02 -0.46786934002E+02 -0.28256858983E+04  0.28273189086E+04  0.81061811001E+02 0.  0.
         25    2    1    2    0    0 -0.82086152549E+01  0.80121522768E+02 -0.89150693587E+02  0.17344311482E+03  0.12509127921E+03 0.  0.
         24    2    1    2    0    0  0.29919911983E+02 -0.33334588766E+02  0.92305774324E+02  0.12917377760E+03  0.78480015955E+02 0.  0.
        -11    1    5    5    0    0  0.17907607828E+01 -0.29737172568E+02  0.96055024998E+02  0.10056875302E+03  0.00000000000E+00 0.  1.
         12    1    5    5    0    0  0.28129151200E+02 -0.35974161984E+01 -0.37492506749E+01  0.28605024579E+02  0.00000000000E+00 0. -1.
         13    1    3    3    0    0 -0.30828672923E+02 -0.61189807963E+02 -0.26298884395E+04  0.26307808354E+04  0.00000000000E+00 0. -1.
        -14    1    3    3    0    0  0.91173761950E+01  0.14402873961E+02 -0.19579745880E+03  0.19653807315E+03  0.00000000000E+00 0.  1.
          5    1    4    4  501    0 -0.62450836163E+02  0.15841294111E+02 -0.38336074718E+02  0.75087818995E+02  0.41800000000E+01 0. -1.
         -5    1    4    4    0  501  0.54242220908E+02  0.64280228657E+02 -0.50814618869E+02  0.98355295821E+02  0.41800000000E+01 0. -1.
</event>
<event>
11    1  0.8453735E-009  0.1302199E+03  0.7561462E-02  0.1118999E+00
         22   -1    0    0    0    0  0.00000000000E+00  0.00000000000E+00  0.49819320848E+03  0.49819320848E+03  0.00000000000E+00 0.  1.
         22   -1    0    0    0    0 -0.00000000000E+00 -0.00000000000E+00 -0.18920465353E+03  0.18920465353E+03  0.00000000000E+00 0.  1.
         24    2    1    2    0    0 -0.36769739121E+02 -0.34455336184E+00 -0.14866221248E+03  0.17430838982E+03  0.83251600048E+02 0.  0.
         25    2    1    2    0    0  0.25905393962E+02  0.25519763760E+02  0.17724083067E+03  0.21996906608E+03  0.12509888166E+03 0.  0.
        -24    2    1    2    0    0  0.10864345159E+02 -0.25175210398E+02  0.28040993675E+03  0.29312040611E+03  0.80857990567E+02 0.  0.
        -11    1    3    3    0    0 -0.34956888653E+02 -0.19148984559E+02 -0.15015771553E+03  0.15535767509E+03  0.00000000000E+00 0.  1.
         12    1    3    3    0    0 -0.18128504677E+01  0.18804431197E+02  0.14955030570E+01  0.18950714732E+02  0.00000000000E+00 0. -1.
         13    1    5    5    0    0 -0.35310972904E+00  0.28927546979E+02  0.12085273093E+03  0.12426709232E+03  0.00000000000E+00 0. -1.
        -14    1    5    5    0    0  0.11217454888E+02 -0.54102757377E+02  0.15955720582E+03  0.16885331379E+03  0.00000000000E+00 0.  1.
          5    1    4    4  501    0  0.36708923302E+02 -0.43235713287E+02  0.10595805769E+03  0.12025578715E+03  0.41800000000E+01 0.  1.
         -5    1    4    4    0  501 -0.10803529340E+02  0.68755477046E+02  0.71282772985E+02  0.99713278928E+02  0.41800000000E+01 0.  1.
</event>
<event>
11    1  0.8453735E-009  0.1358345E+03  0.7561462E-02  0.1112301E+00
         22   -1    0    0    0    0  0.00000000000E+00  0.00000000000E+00  0.82710061823E+02  0.82710061823E+02  0.00000000000E+00 0. -1.
         22   -1    0    0    0    0 -0.00000000000E+00 -0.00000000000E+00 -0.14133866961E+04  0.14133866961E+04  0.00000000000E+00 0.  1.
        -24    2    1    2    0    0 -0.40368995093E+01  0.18577801271E+02 -0.12085817804E+04  0.12113182272E+04  0.79123298385E+02 0.  0.
         25    2    1    2    0    0  0.43199860985E+02 -0.49194003723E+02 -0.12814567171E+03  0.19067237539E+03  0.12509341937E+03 0.  0.
         24    2    1    2    0    0 -0.39162961476E+02  0.30616202452E+02  0.60508178127E+01  0.94106155360E+02  0.79676010670E+02 0.  0.
        -13    1    5    5    0    0 -0.29166036615E+02  0.56917338418E+02 -0.43636007987E+01  0.64103682549E+02  0.00000000000E+00 0.  1.
         14    1    5    5    0    0 -0.99969248611E+01 -0.26301135966E+02  0.10414418611E+02  0.30002472811E+02  0.00000000000E+00 0. -1.
         13    1    3    3    0    0  0.36038005981E+02  0.30411086789E+01 -0.69532387362E+03  0.69626379730E+03  0.00000000000E+00 0. -1.
        -14    1    3    3    0    0 -0.40074905490E+02  0.15536692592E+02 -0.51325790677E+03  0.51505442987E+03  0.00000000000E+00 0.  1.
          5    1    4    4  501    0 -0.57658764181E+01  0.39258342762E+02 -0.39566677471E+02  0.56191255311E+02  0.41800000000E+01 0. -1.
         -5    1    4    4    0  501  0.48965737403E+02 -0.88452346485E+02 -0.88578994235E+02  0.13448112008E+03  0.41800000000E+01 0. -1.
</event>
<event>
11    1  0.8453735E-009  0.1321452E+03  0.7561462E-02  0.1116661E+00
         22   -1    0    0    0    0  0.00000000000E+00  0.00000000000E+00  0.40381585373E+03  0.40381585373E+03  0.00000000000E+00 0. -1.
         22   -1    0    0    0    0 -0.00000000000E+00 -0.00000000000E+00 -0.67484522194E+03  0.67484522194E+03  0.00000000000E+00 0. -1.
         24    2    1    2    0    0  0.41857949382E+02  0.75368242369E+01 -0.62153352770E+03  0.62831949091E+03  0.81685769613E+02 0.  0.
         25    2    1    2    0    0 -0.45949471647E+02  0.28854521024E+01  0.47085056612E+02  0.14136317473E+03  0.12508742876E+03 0.  0.
        -24    2    1    2    0    0  0.40915222654E+01 -0.10422276339E+02  0.30341910288E+03  0.30897841003E+03  0.57263788513E+02 0.  0.
        -13    1    3    3    0    0 -0.23528488918E+01 -0.32324655405E+01  0.10031477217E+01  0.41220185262E+01  0.00000000000E+00 0.  1.
         14    1    3    3    0    0  0.44210798274E+02  0.10769289777E+02 -0.62253667542E+03  0.62419747238E+03  0.00000000000E+00 0. -1.
         13    1    5    5    0    0  0.19949924552E+01 -0.53291654080E+01  0.30341731410E+03  0.30347066826E+03  0.00000000000E+00 0. -1.
        -14    1    5    5    0    0  0.20965298102E+01 -0.50931109313E+01  0.17887783908E-02  0.55077417698E+01  0.00000000000E+00 0.  1.
          5    1    4    4  501    0 -0.10379646948E+02  0.24293956516E+02 -0.38074825425E+02  0.46530614923E+02  0.41800000000E+01 0. -1.
         -5    1    4    4    0  501 -0.35569824699E+02 -0.21408504414E+02  0.85159882037E+02  0.94832559804E+02  0.41800000000E+01 0. -1.
</event>
<event>
11    1  0.8453735E-009  0.6073836E+03  0.7561462E-02  0.9181157E-01
         22   -1    0    0    0    0  0.00000000000E+00  0.00000000000E+00  0.41081701762E+03  0.41081701762E+03  0.00000000000E+00 0. -1.
         22   -1    0    0    0    0 -0.00000000000E+00 -0.00000000000E+00 -0.11505137829E+04  0.11505137829E+04  0.00000000000E+00 0. -1.
        -24    2    1    2    0    0 -0.36027176893E+03  0.49933249141E+03 -0.56327718504E+03  0.83850969080E+03  0.81784044350E+02 0.  0.
         25    2    1    2    0    0  0.31138953972E+03 -0.46961372863E+03 -0.21439751012E+03  0.61572223626E+03  0.12508829009E+03 0.  0.
         24    2    1    2    0    0  0.48882229217E+02 -0.29718762784E+02  0.37977929849E+02  0.10709887350E+03  0.82189831206E+02 0.  0.
        -13    1    5    5    0    0  0.39445964364E+01 -0.49974340156E+02  0.12747796552E+02  0.51725243663E+02  0.00000000000E+00 0.  1.
         14    1    5    5    0    0  0.44937632781E+02  0.20255577372E+02  0.25230133297E+02  0.55373629832E+02  0.00000000000E+00 0. -1.
         11    1    3    3    0    0 -0.14685549761E+03  0.14393438666E+03 -0.20898524595E+03  0.29318676277E+03  0.00000000000E+00 0. -1.
        -12    1    3    3    0    0 -0.21341627133E+03  0.35539810475E+03 -0.35429193909E+03  0.54532292803E+03  0.00000000000E+00 0.  1.
          5    1    4    4  501    0  0.82921418230E+02 -0.53084805508E+02 -0.11850487411E+02  0.99256559627E+02  0.41800000000E+01 0. -1.
         -5    1    4    4    0  501  0.22846812149E+03 -0.41652892312E+03 -0.20254702271E+03  0.51646567663E+03  0.41800000000E+01 0. -1.
</event>
<event>
11    1  0.8453735E-009  0.1787663E+03  0.7561462E-02  0.1070645E+00
         22   -1    0    0    0    0  0.00000000000E+00  0.00000000000E+00  0.96009049516E+03  0.96009049516E+03  0.00000000000E+00 0.  1.
         22   -1    0    0    0    0 -0.00000000000E+00 -0.00000000000E+00 -0.30035517742E+03  0.30035517742E+03  0.00000000000E+00 0.  1.
        -24    2    1    2    0    0  0.29399036460E+02 -0.12345621670E+03 -0.25790409718E+03  0.29857890403E+03  0.80802832896E+02 0.  0.
         25    2    1    2    0    0 -0.61896725780E+02  0.14133281215E+03  0.59702948929E+03  0.62920389572E+03  0.12508862002E+03 0.  0.
         24    2    1    2    0    0  0.32497689320E+02 -0.17876595444E+02  0.32060992563E+03  0.33266287283E+03  0.80611352002E+02 0.  0.
        -11    1    5    5    0    0  0.34111738118E+02 -0.47540828165E+02  0.19513315019E+03  0.20371717484E+03  0.00000000000E+00 0.  1.
         12    1    5    5    0    0 -0.16140487977E+01  0.29664232722E+02  0.12547677543E+03  0.12894569799E+03  0.00000000000E+00 0. -1.
         11    1    3    3    0    0 -0.99777189394E+01 -0.92034771607E+02 -0.11864431288E+03  0.15048729860E+03  0.00000000000E+00 0. -1.
        -12    1    3    3    0    0  0.39376755399E+02 -0.31421445095E+02 -0.13925978430E+03  0.14809160543E+03  0.00000000000E+00 0.  1.
          5    1    4    4  501    0 -0.86412661981E+02  0.14623498929E+03  0.55166447720E+03  0.57723737582E+03  0.41800000000E+01 0. -1.
         -5    1    4    4    0  501  0.24515936200E+02 -0.49021771412E+01  0.45365012093E+02  0.51966519902E+02  0.41800000000E+01 0. -1.
</event>
<event>
11    1  0.8453735E-009  0.1794724E+03  0.7561462E-02  0.1070070E+00
         22   -1    0    0    0    0  0.00000000000E+00  0.00000000000E+00  0.18480818678E+04  0.18480818678E+04  0.00000000000E+00 0.  1.
         22   -1    0    0    0    0 -0.00000000000E+00 -0.00000000000E+00 -0.14381370418E+04  0.14381370418E+04  0.00000000000E+00 0.  1.
         24    2    1    2    0    0 -0.11323063110E+03  0.63532744007E+02 -0.14069376206E+04  0.14151978432E+04  0.80336056262E+02 0.  0.
         25    2    1    2    0    0  0.63764400997E+02 -0.33862161318E+02  0.17835684911E+03  0.22950460766E+03  0.12509458225E+03 0.  0.
        -24    2    1    2    0    0  0.49466230108E+02 -0.29670582689E+02  0.16385255975E+04  0.16415164587E+04  0.80516453769E+02 0.  0.
        -11    1    3    3    0    0 -0.10988933309E+03  0.76160427618E+02 -0.13573370930E+04  0.13639061772E+04  0.00000000000E+00 0.  1.
         12    1    3    3    0    0 -0.33412980098E+01 -0.12627683611E+02 -0.49600527566E+02  0.51291665995E+02  0.00000000000E+00 0. -1.
         11    1    5    5    0    0  0.15044708660E+02  0.19785001203E+02  0.17558597857E+03  0.17733647510E+03  0.00000000000E+00 0. -1.
        -12    1    5    5    0    0  0.34421521447E+02 -0.49455583892E+02  0.14629396189E+04  0.14641799836E+04  0.00000000000E+00 0.  1.
          5    1    4    4  501    0  0.66951503549E+02 -0.65872124520E+02  0.72311774211E+02  0.11860904563E+03  0.41800000000E+01 0. -1.
         -5    1    4    4    0  501 -0.31871025523E+01  0.32009963202E+02  0.10604507490E+03  0.11089556203E+03  0.41800000000E+01 0. -1.
</event>
<event>
11    1  0.8453735E-009  0.1865387E+03  0.7561462E-02  0.1064473E+00
         22   -1    0    0    0    0  0.00000000000E+00  0.00000000000E+00  0.16792704112E+03  0.16792704112E+03  0.00000000000E+00 0. -1.
         22   -1    0    0    0    0 -0.00000000000E+00 -0.00000000000E+00 -0.10306992215E+04  0.10306992215E+04  0.00000000000E+00 0.  1.
        -24    2    1    2    0    0 -0.11852008890E+02 -0.34318591858E+02 -0.80301861022E+03  0.80788136592E+03  0.80716647561E+02 0.  0.
         25    2    1    2    0    0 -0.11102776355E+03  0.94742038347E+02 -0.11307057355E+03  0.22301540764E+03  0.12509076438E+03 0.  0.
         24    2    1    2    0    0  0.12287977244E+03 -0.60423446488E+02  0.53317003373E+02  0.16772948906E+03  0.80870558863E+02 0.  0.
        -13    1    5    5    0    0  0.51605961131E+01 -0.33720548198E+02 -0.35459312617E+01  0.34296949596E+02  0.00000000000E+00 0.  1.
         14    1    5    5    0    0  0.11771917633E+03 -0.26702898290E+02  0.56862934635E+02  0.13343253947E+03  0.00000000000E+00 0. -1.
         11    1    3    3    0    0  0.34046238158E+01 -0.36258640724E+02 -0.13921463976E+03  0.14389925787E+03  0.00000000000E+00 0. -1.
        -12    1    3    3    0    0 -0.15256632706E+02  0.19400488656E+01 -0.66380397045E+03  0.66398210806E+03  0.00000000000E+00 0.  1.
          5    1    4    4  501    0 -0.57876713626E+02  0.49604300298E+02  0.14373872637E+02  0.77681279616E+02  0.41800000000E+01 0. -1.
         -5    1    4    4    0  501 -0.53151049929E+02  0.45137738049E+02 -0.12744444619E+03  0.14533412802E+03  0.41800000000E+01 0. -1.
</event>
<event>
11    1  0.8453735E-009  0.1286841E+03  0.7561462E-02  0.1120896E+00
         22   -1    0    0    0    0  0.00000000000E+00  0.00000000000E+00  0.30037858936E+03  0.30037858936E+03  0.00000000000E+00 0. -1.
         22   -1    0    0    0    0 -0.00000000000E+00 -0.00000000000E+00 -0.20949586062E+04  0.20949586062E+04  0.00000000000E+00 0.  1.
        -24    2    1    2    0    0  0.26898041476E+02  0.13628457735E+02 -0.18663087626E+04  0.18684030567E+04  0.83140516116E+02 0.  0.
         25    2    1    2    0    0 -0.30839232927E+02 -0.73463978722E+01 -0.20301017732E+03  0.24055393774E+03  0.12509211414E+03 0.  0.
         24    2    1    2    0    0  0.39411914508E+01 -0.62820598624E+01  0.27473892305E+03  0.28638020115E+03  0.80480721342E+02 0.  0.
        -13    1    5    5    0    0  0.79976346572E+00  0.25702276464E+02  0.29881720066E+02  0.39422884612E+02  0.00000000000E+00 0.  1.
         14    1    5    5    0    0  0.31414279850E+01 -0.31984336327E+02  0.24485720298E+03  0.24695731654E+03  0.00000000000E+00 0. -1.
         11    1    3    3    0    0 -0.16833194330E+02  0.35359453730E+02 -0.73859220867E+03  0.73962970337E+03  0.00000000000E+00 0. -1.
        -12    1    3    3    0    0  0.43731235806E+02 -0.21730995995E+02 -0.11277165539E+04  0.11287733533E+04  0.00000000000E+00 0.  1.
          5    1    4    4  501    0 -0.64711796809E+02 -0.47593717941E+01 -0.45480399962E+02  0.79348644896E+02  0.41800000000E+01 0.  1.
         -5    1    4    4    0  501  0.33872563882E+02 -0.25870260780E+01 -0.15752977736E+03  0.16120529285E+03  0.41800000000E+01 0.  1.
</event>
<event>
11    1  0.8453735E-009  0.1594848E+03  0.7561462E-02  0.1087563E+00
         22   -1    0    0    0    0  0.00000000000E+00  0.00000000000E+00  0.14131449217E+04  0.14131449217E+04  0.00000000000E+00 0.  1.
         22   -1    0    0    0    0 -0.00000000000E+00 -0.00000000000E+00 -0.99407446324E+02  0.99407446324E+02  0.00000000000E+00 0. -1.
         24    2    1    2    0    0 -0.18494305053E+02 -0.11021534874E+03 -0.26620780267E+02  0.14023059443E+03  0.80414496542E+02 0.  0.
         25    2    1    2    0    0  0.12177237129E+02  0.24852615816E+02  0.30780254354E+03  0.33340011288E+03  0.12508913557E+03 0.  0.
        -24    2    1    2    0    0  0.63170679238E+01  0.85362732926E+02  0.10325557121E+04  0.10389216607E+04  0.76552054184E+02 0.  0.
        -13    1    3    3    0    0  0.16695476261E+02 -0.15556142114E+02  0.18734434095E+02  0.29524760895E+02  0.00000000000E+00 0.  1.
         14    1    3    3    0    0 -0.35189781314E+02 -0.94659206627E+02 -0.45355214362E+02  0.11070583353E+03  0.00000000000E+00 0. -1.
         13    1    5    5    0    0 -0.16840210336E+02  0.34486877718E+02  0.15849842021E+03  0.16307877430E+03  0.00000000000E+00 0. -1.
        -14    1    5    5    0    0  0.23157278260E+02  0.50875855207E+02  0.87405729184E+03  0.87584288637E+03  0.00000000000E+00 0.  1.
          5    1    4    4  501    0 -0.21855776919E+02 -0.40893470508E+02  0.68115488187E+02  0.82505412222E+02  0.41800000000E+01 0. -1.
         -5    1    4    4    0  501  0.34033014047E+02  0.65746086324E+02  0.23968705536E+03  0.25089470066E+03  0.41800000000E+01 0. -1.
</event>
<event>
11    1  0.8453735E-009  0.1422663E+03  0.7561462E-02  0.1105054E+00
         22   -1    0    0    0    0  0.00000000000E+00  0.00000000000E+00  0.15633749784E+04  0.15633749784E+04  0.00000000000E+00 0.  1.
         22   -1    0    0    0    0 -0.00000000000E+00 -0.00000000000E+00 -0.14723569688E+03  0.14723569688E+03  0.00000000000E+00 0. -1.
         24    2    1    2    0    0 -0.41081609839E+02  0.29603951316E+02 -0.11714693808E+03  0.14878740121E+03  0.76486554753E+02 0.  0.
         25    2    1    2    0    0  0.89038051012E+02  0.14895449958E+02  0.49491769034E+03  0.51840270510E+03  0.12509274752E+03 0.  0.
        -24    2    1    2    0    0 -0.47956441173E+02 -0.44499401274E+02  0.10383685293E+04  0.10434205690E+04  0.78976352301E+02 0.  0.
        -11    1    3    3    0    0  0.15889384581E+02 -0.72228922418E+01 -0.51538546272E+02  0.54413826060E+02  0.00000000000E+00 0.  1.
         12    1    3    3    0    0 -0.56970994420E+02  0.36826843558E+02 -0.65608391809E+02  0.94373575154E+02  0.00000000000E+00 0. -1.
         11    1    5    5    0    0  0.59394082028E+01 -0.31953528345E+02  0.15764949484E+03  0.16096480289E+03  0.00000000000E+00 0. -1.
        -12    1    5    5    0    0 -0.53895849376E+02 -0.12545872929E+02  0.88071903445E+03  0.88245576612E+03  0.00000000000E+00 0.  1.
          5    1    4    4  501    0  0.55237914743E+01 -0.46420650364E+02  0.21061358707E+03  0.21577985196E+03  0.41800000000E+01 0.  1.
         -5    1    4    4    0  501  0.83514259538E+02  0.61316100322E+02  0.28430410328E+03  0.30262285314E+03  0.41800000000E+01 0.  1.
</event>
<event>
11    1  0.8453735E-009  0.2059698E+03  0.7561462E-02  0.1050381E+00
         22   -1    0    0    0    0  0.00000000000E+00  0.00000000000E+00  0.17921319396E+04  0.17921319396E+04  0.00000000000E+00 0.  1.
         22   -1    0    0    0    0 -0.00000000000E+00 -0.00000000000E+00 -0.18105085545E+03  0.18105085545E+03  0.00000000000E+00 0. -1.
        -24    2    1    2    0    0 -0.15448644247E+03  0.60455296124E+02 -0.10652940010E+03  0.21301176500E+03  0.80651070696E+02 0.  0.
         25    2    1    2    0    0  0.13580504208E+03 -0.48477739659E+02  0.43937921350E+03  0.47905602837E+03  0.12508990511E+03 0.  0.
         24    2    1    2    0    0  0.18681400390E+02 -0.11977556465E+02  0.12782312708E+04  0.12811150017E+04  0.82994032579E+02 0.  0.
        -13    1    5    5    0    0 -0.13065201214E+02  0.20445264063E+02  0.87537180541E+03  0.87570800271E+03  0.00000000000E+00 0.  1.
         14    1    5    5    0    0  0.31746601604E+02 -0.32422820528E+02  0.40285946535E+03  0.40540699899E+03  0.00000000000E+00 0. -1.
         11    1    3    3    0    0 -0.15734851267E+03  0.70600913045E+02 -0.10605060203E+03  0.20245931333E+03  0.00000000000E+00 0. -1.
        -12    1    3    3    0    0  0.28620702022E+01 -0.10145616921E+02 -0.47879806815E+00  0.10552451665E+02  0.00000000000E+00 0.  1.
          5    1    4    4  501    0 -0.18289513136E+02  0.67295213892E+01  0.17529041509E+02  0.26543030067E+02  0.41800000000E+01 0. -1.
         -5    1    4    4    0  501  0.15409455522E+03 -0.55207261048E+02  0.42185017199E+03  0.45251299830E+03  0.41800000000E+01 0. -1.
</event>
<event>
11    1  0.8453735E-009  0.1678990E+03  0.7561462E-02  0.1079875E+00
         22   -1    0    0    0    0  0.00000000000E+00  0.00000000000E+00  0.53786125067E+03  0.53786125067E+03  0.00000000000E+00 0.  1.
         22   -1    0    0    0    0 -0.00000000000E+00 -0.00000000000E+00 -0.38193909238E+03  0.38193909238E+03  0.00000000000E+00 0. -1.
        -24    2    1    2    0    0  0.18673231773E+02  0.63283442547E+02 -0.30314098382E+03  0.32469703159E+03  0.95813478012E+02 0.  0.
         25    2    1    2    0    0  0.36853492932E+02 -0.14970678071E+03  0.12788841761E+03  0.23616314634E+03  0.12508910503E+03 0.  0.
         24    2    1    2    0    0 -0.55526724705E+02  0.86423338160E+02  0.33117472450E+03  0.35894016513E+03  0.92785416174E+02 0.  0.
        -11    1    5    5    0    0 -0.73080861022E+02  0.29568460798E+02  0.19494144571E+03  0.21027903694E+03  0.00000000000E+00 0.  1.
         12    1    5    5    0    0  0.17554136318E+02  0.56854877362E+02  0.13623327879E+03  0.14866112818E+03  0.00000000000E+00 0. -1.
         13    1    3    3    0    0 -0.23337767167E+02 -0.10613386093E+02 -0.12114883021E+03  0.12383187959E+03  0.00000000000E+00 0. -1.
        -14    1    3    3    0    0  0.42010998940E+02  0.73896828640E+02 -0.18199215360E+03  0.20086515200E+03  0.00000000000E+00 0.  1.
          5    1    4    4  501    0 -0.65350496984E+01 -0.23991605368E+02 -0.23600718474E+02  0.34536506992E+02  0.41800000000E+01 0. -1.
         -5    1    4    4    0  501  0.43388542630E+02 -0.12571517534E+03  0.15148913608E+03  0.20162663934E+03  0.41800000000E+01 0. -1.
</event>
<event>
11    1  0.8453735E-009  0.1477820E+03  0.7561462E-02  0.1099167E+00
         22   -1    0    0    0    0  0.00000000000E+00  0.00000000000E+00  0.20952728443E+03  0.20952728443E+03  0.00000000000E+00 0.  1.
         22   -1    0    0    0    0 -0.00000000000E+00 -0.00000000000E+00 -0.16778540153E+04  0.16778540153E+04  0.00000000000E+00 0. -1.
         24    2    1    2    0    0 -0.34543272245E+02  0.72937411622E+02 -0.15881738698E+04  0.15926220043E+04  0.87381372346E+02 0.  0.
         25    2    1    2    0    0  0.31650372538E+02 -0.12077216483E+02 -0.10673840627E+02  0.13003572041E+03  0.12509097677E+03 0.  0.
        -24    2    1    2    0    0  0.28928997073E+01 -0.60860195139E+02  0.13052097962E+03  0.16472357494E+03  0.79911186955E+02 0.  0.
        -13    1    3    3    0    0 -0.30295205775E+02  0.31127234500E+02 -0.24702005438E+03  0.25080991106E+03  0.00000000000E+00 0.  1.
         14    1    3    3    0    0 -0.42480664705E+01  0.41810177123E+02 -0.13411538154E+04  0.13418120933E+04  0.00000000000E+00 0. -1.
         13    1    5    5    0    0  0.38028919300E+01  0.19582706720E+02  0.23180338604E+02  0.30582225022E+02  0.00000000000E+00 0. -1.
        -14    1    5    5    0    0 -0.90999222263E+00 -0.80442901859E+02  0.10734064101E+03  0.13414134992E+03  0.00000000000E+00 0.  1.
          5    1    4    4  501    0 -0.31465369672E+02  0.37537262567E+02 -0.23448417613E+01  0.49214695494E+02  0.41800000000E+01 0. -1.
         -5    1    4    4    0  501  0.63115742210E+02 -0.49614479050E+02 -0.83289988659E+01  0.80821024915E+02  0.41800000000E+01 0. -1.
</event>
<event>
11    1  0.8453735E-009  0.1347690E+03  0.7561462E-02  0.1113544E+00
         22   -1    0    0    0    0  0.00000000000E+00  0.00000000000E+00  0.13457827180E+04  0.13457827180E+04  0.00000000000E+00 0.  1.
         22   -1    0    0    0    0 -0.00000000000E+00 -0.00000000000E+00 -0.34326237757E+02  0.34326237757E+02  0.00000000000E+00 0. -1.
         24    2    1    2    0    0  0.46977897184E+02 -0.24148556982E+01  0.93724328636E+02  0.13585254620E+03  0.86364982361E+02 0.  0.
         25    2    1    2    0    0 -0.62132034117E+02 -0.30248732005E+02  0.44997981375E+03  0.47212629586E+03  0.12508409574E+03 0.  0.
        -24    2    1    2    0    0  0.15154136933E+02  0.32663587703E+02  0.76775233787E+03  0.77213011371E+03  0.73788226506E+02 0.  0.
        -13    1    3    3    0    0  0.12671202912E+02  0.33914029130E+02  0.73528186821E+02  0.81958007615E+02  0.00000000000E+00 0.  1.
         14    1    3    3    0    0  0.34306694272E+02 -0.36328884829E+02  0.20196141815E+02  0.53894538582E+02  0.00000000000E+00 0. -1.
         11    1    5    5    0    0  0.21830630050E+02 -0.19211980844E+02  0.32522642961E+03  0.32652397635E+03  0.00000000000E+00 0. -1.
        -12    1    5    5    0    0 -0.66764931168E+01  0.51875568548E+02  0.44252590826E+03  0.44560613736E+03  0.00000000000E+00 0.  1.
          5    1    4    4  501    0  0.22660255386E+02 -0.12522238309E+02  0.18691417298E+02  0.32204582081E+02  0.41800000000E+01 0. -1.
         -5    1    4    4    0  501 -0.84792289503E+02 -0.17726493696E+02  0.43128839645E+03  0.43992171378E+03  0.41800000000E+01 0. -1.
</event>
<event>
11    1  0.8453735E-009  0.1915478E+03  0.7561462E-02  0.1060667E+00
         22   -1    0    0    0    0  0.00000000000E+00  0.00000000000E+00  0.67784987684E+03  0.67784987684E+03  0.00000000000E+00 0. -1.
         22   -1    0    0    0    0 -0.00000000000E+00 -0.00000000000E+00 -0.54938820325E+03  0.54938820325E+03  0.00000000000E+00 0. -1.
         24    2    1    2    0    0 -0.36900563821E+02 -0.47770177056E+01 -0.40087658823E+03  0.40839633037E+03  0.68564219250E+02 0.  0.
         25    2    1    2    0    0  0.16382443942E+03  0.68988675657E+02 -0.44398269494E+02  0.22184694998E+03  0.12508788336E+03 0.  0.
        -24    2    1    2    0    0 -0.12692387560E+03 -0.64211657951E+02  0.57373653132E+03  0.59699479974E+03  0.83644344283E+02 0.  0.
        -11    1    3    3    0    0 -0.11888988751E+02  0.30933254969E+01 -0.80317011948E+01  0.14677361487E+02  0.00000000000E+00 0.  1.
         12    1    3    3    0    0 -0.25011575070E+02 -0.78703432025E+01 -0.39284488703E+03  0.39371896888E+03  0.00000000000E+00 0. -1.
         11    1    5    5    0    0 -0.83153731950E+02 -0.82527954432E+02  0.42679357878E+03  0.44258125275E+03  0.00000000000E+00 0. -1.
        -12    1    5    5    0    0 -0.43770143648E+02  0.18316296482E+02  0.14694295254E+03  0.15441354698E+03  0.00000000000E+00 0.  1.
          5    1    4    4  501    0  0.18927887512E+02  0.61889740330E+02  0.12343538538E+02  0.66018483983E+02  0.41800000000E+01 0.  1.
         -5    1    4    4    0  501  0.14489655191E+03  0.70989353267E+01 -0.56741808032E+02  0.15582846600E+03  0.41800000000E+01 0.  1.
</event>
<event>
11    1  0.8453735E-009  0.2575810E+03  0.7561462E-02  0.1019936E+00
         22   -1    0    0    0    0  0.00000000000E+00  0.00000000000E+00  0.98638303042E+03  0.98638303042E+03  0.00000000000E+00 0. -1.
         22   -1    0    0    0    0 -0.00000000000E+00 -0.00000000000E+00 -0.54324855002E+03  0.54324855002E+03  0.00000000000E+00 0.  1.
        -24    2    1    2    0    0  0.10836891435E+03 -0.19637139624E+03 -0.46783102984E+03  0.52886774926E+03  0.10261421377E+03 0.  0.
         25    2    1    2    0    0 -0.93701775084E+02  0.21986196291E+03  0.39897741255E+03  0.48161139955E+03  0.12508900457E+03 0.  0.
         24    2    1    2    0    0 -0.14667139267E+02 -0.23490566674E+02  0.51198809769E+03  0.51915243162E+03  0.81366475804E+02 0.  0.
        -13    1    5    5    0    0 -0.21610330322E+02  0.22951867344E+02  0.10991382348E+03  0.11434528054E+03  0.00000000000E+00 0.  1.
         14    1    5    5    0    0  0.69431910550E+01 -0.46442434018E+02  0.40207427421E+03  0.40480715108E+03  0.00000000000E+00 0. -1.
         13    1    3    3    0    0  0.78685129778E+02 -0.42512710116E+02 -0.15380192261E+03  0.17791489979E+03  0.00000000000E+00 0. -1.
        -14    1    3    3    0    0  0.29683784573E+02 -0.15385868612E+03 -0.31402910723E+03  0.35095284947E+03  0.00000000000E+00 0.  1.
          5    1    4    4  501    0  0.80418035791E+01  0.13617012117E+03  0.17779432392E+03  0.22413225230E+03  0.41800000000E+01 0. -1.
         -5    1    4    4    0  501 -0.10174357866E+03  0.83691841744E+02  0.22118308862E+03  0.25747914725E+03  0.41800000000E+01 0. -1.
</event>
<event>
11    1  0.8453735E-009  0.1639773E+03  0.7561462E-02  0.1083395E+00
         22   -1    0    0    0    0  0.00000000000E+00  0.00000000000E+00  0.15074363999E+04  0.15074363999E+04  0.00000000000E+00 0. -1.
         22   -1    0    0    0    0 -0.00000000000E+00 -0.00000000000E+00 -0.58139391630E+03  0.58139391630E+03  0.00000000000E+00 0.  1.
         24    2    1    2    0    0  0.76996586451E+02  0.77443135934E+02 -0.47532745586E+03  0.49466863013E+03  0.82673754704E+02 0.  0.
         25    2    1    2    0    0 -0.44174864937E+02 -0.76341697055E+02 -0.33233099451E+02  0.15663559541E+03  0.12510314723E+03 0.  0.
        -24    2    1    2    0    0 -0.32821721513E+02 -0.11014388785E+01  0.14346030389E+04  0.14375260907E+04  0.85538900497E+02 0.  0.
        -11    1    3    3    0    0  0.43868804716E+02  0.27736340500E+02 -0.36965874713E+03  0.37328456430E+03  0.00000000000E+00 0.  1.
         12    1    3    3    0    0  0.33127781735E+02  0.49706795433E+02 -0.10566870873E+03  0.12138406584E+03  0.00000000000E+00 0. -1.
         13    1    5    5    0    0  0.33532189727E+01  0.34846453336E+02  0.35573930954E+03  0.35745765587E+03  0.00000000000E+00 0. -1.
        -14    1    5    5    0    0 -0.36174940486E+02 -0.35947892215E+02  0.10788637294E+04  0.10800684348E+04  0.00000000000E+00 0.  1.
          5    1    4    4  501    0 -0.25757768746E+02 -0.55743173059E+02 -0.80736649607E+02  0.10152163801E+03  0.41800000000E+01 0.  1.
         -5    1    4    4    0  501 -0.18417096192E+02 -0.20598523996E+02  0.47503550156E+02  0.55113957401E+02  0.41800000000E+01 0.  1.
</event>
<event>
11    1  0.8453735E-009  0.1839561E+03  0.7561462E-02  0.1066487E+00
         22   -1    0    0    0    0  0.00000000000E+00  0.00000000000E+00  0.46824366084E+04  0.46824366084E+04  0.00000000000E+00 0.  1.
         22   -1    0    0    0    0 -0.00000000000E+00 -0.00000000000E+00 -0.88087271668E+02  0.88087271668E+02  0.00000000000E+00 0.  1.
         24    2    1    2    0    0  0.69029565512E+02 -0.44106756650E+02 -0.36490375379E+02  0.11913856247E+03  0.78434448267E+02 0.  0.
         25    2    1    2    0    0  0.66388880643E+02  0.90898751341E+02  0.82615960538E+03  0.84312368332E+03  0.12509110816E+03 0.  0.
        -24    2    1    2    0    0 -0.13541844615E+03 -0.46791994691E+02  0.38046801068E+04  0.38082616343E+04  0.82087235661E+02 0.  0.
        -13    1    3    3    0    0  0.80582041190E+02 -0.26153502625E+02 -0.45268029001E+02  0.96055533476E+02  0.00000000000E+00 0.  1.
         14    1    3    3    0    0 -0.11552475678E+02 -0.17953254025E+02  0.87776536217E+01  0.23083028993E+02  0.00000000000E+00 0. -1.
         11    1    5    5    0    0 -0.95770817752E+02 -0.62530901781E+02  0.21578679876E+04  0.21608971320E+04  0.00000000000E+00 0. -1.
        -12    1    5    5    0    0 -0.39647628403E+02  0.15738907089E+02  0.16468121192E+04  0.16473645023E+04  0.00000000000E+00 0.  1.
          5    1    4    4  501    0  0.75285789757E+02  0.33506851246E+02  0.69161829529E+03  0.69652279072E+03  0.41800000000E+01 0. -1.
         -5    1    4    4    0  501 -0.88969091138E+01  0.57391900095E+02  0.13454131010E+03  0.14660089260E+03  0.41800000000E+01 0. -1.
</event>
<event>
11    1  0.8453735E-009  0.1389083E+03  0.7561462E-02  0.1108784E+00
         22   -1    0    0    0    0  0.00000000000E+00  0.00000000000E+00  0.29050820769E+03  0.29050820769E+03  0.00000000000E+00 0.  1.
         22   -1    0    0    0    0 -0.00000000000E+00 -0.00000000000E+00 -0.22895117056E+03  0.22895117056E+03  0.00000000000E+00 0.  1.
         24    2    1    2    0    0 -0.57103305822E+02  0.25903885423E+02 -0.95956394506E+02  0.14034140164E+03  0.80970862370E+02 0.  0.
         25    2    1    2    0    0  0.65683155585E+02  0.29426635162E+02 -0.47016275369E+02  0.15178361519E+03  0.12509009515E+03 0.  0.
        -24    2    1    2    0    0 -0.85798497638E+01 -0.55330520586E+02  0.20452970701E+03  0.22733436142E+03  0.81935526511E+02 0.  0.
        -13    1    3    3    0    0 -0.35382470097E+02  0.15863163838E+02 -0.10713028439E+03  0.11393180851E+03  0.00000000000E+00 0.  1.
         14    1    3    3    0    0 -0.21720835725E+02  0.10040721585E+02  0.11173889881E+02  0.26409593136E+02  0.00000000000E+00 0. -1.
         11    1    5    5    0    0  0.29240822571E+02 -0.45902745489E+02  0.79308168873E+02  0.96186659149E+02  0.00000000000E+00 0. -1.
        -12    1    5    5    0    0 -0.37820672335E+02 -0.94277750964E+01  0.12522153814E+03  0.13114770228E+03  0.00000000000E+00 0.  1.
          5    1    4    4  501    0 -0.11375716561E+02  0.15617632821E+02 -0.67844712884E+02  0.70666079900E+02  0.41800000000E+01 0.  1.
         -5    1    4    4    0  501  0.77058872146E+02  0.13809002341E+02  0.20828437514E+02  0.81117535289E+02  0.41800000000E+01 0.  1.
</event>
<event>
11    1  0.8453735E-009  0.2219845E+03  0.7561462E-02  0.1039981E+00
         22   -1    0    0    0    0  0.00000000000E+00  0.00000000000E+00  0.60640276103E+03  0.60640276103E+03  0.00000000000E+00 0.  1.
         22   -1    0    0    0    0 -0.00000000000E+00 -0.00000000000E+00 -0.75519500586E+03  0.75519500586E+03  0.00000000000E+00 0. -1.
         24    2    1    2    0    0 -0.16731031635E+03  0.69997043514E+02 -0.61479141045E+03  0.64771169031E+03  0.93110833641E+02 0.  0.
         25    2    1    2    0    0  0.18529199384E+03 -0.68302641906E+02 -0.68836651158E+01  0.23386578350E+03  0.12508975167E+03 0.  0.
        -24    2    1    2    0    0 -0.17981677495E+02 -0.16944016081E+01  0.47288283073E+03  0.48002029309E+03  0.80467996488E+02 0.  0.
        -11    1    3    3    0    0 -0.45520635706E+02 -0.16784269218E+02 -0.92747048715E+02  0.10467022028E+03  0.00000000000E+00 0.  1.
         12    1    3    3    0    0 -0.12178968064E+03  0.86781312732E+02 -0.52204436173E+03  0.54304147002E+03  0.00000000000E+00 0. -1.
         11    1    5    5    0    0 -0.20283422055E+02  0.90164849591E+01  0.31685771638E+02  0.38687237373E+02  0.00000000000E+00 0. -1.
        -12    1    5    5    0    0  0.23017445599E+01 -0.10710886567E+02  0.44119705909E+03  0.44133305572E+03  0.00000000000E+00 0.  1.
          5    1    4    4  501    0  0.11423286660E+02 -0.64299135796E+01  0.40926984390E+02  0.43177838274E+02  0.41800000000E+01 0.  1.
         -5    1    4    4    0  501  0.17386870718E+03 -0.61872728327E+02 -0.47810649505E+02  0.19068794523E+03  0.41800000000E+01 0.  1.
</event>
<event>
11    1  0.8453735E-009  0.3400634E+03  0.7561462E-02  0.9845301E-01
         22   -1    0    0    0    0  0.00000000000E+00  0.00000000000E+00  0.33436904565E+03  0.33436904565E+03  0.00000000000E+00 0. -1.
         22   -1    0    0    0    0 -0.00000000000E+00 -0.00000000000E+00 -0.99762754018E+03  0.99762754018E+03  0.00000000000E+00 0. -1.
         24    2    1    2    0    0  0.14342646296E+03 -0.23319511407E+03 -0.33317275492E+03  0.43852143472E+03  0.79660859834E+02 0.  0.
         25    2    1    2    0    0  0.18900845156E+03  0.28115277093E+03 -0.40202176311E+03  0.54040470884E+03  0.12507867906E+03 0.  0.
        -24    2    1    2    0    0 -0.33243491452E+03 -0.47957656866E+02  0.71936023498E+02  0.35307044226E+03  0.81676413226E+02 0.  0.
        -11    1    3    3    0    0  0.12104878697E+02 -0.22861804691E+02 -0.80284664598E+02  0.84349378015E+02  0.00000000000E+00 0.  1.
         12    1    3    3    0    0  0.13132158426E+03 -0.21033330938E+03 -0.25288809032E+03  0.35417205670E+03  0.00000000000E+00 0. -1.
         13    1    5    5    0    0 -0.29684492152E+03 -0.57735236710E+02  0.41521208634E+02  0.30524461626E+03  0.00000000000E+00 0. -1.
        -14    1    5    5    0    0 -0.35589993002E+02  0.97775798439E+01  0.30414814864E+02  0.47825826002E+02  0.00000000000E+00 0.  1.
          5    1    4    4  501    0  0.11201523190E+03  0.19344176040E+03 -0.34331460225E+03  0.40969441705E+03  0.41800000000E+01 0. -1.
         -5    1    4    4    0  501  0.76993219666E+02  0.87711010538E+02 -0.58707160862E+02  0.13071029179E+03  0.41800000000E+01 0. -1.
</event>
<event>
11    1  0.8453735E-009  0.3403040E+03  0.7561462E-02  0.9844431E-01
         22   -1    0    0    0    0  0.00000000000E+00  0.00000000000E+00  0.53654912503E+03  0.53654912503E+03  0.00000000000E+00 0.  1.
         22   -1    0    0    0    0 -0.00000000000E+00 -0.00000000000E+00 -0.20678092132E+04  0.20678092132E+04  0.00000000000E+00 0. -1.
         24    2    1    2    0    0 -0.19435280038E+03  0.24730766570E+03 -0.19072362694E+04  0.19346413325E+04  0.79704490744E+02 0.  0.
         25    2    1    2    0    0  0.22141046747E+03 -0.27349258273E+03  0.10996161571E+03  0.38930715752E+03  0.12509083919E+03 0.  0.
        -24    2    1    2    0    0 -0.27057667091E+02  0.26184917037E+02  0.26601456547E+03  0.28040984819E+03  0.80300477528E+02 0.  0.
        -11    1    3    3    0    0 -0.25127009832E+02  0.80051079451E+02 -0.61309644332E+03  0.61881078753E+03  0.00000000000E+00 0.  1.
         12    1    3    3    0    0 -0.16922579055E+03  0.16725658625E+03 -0.12941398261E+04  0.13158305450E+04  0.00000000000E+00 0. -1.
         11    1    5    5    0    0  0.12032046716E+02 -0.22592956402E+02  0.63402356593E+02  0.68374488288E+02  0.00000000000E+00 0. -1.
        -12    1    5    5    0    0 -0.39089713807E+02  0.48777873438E+02  0.20261220888E+03  0.21203535990E+03  0.00000000000E+00 0.  1.
          5    1    4    4  501    0  0.91882623665E+02 -0.19905733667E+03  0.34812531131E+02  0.22202617984E+03  0.41800000000E+01 0.  1.
         -5    1    4    4    0  501  0.12952784381E+03 -0.74435246066E+02  0.75149084580E+02  0.16728097767E+03  0.41800000000E+01 0.  1.
</event>
<event>
11    1  0.8453735E-009  0.1677151E+03  0.7561462E-02  0.1080037E+00
         22   -1    0    0    0    0  0.00000000000E+00  0.00000000000E+00  0.56867963052E+02  0.56867963052E+02  0.00000000000E+00 0. -1.
         22   -1    0    0    0    0 -0.00000000000E+00 -0.00000000000E+00 -0.98995077141E+03  0.98995077141E+03  0.00000000000E+00 0.  1.
        -24    2    1    2    0    0 -0.10729886547E+03  0.10742546978E+02 -0.57746217353E+03  0.59280011312E+03  0.79504486754E+02 0.  0.
         25    2    1    2    0    0  0.13159268680E+03  0.35138238873E+02 -0.21115293713E+03  0.28068621758E+03  0.12509140192E+03 0.  0.
         24    2    1    2    0    0 -0.24293821326E+02 -0.45880785851E+02 -0.14446769770E+03  0.17333240376E+03  0.80485838808E+02 0.  0.
        -13    1    5    5    0    0 -0.13452612359E+02  0.21443042124E+02 -0.23883147933E+02  0.34802034280E+02  0.00000000000E+00 0.  1.
         14    1    5    5    0    0 -0.10841208967E+02 -0.67323827975E+02 -0.12058454977E+03  0.13853036948E+03  0.00000000000E+00 0. -1.
         13    1    3    3    0    0 -0.14788088525E+02  0.14099456415E+01 -0.29610335859E+03  0.29647575698E+03  0.00000000000E+00 0. -1.
        -14    1    3    3    0    0 -0.92510776947E+02  0.93326013366E+01 -0.28135881494E+03  0.29632435614E+03  0.00000000000E+00 0.  1.
          5    1    4    4  501    0  0.15009425148E+03  0.52644775692E+02 -0.18234352488E+03  0.24200493838E+03  0.41800000000E+01 0. -1.
         -5    1    4    4    0  501 -0.18501564676E+02 -0.17506536819E+02 -0.28809412249E+02  0.38681279206E+02  0.41800000000E+01 0. -1.
</event>
<event>
11    1  0.8453735E-009  0.1621384E+03  0.7561462E-02  0.1085083E+00
         22   -1    0    0    0    0  0.00000000000E+00  0.00000000000E+00  0.14668956843E+04  0.14668956843E+04  0.00000000000E+00 0.  1.
         22   -1    0    0    0    0 -0.00000000000E+00 -0.00000000000E+00 -0.37055383617E+03  0.37055383617E+03  0.00000000000E+00 0. -1.
         24    2    1    2    0    0 -0.11393486434E+02  0.19081026585E+02 -0.32203327097E+03  0.33271113322E+03  0.80606286635E+02 0.  0.
         25    2    1    2    0    0  0.33841182769E+02  0.82865523621E+02  0.10856201586E+03  0.18827328055E+03  0.12509674745E+03 0.  0.
        -24    2    1    2    0    0 -0.22447696335E+02 -0.10194655021E+03  0.13098131032E+04  0.13164651067E+04  0.81074124251E+02 0.  0.
        -13    1    3    3    0    0 -0.44683606807E+02  0.12674066988E+02 -0.13870889914E+03  0.14627855411E+03  0.00000000000E+00 0.  1.
         14    1    3    3    0    0  0.33290120373E+02  0.64069595978E+01 -0.18332437183E+03  0.18643257911E+03  0.00000000000E+00 0. -1.
         11    1    5    5    0    0 -0.11536075798E+02 -0.46220727087E+02  0.21653909834E+03  0.22171742775E+03  0.00000000000E+00 0. -1.
        -12    1    5    5    0    0 -0.10911620537E+02 -0.55725823119E+02  0.10932740049E+04  0.10947476790E+04  0.00000000000E+00 0.  1.
          5    1    4    4  501    0  0.81192707173E+02  0.44341842029E+02  0.67171647128E+02  0.11440261024E+03  0.41800000000E+01 0.  1.
         -5    1    4    4    0  501 -0.47351524404E+02  0.38523681592E+02  0.41390368735E+02  0.73870670302E+02  0.41800000000E+01 0.  1.
</event>
<event>
11    1  0.8453735E-009  0.1353596E+03  0.7561462E-02  0.1112854E+00
         22   -1    0    0    0    0  0.00000000000E+00  0.00000000000E+00  0.20511194190E+04  0.20511194190E+04  0.00000000000E+00 0.  1.
         22   -1    0    0    0    0 -0.00000000000E+00 -0.00000000000E+00 -0.29129452012E+03  0.29129452012E+03  0.00000000000E+00 0. -1.
        -24    2    1    2    0    0  0.12759697709E+02 -0.29793010106E+02 -0.11541375017E+03  0.14598831390E+03  0.83317589565E+02 0.  0.
         25    2    1    2    0    0  0.28039077924E+02  0.61486763005E+02 -0.12773258525E+03  0.19112670371E+03  0.12508793554E+03 0.  0.
         24    2    1    2    0    0 -0.40798775633E+02 -0.31693752900E+02  0.20029712343E+04  0.20052989215E+04  0.81614735640E+02 0.  0.
        -13    1    5    5    0    0 -0.38470549063E+02  0.19766526930E+02  0.72405126165E+03  0.72534193883E+03  0.00000000000E+00 0.  1.
         14    1    5    5    0    0 -0.23282265703E+01 -0.51460279829E+02  0.12789199726E+04  0.12799569827E+04  0.00000000000E+00 0. -1.
         13    1    3    3    0    0  0.16458302859E+02 -0.46682350707E+02 -0.11850257566E+03  0.12842498993E+03  0.00000000000E+00 0. -1.
        -14    1    3    3    0    0 -0.36986051501E+01  0.16889340602E+02  0.30888254905E+01  0.17563323971E+02  0.00000000000E+00 0.  1.
          5    1    4    4  501    0  0.30418763690E+02  0.43027014379E+02  0.85232710384E+01  0.53541980725E+02  0.41800000000E+01 0.  1.
         -5    1    4    4    0  501 -0.23796857656E+01  0.18459748626E+02 -0.13625585629E+03  0.13758472298E+03  0.41800000000E+01 0.  1.
</event>
<event>
11    1  0.8453735E-009  0.1372927E+03  0.7561462E-02  0.1110620E+00
         22   -1    0    0    0    0  0.00000000000E+00  0.00000000000E+00  0.52441931463E+02  0.52441931463E+02  0.00000000000E+00 0. -1.
         22   -1    0    0    0    0 -0.00000000000E+00 -0.00000000000E+00 -0.97804486166E+03  0.97804486166E+03  0.00000000000E+00 0. -1.
        -24    2    1    2    0    0 -0.24198193663E+02  0.21236350625E+01 -0.66467539923E+03  0.66988837488E+03  0.79793396016E+02 0.  0.
         25    2    1    2    0    0 -0.33284942027E+02 -0.26429668643E+02 -0.20589382435E+03  0.24463280958E+03  0.12508608983E+03 0.  0.
         24    2    1    2    0    0  0.57483135690E+02  0.24306033581E+02 -0.55033706615E+02  0.11596560866E+03  0.80772639995E+02 0.  0.
        -11    1    5    5    0    0  0.58464162288E+02 -0.16217829829E+02 -0.40293739820E+02  0.72833108852E+02  0.00000000000E+00 0.  1.
         12    1    5    5    0    0 -0.98102659848E+00  0.40523863410E+02 -0.14739966795E+02  0.43132499811E+02  0.00000000000E+00 0. -1.
         11    1    3    3    0    0 -0.28447426164E+02  0.48775801804E+01 -0.77641843707E+02  0.82832980980E+02  0.00000000000E+00 0. -1.
        -12    1    3    3    0    0  0.42492325012E+01 -0.27539451178E+01 -0.58703355552E+03  0.58705539390E+03  0.00000000000E+00 0.  1.
          5    1    4    4  501    0  0.36280270484E+02 -0.53210604985E+01 -0.14526352118E+03  0.14987839970E+03  0.41800000000E+01 0.  1.
         -5    1    4    4    0  501 -0.69565212511E+02 -0.21108608145E+02 -0.60630303169E+02  0.94754409880E+02  0.41800000000E+01 0.  1.
</event>
<event>
11    1  0.8453735E-009  0.1426975E+03  0.7561462E-02  0.1104583E+00
         22   -1    0    0    0    0  0.00000000000E+00  0.00000000000E+00  0.32521459305E+04  0.32521459305E+04  0.00000000000E+00 0. -1.
         22   -1    0    0    0    0 -0.00000000000E+00 -0.00000000000E+00 -0.15967011809E+03  0.15967011809E+03  0.00000000000E+00 0.  1.
        -24    2    1    2    0    0  0.41447423042E+02  0.51659472352E+02 -0.12035199453E+03  0.15614472718E+03  0.74229261617E+02 0.  0.
         25    2    1    2    0    0 -0.54282604965E+02 -0.11619958123E+03  0.37327486168E+03  0.41404148214E+03  0.12508909901E+03 0.  0.
         24    2    1    2    0    0  0.12835181923E+02  0.64540108877E+02  0.28395529452E+04  0.28416298392E+04  0.86423647793E+02 0.  0.
        -11    1    5    5    0    0 -0.28350973058E+02  0.58936228786E+02  0.19678147928E+04  0.19689012966E+04  0.00000000000E+00 0.  1.
         12    1    5    5    0    0  0.41186154981E+02  0.56038800910E+01  0.87173815239E+03  0.87272854265E+03  0.00000000000E+00 0. -1.
         13    1    3    3    0    0  0.33592499163E+02  0.57570449806E+02 -0.45625465975E+02  0.80774351352E+02  0.00000000000E+00 0. -1.
        -14    1    3    3    0    0  0.78549238790E+01 -0.59109774546E+01 -0.74726528551E+02  0.75370375831E+02  0.00000000000E+00 0.  1.
          5    1    4    4  501    0 -0.26840708130E+02 -0.12206069566E+03  0.36288930224E+03  0.38382985178E+03  0.41800000000E+01 0.  1.
         -5    1    4    4    0  501 -0.27441896834E+02  0.58611144309E+01  0.10385559445E+02  0.30211630364E+02  0.41800000000E+01 0.  1.
</event>
<event>
11    1  0.8453735E-009  0.1271752E+04  0.7561462E-02  0.8456332E-01
         22   -1    0    0    0    0  0.00000000000E+00  0.00000000000E+00  0.13731153133E+04  0.13731153133E+04  0.00000000000E+00 0.  1.
         22   -1    0    0    0    0 -0.00000000000E+00 -0.00000000000E+00 -0.19051185271E+04  0.19051185271E+04  0.00000000000E+00 0.  1.
        -24    2    1    2    0    0  0.14316593402E+03 -0.21573400780E+03 -0.56155782928E+03  0.62369755292E+03  0.81325242741E+02 0.  0.
         25    2    1    2    0    0 -0.99444578304E+03  0.10242768297E+04 -0.22430389482E+03  0.14505257285E+04  0.12508881850E+03 0.  0.
         24    2    1    2    0    0  0.85127984902E+03 -0.80854282193E+03  0.25385851023E+03  0.12040105590E+04  0.82331079956E+02 0.  0.
        -13    1    5    5    0    0  0.17602075223E+03 -0.19990679814E+03  0.32126352713E+02  0.26828741248E+03  0.00000000000E+00 0.  1.
         14    1    5    5    0    0  0.67525909679E+03 -0.60863602380E+03  0.22173215751E+03  0.93572314652E+03  0.00000000000E+00 0. -1.
         11    1    3    3    0    0  0.11965731130E+03 -0.11173022803E+03 -0.36638621472E+03  0.40129836075E+03  0.00000000000E+00 0. -1.
        -12    1    3    3    0    0  0.23508622726E+02 -0.10400377977E+03 -0.19517161456E+03  0.22239919217E+03  0.00000000000E+00 0.  1.
          5    1    4    4  501    0 -0.68102689128E+02  0.50947415786E+02  0.12700869278E+02  0.86095295587E+02  0.41800000000E+01 0. -1.
         -5    1    4    4    0  501 -0.92634309391E+03  0.97332941394E+03 -0.23700476409E+03  0.13644304329E+04  0.41800000000E+01 0. -1.
</event>
<event>
11    1  0.8453735E-009  0.1270635E+03  0.7561462E-02  0.1122931E+00
         22   -1    0    0    0    0  0.00000000000E+00  0.00000000000E+00  0.29113325197E+03  0.29113325197E+03  0.00000000000E+00 0.  1.
         22   -1    0    0    0    0 -0.00000000000E+00 -0.00000000000E+00 -0.52115865717E+03  0.52115865717E+03  0.00000000000E+00 0.  1.
         24    2    1    2    0    0  0.58764947856E+01  0.13483236540E+02 -0.26974252877E+03  0.28229505313E+03  0.81933719160E+02 0.  0.
         25    2    1    2    0    0 -0.16396662334E+01  0.87988313184E+01 -0.22214758281E+03  0.25510290808E+03  0.12509131556E+03 0.  0.
        -24    2    1    2    0    0 -0.42368285522E+01 -0.22282067859E+02  0.26186470638E+03  0.27489394793E+03  0.80492961804E+02 0.  0.
        -13    1    3    3    0    0  0.24002522230E+02  0.20336024800E+02 -0.25741034429E+03  0.25932558748E+03  0.00000000000E+00 0.  1.
         14    1    3    3    0    0 -0.18126027444E+02 -0.68527882599E+01 -0.12332184480E+02  0.22969465642E+02  0.00000000000E+00 0. -1.
         13    1    5    5    0    0  0.15517217893E+01 -0.45602344804E+02  0.85624884585E+02  0.97023721596E+02  0.00000000000E+00 0. -1.
        -14    1    5    5    0    0 -0.57885503415E+01  0.23320276945E+02  0.17623982179E+03  0.17787022634E+03  0.00000000000E+00 0.  1.
          5    1    4    4  501    0 -0.40825092643E+02  0.31341808260E+02 -0.19605010697E+03  0.20273656300E+03  0.41800000000E+01 0. -1.
         -5    1    4    4    0  501  0.39185426410E+02 -0.22542976941E+02 -0.26097475838E+02  0.52366345083E+02  0.41800000000E+01 0. -1.
</event>
<event>
11    1  0.1049417E-008  0.1789955E+03  0.7561462E-02  0.1070458E+00
         22   -1    0    0    0    0  0.00000000000E+00  0.00000000000E+00  0.34918731336E+03  0.34918731336E+03  0.00000000000E+00 0. -1.
         22   -1    0    0    0    0 -0.00000000000E+00 -0.00000000000E+00 -0.79338621568E+03  0.79338621568E+03  0.00000000000E+00 0.  1.
        -24    2    1    2    0    0  0.29246911346E+02  0.29977807838E+02 -0.53790923920E+03  0.54592428912E+03  0.83264212279E+02 0.  0.
         25    2    1    2    0    0  0.31743503724E+02  0.85941901095E+02 -0.20714219595E+03  0.25874516002E+03  0.12508999999E+03 0.  0.
         24    2    1    2    0    0 -0.60990415070E+02 -0.11591970893E+03  0.30085253283E+03  0.33790407990E+03  0.80682780393E+02 0.  0.
        -13    1    5    5    0    0 -0.64951500106E+02 -0.39599522215E+02  0.12778071610E+03  0.14871022471E+03  0.00000000000E+00 0.  1.
         14    1    5    5    0    0  0.39610850363E+01 -0.76320186718E+02  0.17307181673E+03  0.18919385519E+03  0.00000000000E+00 0. -1.
         13    1    3    3    0    0 -0.17182707524E+02  0.15144128690E+02 -0.43893913038E+02  0.49510258265E+02  0.00000000000E+00 0. -1.
        -14    1    3    3    0    0  0.46429618870E+02  0.14833679149E+02 -0.49401532616E+03  0.49641403085E+03  0.00000000000E+00 0.  1.
          5    1    4    4  501    0  0.40578985953E+02  0.23075478423E+02 -0.18582932424E+03  0.19164848539E+03  0.41800000000E+01 0.  1.
         -5    1    4    4    0  501 -0.88354822290E+01  0.62866422672E+02 -0.21312871716E+02  0.67096674631E+02  0.41800000000E+01 0.  1.
</event>
<event>
11    1  0.8453735E-009  0.3328314E+03  0.7561462E-02  0.9871802E-01
         22   -1    0    0    0    0  0.00000000000E+00  0.00000000000E+00  0.39083641957E+04  0.39083641957E+04  0.00000000000E+00 0. -1.
         22   -1    0    0    0    0 -0.00000000000E+00 -0.00000000000E+00 -0.29010339769E+03  0.29010339769E+03  0.00000000000E+00 0. -1.
        -24    2    1    2    0    0  0.30683371394E+03 -0.61657851702E+02 -0.11708896501E+03  0.34365032944E+03  0.80231568005E+02 0.  0.
         25    2    1    2    0    0 -0.30598574154E+03 -0.99831472552E+02  0.46356734690E+03  0.57804388162E+03  0.12508575867E+03 0.  0.
         24    2    1    2    0    0 -0.84797240139E+00  0.16148932425E+03  0.32717824161E+04  0.32767733823E+04  0.81265612964E+02 0.  0.
        -11    1    5    5    0    0  0.93920012842E+00  0.94971384537E+02  0.11389233336E+04  0.11428765488E+04  0.00000000000E+00 0.  1.
         12    1    5    5    0    0 -0.17871725298E+01  0.66517939717E+02  0.21328590825E+04  0.21338968335E+04  0.00000000000E+00 0. -1.
         13    1    3    3    0    0  0.30834798882E+03 -0.55960443718E+02 -0.12167966429E+03  0.33617851534E+03  0.00000000000E+00 0. -1.
        -14    1    3    3    0    0 -0.15142748796E+01 -0.56974079846E+01  0.45906992716E+01  0.74718141007E+01  0.00000000000E+00 0.  1.
          5    1    4    4  501    0 -0.65488008936E+02  0.29686912825E+02  0.10243516430E+03  0.12522151330E+03  0.41800000000E+01 0.  1.
         -5    1    4    4    0  501 -0.24049773261E+03 -0.12951838538E+03  0.36113218260E+03  0.45282236832E+03  0.41800000000E+01 0.  1.
</event>
<event>
11    1  0.8453735E-009  0.2564027E+03  0.7561462E-02  0.1020543E+00
         22   -1    0    0    0    0  0.00000000000E+00  0.00000000000E+00  0.14219413780E+04  0.14219413780E+04  0.00000000000E+00 0. -1.
         22   -1    0    0    0    0 -0.00000000000E+00 -0.00000000000E+00 -0.13377384185E+04  0.13377384185E+04  0.00000000000E+00 0.  1.
         24    2    1    2    0    0 -0.55183532597E+01 -0.74367664720E+02 -0.12829759184E+04  0.12873147873E+04  0.74774009421E+02 0.  0.
         25    2    1    2    0    0  0.15653823307E+03  0.21731661995E+03  0.53893903581E+03  0.61468127384E+03  0.12508817837E+03 0.  0.
        -24    2    1    2    0    0 -0.15101987981E+03 -0.14294895522E+03  0.82823984215E+03  0.85768373544E+03  0.79992162216E+02 0.  0.
        -13    1    3    3    0    0  0.22370218019E+02 -0.58612171695E+02 -0.10806047552E+04  0.10824243393E+04  0.00000000000E+00 0.  1.
         14    1    3    3    0    0 -0.27888571279E+02 -0.15755493026E+02 -0.20237116324E+03  0.20489044800E+03  0.00000000000E+00 0. -1.
         11    1    5    5    0    0 -0.13335010466E+03 -0.15162028401E+03  0.72544831807E+03  0.75302471614E+03  0.00000000000E+00 0. -1.
        -12    1    5    5    0    0 -0.17669775148E+02  0.86713287873E+01  0.10279152409E+03  0.10465901930E+03  0.00000000000E+00 0.  1.
          5    1    4    4  501    0 -0.19962040944E+02  0.86859478313E+01  0.35947604991E+02  0.42233061373E+02  0.41800000000E+01 0.  1.
         -5    1    4    4    0  501  0.17650027402E+03  0.20863067211E+03  0.50299143082E+03  0.57244821246E+03  0.41800000000E+01 0.  1.
</event>
<event>
11    1  0.8453735E-009  0.1386496E+03  0.7561462E-02  0.1109076E+00
         22   -1    0    0    0    0  0.00000000000E+00  0.00000000000E+00  0.25760213561E+04  0.25760213561E+04  0.00000000000E+00 0. -1.
         22   -1    0    0    0    0 -0.00000000000E+00 -0.00000000000E+00 -0.41284678739E+03  0.41284678739E+03  0.00000000000E+00 0. -1.
        -24    2    1    2    0    0 -0.34899315815E+02 -0.48781414437E+02 -0.37838300985E+03  0.39149509300E+03  0.80604696260E+02 0.  0.
         25    2    1    2    0    0  0.10059988810E+02  0.60495844152E+02  0.15266234511E+03  0.20667061374E+03  0.12508397352E+03 0.  0.
         24    2    1    2    0    0  0.24839327005E+02 -0.11714429715E+02  0.23888952334E+04  0.23907024367E+04  0.88788989617E+02 0.  0.
        -11    1    5    5    0    0  0.23014479477E+02 -0.49737387719E+02  0.13642360853E+04  0.13653364313E+04  0.00000000000E+00 0.  1.
         12    1    5    5    0    0  0.18248475278E+01  0.38022958005E+02  0.10246591481E+04  0.10253660054E+04  0.00000000000E+00 0. -1.
         13    1    3    3    0    0 -0.28441130559E+02 -0.37965545412E+02 -0.37561331313E+03  0.37859693811E+03  0.00000000000E+00 0. -1.
        -14    1    3    3    0    0 -0.64581852559E+01 -0.10815869025E+02 -0.27696967197E+01  0.12898154887E+02  0.00000000000E+00 0.  1.
          5    1    4    4  501    0  0.18498316976E+02  0.13701187751E+02  0.15700692024E+03  0.15874052941E+03  0.41800000000E+01 0. -1.
         -5    1    4    4    0  501 -0.84383281656E+01  0.46794656401E+02 -0.43445751264E+01  0.47930084320E+02  0.41800000000E+01 0. -1.
</event>
<event>
11    1  0.8453735E-009  0.1285084E+03  0.7561462E-02  0.1121115E+00
         22   -1    0    0    0    0  0.00000000000E+00  0.00000000000E+00  0.59607253037E+03  0.59607253037E+03  0.00000000000E+00 0. -1.
         22   -1    0    0    0    0 -0.00000000000E+00 -0.00000000000E+00 -0.99077438285E+02  0.99077438285E+02  0.00000000000E+00 0. -1.
         24    2    1    2    0    0  0.24436473131E+02  0.18317760663E+02 -0.42684599866E+02  0.10068704051E+03  0.85925685837E+02 0.  0.
         25    2    1    2    0    0  0.29042001960E+01 -0.37425884411E+02  0.17235756409E+03  0.21624488302E+03  0.12508232621E+03 0.  0.
        -24    2    1    2    0    0 -0.27340673327E+02  0.19108123748E+02  0.36732212786E+03  0.37821804512E+03  0.83729990038E+02 0.  0.
        -11    1    3    3    0    0 -0.68146535215E+01  0.24223336390E+02  0.18835481727E+02  0.31432227099E+02  0.00000000000E+00 0.  1.
         12    1    3    3    0    0  0.31251126652E+02 -0.59055757277E+01 -0.61520081593E+02  0.69254813414E+02  0.00000000000E+00 0. -1.
         11    1    5    5    0    0 -0.44766620972E+02  0.13619189225E+02  0.34975935973E+03  0.35287553385E+03  0.00000000000E+00 0. -1.
        -12    1    5    5    0    0  0.17425947645E+02  0.54889345229E+01  0.17562768127E+02  0.25342511277E+02  0.00000000000E+00 0.  1.
          5    1    4    4  501    0  0.46917273710E+02 -0.13128580823E+02  0.15557518865E+03  0.16307882122E+03  0.41800000000E+01 0.  1.
         -5    1    4    4    0  501 -0.44013073514E+02 -0.24297303588E+02  0.16782375442E+02  0.53166061800E+02  0.41800000000E+01 0.  1.
</event>
<event>
11    1  0.8453735E-009  0.1535473E+03  0.7561462E-02  0.1093308E+00
         22   -1    0    0    0    0  0.00000000000E+00  0.00000000000E+00  0.21036005039E+03  0.21036005039E+03  0.00000000000E+00 0. -1.
         22   -1    0    0    0    0 -0.00000000000E+00 -0.00000000000E+00 -0.47913512332E+03  0.47913512332E+03  0.00000000000E+00 0. -1.
         24    2    1    2    0    0  0.30350580425E+02  0.10669655377E+00 -0.32397794250E+03  0.33543038648E+03  0.81428912731E+02 0.  0.
         25    2    1    2    0    0 -0.28691718257E+02 -0.89096960958E+02 -0.78234633040E+02  0.17472185239E+03  0.12508231189E+03 0.  0.
        -24    2    1    2    0    0 -0.16588621678E+01  0.88990264404E+02  0.13343750261E+03  0.17934293484E+03  0.80226567871E+02 0.  0.
        -11    1    3    3    0    0  0.15842554764E+02 -0.39289013991E+02 -0.12229894365E+03  0.12942814524E+03  0.00000000000E+00 0.  1.
         12    1    3    3    0    0  0.14508025661E+02  0.39395710545E+02 -0.20167899885E+03  0.20600224124E+03  0.00000000000E+00 0. -1.
         11    1    5    5    0    0  0.15835232877E+02  0.93999509186E+01  0.79533951724E+02  0.81638000675E+02  0.00000000000E+00 0. -1.
        -12    1    5    5    0    0 -0.17494095045E+02  0.79590313485E+02  0.53903550884E+02  0.97704934164E+02  0.00000000000E+00 0.  1.
          5    1    4    4  501    0 -0.60381111515E+02 -0.17019816535E+02 -0.72061097562E+02  0.95633817055E+02  0.41800000000E+01 0.  1.
         -5    1    4    4    0  501  0.31689393258E+02 -0.72077144423E+02 -0.61735354785E+01  0.79088035337E+02  0.41800000000E+01 0.  1.
</event>
<event>
11    1  0.8453735E-009  0.1903397E+03  0.7561462E-02  0.1061573E+00
         22   -1    0    0    0    0  0.00000000000E+00  0.00000000000E+00  0.93514755074E+03  0.93514755074E+03  0.00000000000E+00 0. -1.
         22   -1    0    0    0    0 -0.00000000000E+00 -0.00000000000E+00 -0.18831361046E+03  0.18831361046E+03  0.00000000000E+00 0. -1.
         24    2    1    2    0    0 -0.82545873054E+02 -0.12418504220E+03 -0.10067862574E+03  0.19717236799E+03  0.80653649362E+02 0.  0.
         25    2    1    2    0    0  0.41062322634E+02  0.11471509140E+03  0.17403002681E+03  0.24653508803E+03  0.12508969926E+03 0.  0.
        -24    2    1    2    0    0  0.41483550419E+02  0.94699508016E+01  0.67348253920E+03  0.67975370518E+03  0.81705594452E+02 0.  0.
        -11    1    3    3    0    0 -0.35184166769E+02 -0.77533643985E+00 -0.34748383896E+02  0.49456818753E+02  0.00000000000E+00 0.  1.
         12    1    3    3    0    0 -0.47361706285E+02 -0.12340970576E+03 -0.65930241840E+02  0.14771554924E+03  0.00000000000E+00 0. -1.
         13    1    5    5    0    0  0.13075740418E+02 -0.11571060718E+02  0.57242663723E+03  0.57269286659E+03  0.00000000000E+00 0. -1.
        -14    1    5    5    0    0  0.28407810002E+02  0.21041011519E+02  0.10105590197E+03  0.10706083858E+03  0.00000000000E+00 0.  1.
          5    1    4    4  501    0  0.39633296359E+02  0.12552823710E+03  0.85017961141E+02  0.15675988838E+03  0.41800000000E+01 0.  1.
         -5    1    4    4    0  501  0.14290262747E+01 -0.10813145699E+02  0.89012065671E+02  0.89775199644E+02  0.41800000000E+01 0.  1.
</event>
<event>
11    1  0.8453735E-009  0.1291086E+03  0.7561462E-02  0.1120369E+00
         22   -1    0    0    0    0  0.00000000000E+00  0.00000000000E+00  0.43041237958E+03  0.43041237958E+03  0.00000000000E+00 0.  1.
         22   -1    0    0    0    0 -0.00000000000E+00 -0.00000000000E+00 -0.65558502014E+03  0.65558502014E+03  0.00000000000E+00 0.  1.
         24    2    1    2    0    0 -0.23693404335E+02  0.16825855332E+01 -0.56279975550E+03  0.56901319621E+03  0.80425394986E+02 0.  0.
         25    2    1    2    0    0 -0.43736799725E+01 -0.18973734224E+02 -0.37749631364E+02  0.13210689679E+03  0.12509222935E+03 0.  0.
        -24    2    1    2    0    0  0.28067084308E+02  0.17291148691E+02  0.37537674631E+03  0.38487730672E+03  0.78333227385E+02 0.  0.
        -11    1    3    3    0    0 -0.19048324728E+02  0.26409537533E+02 -0.50407743961E+03  0.50512807036E+03  0.00000000000E+00 0.  1.
         12    1    3    3    0    0 -0.46450796070E+01 -0.24726952000E+02 -0.58722315896E+02  0.63885125842E+02  0.00000000000E+00 0. -1.
         11    1    5    5    0    0  0.16781955880E+02 -0.12952130165E+02  0.24003312026E+02  0.32024220633E+02  0.00000000000E+00 0. -1.
        -12    1    5    5    0    0  0.11285128428E+02  0.30243278856E+02  0.35137343429E+03  0.35285308609E+03  0.00000000000E+00 0.  1.
          5    1    4    4  501    0  0.27463064834E+02  0.37228063713E+02  0.14781030590E+02  0.48745255391E+02  0.41800000000E+01 0.  1.
         -5    1    4    4    0  501 -0.31836744807E+02 -0.56201797937E+02 -0.52530661954E+02  0.83361641398E+02  0.41800000000E+01 0.  1.
</event>
<event>
11    1  0.8453735E-009  0.1395612E+03  0.7561462E-02  0.1108049E+00
         22   -1    0    0    0    0  0.00000000000E+00  0.00000000000E+00  0.13311308720E+03  0.13311308720E+03  0.00000000000E+00 0.  1.
         22   -1    0    0    0    0 -0.00000000000E+00 -0.00000000000E+00 -0.15898741907E+04  0.15898741907E+04  0.00000000000E+00 0. -1.
        -24    2    1    2    0    0 -0.61676923697E+02  0.86791204498E+01 -0.15198605827E+04  0.15232282032E+04  0.79803496022E+02 0.  0.
         25    2    1    2    0    0  0.42465644676E+02  0.19860201029E+01  0.32259063094E+02  0.13599935707E+03  0.12509157732E+03 0.  0.
         24    2    1    2    0    0  0.19211279021E+02 -0.10665140553E+02  0.30840416194E+02  0.63759717602E+02  0.51296704115E+02 0.  0.
        -13    1    5    5    0    0 -0.19046591130E+01 -0.28177418593E+02  0.13467332480E+02  0.31288395437E+02  0.00000000000E+00 0.  1.
         14    1    5    5    0    0  0.21115938134E+02  0.17512278040E+02  0.17373083714E+02  0.32471322165E+02  0.00000000000E+00 0. -1.
         11    1    3    3    0    0 -0.54229025244E+02  0.16723842086E+02 -0.14947726209E+04  0.14958494785E+04  0.00000000000E+00 0. -1.
        -12    1    3    3    0    0 -0.74478984528E+01 -0.80447216362E+01 -0.25087961853E+02  0.27378724724E+02  0.00000000000E+00 0.  1.
          5    1    4    4  501    0 -0.19705752062E+02  0.45433621948E+02 -0.74970388525E+01  0.50261403275E+02  0.41800000000E+01 0.  1.
         -5    1    4    4    0  501  0.62171396738E+02 -0.43447601845E+02  0.39756101946E+02  0.85737953791E+02  0.41800000000E+01 0.  1.
</event>
<event>
11    1  0.8453735E-009  0.3218140E+03  0.7561462E-02  0.9913595E-01
         22   -1    0    0    0    0  0.00000000000E+00  0.00000000000E+00  0.79208198244E+03  0.79208198244E+03  0.00000000000E+00 0. -1.
         22   -1    0    0    0    0 -0.00000000000E+00 -0.00000000000E+00 -0.59475970743E+03  0.59475970743E+03  0.00000000000E+00 0. -1.
         24    2    1    2    0    0  0.11366638783E+03  0.27564622438E+03 -0.47627305576E+03  0.56756133146E+03  0.79930923895E+02 0.  0.
         25    2    1    2    0    0 -0.20020395792E+03 -0.21334660919E+03  0.55445806598E+03  0.63927341097E+03  0.12509335165E+03 0.  0.
        -24    2    1    2    0    0  0.86537570087E+02 -0.62299615183E+02  0.11913726479E+03  0.18000694743E+03  0.82697159405E+02 0.  0.
        -13    1    3    3    0    0  0.96366652371E+01 -0.10851252837E+00 -0.31310986346E+01  0.10133156987E+02  0.00000000000E+00 0.  1.
         14    1    3    3    0    0  0.10402972259E+03  0.27575473690E+03 -0.47314195713E+03  0.55742817448E+03  0.00000000000E+00 0. -1.
         13    1    5    5    0    0  0.51498771804E+02  0.11233888707E+02  0.37538704356E+02  0.64710726140E+02  0.00000000000E+00 0. -1.
        -14    1    5    5    0    0  0.35038798283E+02 -0.73533503890E+02  0.81598560436E+02  0.11529622129E+03  0.00000000000E+00 0.  1.
          5    1    4    4  501    0 -0.28437180943E+02 -0.75777785884E+01  0.15747594771E+03  0.16025680171E+03  0.41800000000E+01 0.  1.
         -5    1    4    4    0  501 -0.17176677697E+03 -0.20576883060E+03  0.39698211828E+03  0.47901660927E+03  0.41800000000E+01 0.  1.
</event>
<event>
11    1  0.8453735E-009  0.1458062E+03  0.7561462E-02  0.1101243E+00
         22   -1    0    0    0    0  0.00000000000E+00  0.00000000000E+00  0.11220202739E+04  0.11220202739E+04  0.00000000000E+00 0. -1.
         22   -1    0    0    0    0 -0.00000000000E+00 -0.00000000000E+00 -0.17680618911E+03  0.17680618911E+03  0.00000000000E+00 0. -1.
         24    2    1    2    0    0 -0.18265136576E+02 -0.12209872005E+01 -0.13455017389E+03  0.16035548457E+03  0.85293763635E+02 0.  0.
         25    2    1    2    0    0 -0.19081770958E+02 -0.64924015862E+02  0.16647984694E+03  0.21895753030E+03  0.12509044256E+03 0.  0.
        -24    2    1    2    0    0  0.37346907533E+02  0.66145003062E+02  0.91328441171E+03  0.91951344810E+03  0.75143939422E+02 0.  0.
        -11    1    3    3    0    0 -0.27074892962E+02 -0.39214797316E+02 -0.83093840710E+02  0.95788498899E+02  0.00000000000E+00 0.  1.
         12    1    3    3    0    0  0.88097563866E+01  0.37993810116E+02 -0.51456333181E+02  0.64566985675E+02  0.00000000000E+00 0. -1.
         13    1    5    5    0    0 -0.11309780389E+02  0.40315326680E+02  0.59707830612E+03  0.59854468534E+03  0.00000000000E+00 0. -1.
        -14    1    5    5    0    0  0.48656687922E+02  0.25829676383E+02  0.31620610558E+03  0.32096876276E+03  0.00000000000E+00 0.  1.
          5    1    4    4  501    0 -0.40344034352E+02 -0.60190152584E+02  0.17923368083E+03  0.19337187055E+03  0.41800000000E+01 0. -1.
         -5    1    4    4    0  501  0.21262263394E+02 -0.47338632782E+01 -0.12753833886E+02  0.25585659753E+02  0.41800000000E+01 0. -1.
</event>
<event>
11    1  0.8453735E-009  0.1329803E+03  0.7561462E-02  0.1115660E+00
         22   -1    0    0    0    0  0.00000000000E+00  0.00000000000E+00  0.66510671239E+03  0.66510671239E+03  0.00000000000E+00 0.  1.
         22   -1    0    0    0    0 -0.00000000000E+00 -0.00000000000E+00 -0.45593148889E+03  0.45593148889E+03  0.00000000000E+00 0. -1.
         24    2    1    2    0    0 -0.37948461963E+02  0.20296001410E+02 -0.42383317685E+03  0.43360859632E+03  0.80807422706E+02 0.  0.
         25    2    1    2    0    0  0.69851247054E+02 -0.31800760255E+02  0.24798906140E+03  0.28816629596E+03  0.12510297554E+03 0.  0.
        -24    2    1    2    0    0 -0.31902785092E+02  0.11504758845E+02  0.38501933895E+03  0.39926330900E+03  0.10010570099E+03 0.  0.
        -13    1    3    3    0    0  0.25454046432E+01  0.43346691795E+02 -0.16516856301E+03  0.17078076291E+03  0.00000000000E+00 0.  1.
         14    1    3    3    0    0 -0.40493866606E+02 -0.23050690385E+02 -0.25866461384E+03  0.26282783341E+03  0.00000000000E+00 0. -1.
         13    1    5    5    0    0  0.25053381430E+02  0.35842938835E+02  0.16364982611E+03  0.16939201212E+03  0.00000000000E+00 0. -1.
        -14    1    5    5    0    0 -0.56956166522E+02 -0.24338179990E+02  0.22136951285E+03  0.22987129688E+03  0.00000000000E+00 0.  1.
          5    1    4    4  501    0  0.73456717884E+02 -0.23802125808E+02  0.54908170202E+02  0.94840972951E+02  0.41800000000E+01 0.  1.
         -5    1    4    4    0  501 -0.36054708301E+01 -0.79986344476E+01  0.19308089120E+03  0.19332532301E+03  0.41800000000E+01 0.  1.
</event>
<event>
11    1  0.8453735E-009  0.2853910E+03  0.7561462E-02  0.1006571E+00
         22   -1    0    0    0    0  0.00000000000E+00  0.00000000000E+00  0.18235740978E+04  0.18235740978E+04  0.00000000000E+00 0.  1.
         22   -1    0    0    0    0 -0.00000000000E+00 -0.00000000000E+00 -0.46034992869E+03  0.46034992869E+03  0.00000000000E+00 0.  1.
        -24    2    1    2    0    0  0.13544795564E+02 -0.11178267762E+02 -0.25073939090E+03  0.26350333503E+03  0.79090772314E+02 0.  0.
         25    2    1    2    0    0 -0.26927265270E+03  0.17199937644E+02 -0.77881925832E+02  0.30743462322E+03  0.12508738480E+03 0.  0.
         24    2    1    2    0    0  0.25572785714E+03 -0.60216698826E+01  0.16918454858E+04  0.17129860682E+04  0.80914303990E+02 0.  0.
        -11    1    5    5    0    0  0.44427247220E+02 -0.20870827919E+02  0.50559318953E+03  0.50797031907E+03  0.00000000000E+00 0.  1.
         12    1    5    5    0    0  0.21130060992E+03  0.14849158036E+02  0.11862522963E+04  0.12050157492E+04  0.00000000000E+00 0. -1.
         11    1    3    3    0    0  0.15348314945E+02 -0.96598141333E+01 -0.65184879828E+01  0.19271052549E+02  0.00000000000E+00 0. -1.
        -12    1    3    3    0    0 -0.18035193817E+01 -0.15184536283E+01 -0.24422090292E+03  0.24423228248E+03  0.00000000000E+00 0.  1.
          5    1    4    4  501    0 -0.26004434732E+03  0.48447742710E+02 -0.69851097147E+02  0.27361815459E+03  0.41800000000E+01 0.  1.
         -5    1    4    4    0  501 -0.92283053814E+01 -0.31247805066E+02 -0.80308286846E+01  0.33816468636E+02  0.41800000000E+01 0.  1.
</event>
<event>
11    1  0.8453735E-009  0.1356032E+03  0.7561462E-02  0.1112570E+00
         22   -1    0    0    0    0  0.00000000000E+00  0.00000000000E+00  0.61217873511E+03  0.61217873511E+03  0.00000000000E+00 0. -1.
         22   -1    0    0    0    0 -0.00000000000E+00 -0.00000000000E+00 -0.61331498476E+03  0.61331498476E+03  0.00000000000E+00 0. -1.
         24    2    1    2    0    0 -0.10025525105E+02  0.49068965238E+02 -0.46661866669E+03  0.47593438358E+03  0.79197745349E+02 0.  0.
         25    2    1    2    0    0  0.27091515520E+02 -0.66283741341E+02 -0.10166976603E+03  0.17638519707E+03  0.12509001495E+03 0.  0.
        -24    2    1    2    0    0 -0.17065990415E+02  0.17214776103E+02  0.56715218307E+03  0.57317413921E+03  0.79242656198E+02 0.  0.
        -13    1    3    3    0    0  0.45452045425E+01  0.33605012221E+02 -0.61262698285E+02  0.70021953214E+02  0.00000000000E+00 0.  1.
         14    1    3    3    0    0 -0.14570729648E+02  0.15463953017E+02 -0.40535596841E+03  0.40591243037E+03  0.00000000000E+00 0. -1.
         11    1    5    5    0    0  0.27046703988E+02  0.26116709995E+02  0.28123500801E+03  0.28373709040E+03  0.00000000000E+00 0. -1.
        -12    1    5    5    0    0 -0.44112694402E+02 -0.89019338925E+01  0.28591717505E+03  0.28943704881E+03  0.00000000000E+00 0.  1.
          5    1    4    4  501    0 -0.47432864605E+01  0.30107907088E+02  0.25096241394E+01  0.30866736935E+02  0.41800000000E+01 0.  1.
         -5    1    4    4    0  501  0.31834801980E+02 -0.96391648429E+02 -0.10417939017E+03  0.14551846013E+03  0.41800000000E+01 0.  1.
</event>
<event>
11    1  0.8453735E-009  0.1822314E+03  0.7561462E-02  0.1067852E+00
         22   -1    0    0    0    0  0.00000000000E+00  0.00000000000E+00  0.50900540961E+03  0.50900540961E+03  0.00000000000E+00 0. -1.
         22   -1    0    0    0    0 -0.00000000000E+00 -0.00000000000E+00 -0.26393266491E+03  0.26393266491E+03  0.00000000000E+00 0. -1.
         24    2    1    2    0    0 -0.54597491423E+02  0.60542634082E+02 -0.14761696875E+03  0.18747379982E+03  0.81910680293E+02 0.  0.
         25    2    1    2    0    0  0.10996866587E+03  0.65787123812E+02  0.22808538798E+02  0.18051891527E+03  0.12508315711E+03 0.  0.
        -24    2    1    2    0    0 -0.55371174447E+02 -0.12632975789E+03  0.36988117466E+03  0.40494535943E+03  0.90241265862E+02 0.  0.
        -11    1    3    3    0    0 -0.20067355842E+02  0.51107882130E+01  0.51450598564E+01  0.21337538930E+02  0.00000000000E+00 0.  1.
         12    1    3    3    0    0 -0.34530135581E+02  0.55431845869E+02 -0.15276202861E+03  0.16613626089E+03  0.00000000000E+00 0. -1.
         11    1    5    5    0    0 -0.20387170994E+02 -0.12528054168E+03  0.31766170296E+03  0.34208158149E+03  0.00000000000E+00 0. -1.
        -12    1    5    5    0    0 -0.34984003453E+02 -0.10492162122E+01  0.52219471701E+02  0.62863777941E+02  0.00000000000E+00 0.  1.
          5    1    4    4  501    0  0.19212953228E+02  0.68229519588E+02  0.48599870479E+02  0.86045480564E+02  0.41800000000E+01 0. -1.
         -5    1    4    4    0  501  0.90755712643E+02 -0.24423957765E+01 -0.25791331681E+02  0.94473434701E+02  0.41800000000E+01 0. -1.
</event>
<event>
11    1  0.8453735E-009  0.1338877E+03  0.7561462E-02  0.1114582E+00
         22   -1    0    0    0    0  0.00000000000E+00  0.00000000000E+00  0.10716127777E+04  0.10716127777E+04  0.00000000000E+00 0.  1.
         22   -1    0    0    0    0 -0.00000000000E+00 -0.00000000000E+00 -0.45168191369E+03  0.45168191369E+03  0.00000000000E+00 0.  1.
         24    2    1    2    0    0  0.33148528631E+02  0.27617080317E+02 -0.41084681139E+03  0.41939850830E+03  0.72377332502E+02 0.  0.
         25    2    1    2    0    0 -0.78953987303E+02 -0.29653836050E+02  0.12999205115E+03  0.19914397138E+03  0.12508919165E+03 0.  0.
        -24    2    1    2    0    0  0.45805458672E+02  0.20367557331E+01  0.90078562429E+03  0.90475221176E+03  0.71130410730E+02 0.  0.
        -13    1    3    3    0    0  0.12620425678E+02  0.11349188498E+02 -0.37292151150E+03  0.37330755814E+03  0.00000000000E+00 0.  1.
         14    1    3    3    0    0  0.20528102953E+02  0.16267891819E+02 -0.37925299887E+02  0.46090950160E+02  0.00000000000E+00 0. -1.
         11    1    5    5    0    0  0.13110255625E+02  0.38823209889E+01  0.26195310587E+02  0.29549035781E+02  0.00000000000E+00 0. -1.
        -12    1    5    5    0    0  0.32695203047E+02 -0.18455652558E+01  0.87459031371E+03  0.87520317598E+03  0.00000000000E+00 0.  1.
          5    1    4    4  501    0  0.19761739657E+02 -0.23409291283E+02 -0.54306651116E+01  0.31392448076E+02  0.41800000000E+01 0.  1.
         -5    1    4    4    0  501 -0.98715726960E+02 -0.62445447671E+01  0.13542271627E+03  0.16775152330E+03  0.41800000000E+01 0.  1.
</event>
<event>
11    1  0.8453735E-009  0.3427395E+03  0.7561462E-02  0.9835673E-01
         22   -1    0    0    0    0  0.00000000000E+00  0.00000000000E+00  0.12273743688E+04  0.12273743688E+04  0.00000000000E+00 0.  1.
         22   -1    0    0    0    0 -0.00000000000E+00 -0.00000000000E+00 -0.53189429526E+03  0.53189429526E+03  0.00000000000E+00 0. -1.
        -24    2    1    2    0    0  0.35165616444E+02  0.12318007902E+03 -0.49660864415E+03  0.51888731626E+03  0.78828605770E+02 0.  0.
         25    2    1    2    0    0  0.74624543254E+01 -0.24821520484E+02  0.18638438250E+03  0.22595831051E+03  0.12508486698E+03 0.  0.
         24    2    1    2    0    0 -0.42628070770E+02 -0.98358558535E+02  0.10057043352E+04  0.10144230373E+04  0.78238930797E+02 0.  0.
        -13    1    5    5    0    0 -0.38997491033E+01 -0.37094661442E+02  0.66741978315E+03  0.66846120971E+03  0.00000000000E+00 0.  1.
         14    1    5    5    0    0 -0.38728321667E+02 -0.61263897093E+02  0.33828455209E+03  0.34596182762E+03  0.00000000000E+00 0. -1.
         13    1    3    3    0    0  0.49980763799E+02  0.72456960253E+02 -0.39113049481E+03  0.40091289804E+03  0.00000000000E+00 0. -1.
        -14    1    3    3    0    0 -0.14815147355E+02  0.50723118766E+02 -0.10547814933E+03  0.11797441823E+03  0.00000000000E+00 0.  1.
          5    1    4    4  501    0 -0.51872038267E+02 -0.67869571924E+01  0.37154297126E+02  0.64301518931E+02  0.41800000000E+01 0.  1.
         -5    1    4    4    0  501  0.59334492593E+02 -0.18034563292E+02  0.14923008537E+03  0.16165679158E+03  0.41800000000E+01 0.  1.
</event>
<event>
11    1  0.8453735E-009  0.1381064E+03  0.7561462E-02  0.1109691E+00
         22   -1    0    0    0    0  0.00000000000E+00  0.00000000000E+00  0.58428572102E+03  0.58428572102E+03  0.00000000000E+00 0. -1.
         22   -1    0    0    0    0 -0.00000000000E+00 -0.00000000000E+00 -0.26891339753E+03  0.26891339753E+03  0.00000000000E+00 0.  1.
         24    2    1    2    0    0 -0.49625803421E+02  0.26120288402E+02 -0.21314977600E+03  0.23451259431E+03  0.80114543313E+02 0.  0.
         25    2    1    2    0    0  0.83397401723E+02 -0.41127374892E+02  0.10870477488E+03  0.19002528241E+03  0.12508514017E+03 0.  0.
        -24    2    1    2    0    0 -0.33771598302E+02  0.15007086490E+02  0.41981732461E+03  0.42866124182E+03  0.78346287089E+02 0.  0.
        -11    1    3    3    0    0 -0.45546957306E+02 -0.55138182523E+01 -0.18904515514E+03  0.19453276895E+03  0.00000000000E+00 0.  1.
         12    1    3    3    0    0 -0.40788461153E+01  0.31634106654E+02 -0.24104620858E+02  0.39979825364E+02  0.00000000000E+00 0. -1.
         13    1    5    5    0    0  0.14959932384E+02  0.31630116986E+02  0.18223624557E+03  0.18556484871E+03  0.00000000000E+00 0. -1.
        -14    1    5    5    0    0 -0.48731530686E+02 -0.16623030496E+02  0.23758107904E+03  0.24309639311E+03  0.00000000000E+00 0.  1.
          5    1    4    4  501    0  0.81047541483E+01 -0.72720882263E+02  0.61085263679E+02  0.95409095980E+02  0.41800000000E+01 0.  1.
         -5    1    4    4    0  501  0.75292647574E+02  0.31593507372E+02  0.47619511204E+02  0.94616186428E+02  0.41800000000E+01 0.  1.
</event>
<event>
11    1  0.8453735E-009  0.1469967E+03  0.7561462E-02  0.1099988E+00
         22   -1    0    0    0    0  0.00000000000E+00  0.00000000000E+00  0.10445616378E+03  0.10445616378E+03  0.00000000000E+00 0.  1.
         22   -1    0    0    0    0 -0.00000000000E+00 -0.00000000000E+00 -0.34763828333E+03  0.34763828333E+03  0.00000000000E+00 0.  1.
        -24    2    1    2    0    0  0.34259668709E+00  0.29906378185E+01 -0.12880201704E+03  0.15361144609E+03  0.83650794902E+02 0.  0.
         25    2    1    2    0    0  0.74915573058E+02  0.15475569636E+02 -0.11459009517E+03  0.18608956168E+03  0.12508636502E+03 0.  0.
         24    2    1    2    0    0 -0.75258169745E+02 -0.18466207454E+02  0.20999266244E+00  0.11239343934E+03  0.81409140637E+02 0.  0.
        -13    1    5    5    0    0 -0.71569481248E+02 -0.43754084495E+02 -0.10781348701E+02  0.84574511739E+02  0.00000000000E+00 0.  1.
         14    1    5    5    0    0 -0.36886884966E+01  0.25287877040E+02  0.10991341364E+02  0.27818927604E+02  0.00000000000E+00 0. -1.
         11    1    3    3    0    0 -0.28226761829E+02  0.13536730682E+02 -0.11672578439E+03  0.12085074225E+03  0.00000000000E+00 0. -1.
        -12    1    3    3    0    0  0.28569358516E+02 -0.10546092863E+02 -0.12076232649E+02  0.32760703834E+02  0.00000000000E+00 0.  1.
          5    1    4    4  501    0  0.73983764468E+02  0.63872572571E+02 -0.81165929797E+02  0.12711681042E+03  0.41800000000E+01 0. -1.
         -5    1    4    4    0  501  0.93180858993E+00 -0.48397002935E+02 -0.33424165373E+02  0.58972751261E+02  0.41800000000E+01 0. -1.
</event>
<event>
11    1  0.8453735E-009  0.1269245E+03  0.7561462E-02  0.1123107E+00
         22   -1    0    0    0    0  0.00000000000E+00  0.00000000000E+00  0.35740213220E+03  0.35740213220E+03  0.00000000000E+00 0. -1.
         22   -1    0    0    0    0 -0.00000000000E+00 -0.00000000000E+00 -0.33148555254E+04  0.33148555254E+04  0.00000000000E+00 0.  1.
         24    2    1    2    0    0 -0.88669167481E+01 -0.19711054681E+02 -0.32399953178E+04  0.32411250142E+04  0.82792211139E+02 0.  0.
         25    2    1    2    0    0  0.26526777026E+02  0.11368219137E+01 -0.81883134776E+01  0.12813485114E+03  0.12508608770E+03 0.  0.
        -24    2    1    2    0    0 -0.17659860278E+02  0.18574232768E+02  0.29073023811E+03  0.30299779227E+03  0.81404655770E+02 0.  0.
        -13    1    3    3    0    0 -0.25354870237E+02  0.18403977138E+02 -0.22993394157E+04  0.22995528531E+04  0.00000000000E+00 0.  1.
         14    1    3    3    0    0  0.16487953489E+02 -0.38115031820E+02 -0.94065590215E+03  0.94157216107E+03  0.00000000000E+00 0. -1.
         13    1    5    5    0    0 -0.40444761064E+02  0.37854966755E+02  0.18185329811E+03  0.19010365393E+03  0.00000000000E+00 0. -1.
        -14    1    5    5    0    0  0.22784900785E+02 -0.19280733988E+02  0.10887694000E+03  0.11289413833E+03  0.00000000000E+00 0.  1.
          5    1    4    4  501    0 -0.55947709289E+00  0.41435723572E+02 -0.49184036694E+02  0.64449779426E+02  0.41800000000E+01 0. -1.
         -5    1    4    4    0  501  0.27086254119E+02 -0.40298901658E+02  0.40995723216E+02  0.63685071713E+02  0.41800000000E+01 0. -1.
</event>
<event>
11    1  0.8453735E-009  0.1295762E+03  0.7561462E-02  0.1119791E+00
         22   -1    0    0    0    0  0.00000000000E+00  0.00000000000E+00  0.17673370169E+03  0.17673370169E+03  0.00000000000E+00 0.  1.
         22   -1    0    0    0    0 -0.00000000000E+00 -0.00000000000E+00 -0.20106594240E+04  0.20106594240E+04  0.00000000000E+00 0. -1.
        -24    2    1    2    0    0 -0.28621050083E+02  0.21891455458E+01 -0.17233937494E+04  0.17255495105E+04  0.81308922741E+02 0.  0.
         25    2    1    2    0    0  0.60906385924E+02 -0.68833669979E+01 -0.25653642012E+03  0.29191430223E+03  0.12508419729E+03 0.  0.
         24    2    1    2    0    0 -0.32285335841E+02  0.46942214521E+01  0.14600444718E+03  0.16992931296E+03  0.80587183733E+02 0.  0.
        -11    1    5    5    0    0 -0.39711168102E+02 -0.36449771901E+01  0.15207705552E+03  0.15721861704E+03  0.00000000000E+00 0.  1.
         12    1    5    5    0    0  0.74258322607E+01  0.83391986422E+01 -0.60726083351E+01  0.12710695919E+02  0.00000000000E+00 0. -1.
         11    1    3    3    0    0 -0.36500881307E+02  0.78015310964E+01 -0.16974564100E+04  0.16978667327E+04  0.00000000000E+00 0. -1.
        -12    1    3    3    0    0  0.78798312232E+01 -0.56123855505E+01 -0.25937339419E+02  0.27682777819E+02  0.00000000000E+00 0.  1.
          5    1    4    4  501    0  0.44821256515E+02 -0.76011027147E+01 -0.26790422605E+03  0.27176620197E+03  0.41800000000E+01 0. -1.
         -5    1    4    4    0  501  0.16085129410E+02  0.71773571685E+00  0.11367805927E+02  0.20148100265E+02  0.41800000000E+01 0. -1.
</event>
<event>
11    1  0.8453735E-009  0.2127466E+03  0.7561462E-02  0.1045859E+00
         22   -1    0    0    0    0  0.00000000000E+00  0.00000000000E+00  0.12254013523E+04  0.12254013523E+04  0.00000000000E+00 0. -1.
         22   -1    0    0    0    0 -0.00000000000E+00 -0.00000000000E+00 -0.13730574949E+03  0.13730574949E+03  0.00000000000E+00 0. -1.
         24    2    1    2    0    0 -0.11538613535E+03 -0.11717226929E+03 -0.22906721437E+02  0.18477502664E+03  0.81078922422E+02 0.  0.
         25    2    1    2    0    0  0.14131329725E+03  0.19002242429E+03  0.63867060836E+03  0.69255048737E+03  0.12509221345E+03 0.  0.
        -24    2    1    2    0    0 -0.25927161903E+02 -0.72850155002E+02  0.47233171591E+03  0.48538158780E+03  0.80738300155E+02 0.  0.
        -13    1    3    3    0    0 -0.11067087134E+02 -0.71213665984E+01  0.22864125767E+02  0.26381101700E+02  0.00000000000E+00 0.  1.
         14    1    3    3    0    0 -0.10431904821E+03 -0.11005090269E+03 -0.45770847203E+02  0.15839392494E+03  0.00000000000E+00 0. -1.
         11    1    5    5    0    0 -0.45288356345E+02 -0.57328273148E+02  0.43118971194E+03  0.43733526477E+03  0.00000000000E+00 0. -1.
        -12    1    5    5    0    0  0.19361194443E+02 -0.15521881854E+02  0.41142003963E+02  0.48046323029E+02  0.00000000000E+00 0.  1.
          5    1    4    4  501    0  0.83369961993E+02  0.28704279854E+02  0.14287379686E+03  0.16794308701E+03  0.41800000000E+01 0.  1.
         -5    1    4    4    0  501  0.57943335258E+02  0.16131814444E+03  0.49579681149E+03  0.52460740036E+03  0.41800000000E+01 0.  1.
</event>
<event>
11    1  0.8453735E-009  0.1362146E+03  0.7561462E-02  0.1111861E+00
         22   -1    0    0    0    0  0.00000000000E+00  0.00000000000E+00  0.13783593747E+03  0.13783593747E+03  0.00000000000E+00 0. -1.
         22   -1    0    0    0    0 -0.00000000000E+00 -0.00000000000E+00 -0.15253258974E+04  0.15253258974E+04  0.00000000000E+00 0. -1.
         24    2    1    2    0    0 -0.13259361825E+01 -0.31956432255E+02 -0.12771075754E+04  0.12798702312E+04  0.77724370867E+02 0.  0.
         25    2    1    2    0    0 -0.43776328319E+02 -0.16105849707E+00 -0.20723680799E+03  0.24601460010E+03  0.12513870710E+03 0.  0.
        -24    2    1    2    0    0  0.45102264502E+02  0.32117490753E+02  0.96854423494E+02  0.13727700358E+03  0.79990304944E+02 0.  0.
        -11    1    3    3    0    0 -0.21343379849E+01  0.20422547602E+02 -0.13411290439E+03  0.13567574202E+03  0.00000000000E+00 0.  1.
         12    1    3    3    0    0  0.80840180244E+00 -0.52378979858E+02 -0.11429946711E+04  0.11441944892E+04  0.00000000000E+00 0. -1.
         11    1    5    5    0    0  0.27439155897E+02  0.42561887953E+02  0.10389775761E+03  0.11558185679E+03  0.00000000000E+00 0. -1.
        -12    1    5    5    0    0  0.17663108605E+02 -0.10444397200E+02 -0.70433341195E+01  0.21695146784E+02  0.00000000000E+00 0.  1.
          5    1    4    4  501    0 -0.67704497078E+02  0.40686875107E+02 -0.16257937467E+03  0.18080057024E+03  0.41800000000E+01 0.  1.
         -5    1    4    4    0  501  0.23928168759E+02 -0.40847933604E+02 -0.44657433323E+02  0.65214029862E+02  0.41800000000E+01 0.  1.
</event>
<event>
11    1  0.8453735E-009  0.3189644E+03  0.7561462E-02  0.9924698E-01
         22   -1    0    0    0    0  0.00000000000E+00  0.00000000000E+00  0.18956961782E+04  0.18956961782E+04  0.00000000000E+00 0. -1.
         22   -1    0    0    0    0 -0.00000000000E+00 -0.00000000000E+00 -0.10251864311E+03  0.10251864311E+03  0.00000000000E+00 0. -1.
        -24    2    1    2    0    0 -0.14424034164E+03 -0.25136939077E+03  0.26568960985E+03  0.40142873053E+03  0.81007469652E+02 0.  0.
         25    2    1    2    0    0  0.81261833176E+02  0.30499022468E+03  0.12649570604E+04  0.13097278051E+04  0.12509210973E+03 0.  0.
         24    2    1    2    0    0  0.62978508467E+02 -0.53620833914E+02  0.26253086478E+03  0.28705828570E+03  0.81477101519E+02 0.  0.
        -13    1    5    5    0    0  0.76453803145E+02 -0.49754981931E+02  0.25566096428E+03  0.27144662625E+03  0.00000000000E+00 0.  1.
         14    1    5    5    0    0 -0.13475294678E+02 -0.38658519825E+01  0.68699004952E+01  0.15611659458E+02  0.00000000000E+00 0. -1.
         13    1    3    3    0    0 -0.88919721352E+02 -0.21074253666E+03  0.22872299414E+03  0.32347077404E+03  0.00000000000E+00 0. -1.
        -14    1    3    3    0    0 -0.55320620292E+02 -0.40626854101E+02  0.36966615706E+02  0.77957956491E+02  0.00000000000E+00 0.  1.
          5    1    4    4  501    0  0.46627084975E+02  0.29009753984E+03  0.11896881173E+04  0.12254411273E+04  0.41800000000E+01 0. -1.
         -5    1    4    4    0  501  0.34634748201E+02  0.14892684840E+02  0.75268943185E+02  0.84286677790E+02  0.41800000000E+01 0. -1.
</event>
<event>
11    1  0.8453735E-009  0.1308538E+03  0.7561462E-02  0.1118224E+00
         22   -1    0    0    0    0  0.00000000000E+00  0.00000000000E+00  0.45765815807E+03  0.45765815807E+03  0.00000000000E+00 0.  1.
         22   -1    0    0    0    0 -0.00000000000E+00 -0.00000000000E+00 -0.52427030718E+03  0.52427030718E+03  0.00000000000E+00 0.  1.
        -24    2    1    2    0    0 -0.22021179221E+02  0.31613029772E+02 -0.35576821859E+03  0.36692155963E+03  0.81093092028E+02 0.  0.
         25    2    1    2    0    0  0.30483616345E+02 -0.24506388930E+02 -0.13174563902E+03  0.18583504326E+03  0.12509171010E+03 0.  0.
         24    2    1    2    0    0 -0.84624371235E+01 -0.71066408422E+01  0.42090170851E+03  0.42917186237E+03  0.83115113121E+02 0.  0.
        -13    1    5    5    0    0  0.19274762278E+02 -0.37796179382E+02  0.22071489852E+03  0.22475572088E+03  0.00000000000E+00 0.  1.
         14    1    5    5    0    0 -0.27737199401E+02  0.30689538540E+02  0.20018680999E+03  0.20441614149E+03  0.00000000000E+00 0. -1.
         13    1    3    3    0    0 -0.78449093807E+01  0.38290802088E+02 -0.65823201856E+02  0.76553393330E+02  0.00000000000E+00 0. -1.
        -14    1    3    3    0    0 -0.14176269841E+02 -0.66777723166E+01 -0.28994501674E+03  0.29036816630E+03  0.00000000000E+00 0.  1.
          5    1    4    4  501    0  0.58629423988E+02 -0.15322397373E+02 -0.14182220001E+03  0.15428283779E+03  0.41800000000E+01 0. -1.
         -5    1    4    4    0  501 -0.28145807643E+02 -0.91839915568E+01  0.10076560988E+02  0.31552205472E+02  0.41800000000E+01 0. -1.
</event>
<event>
11    1  0.1356234E-008  0.1855637E+03  0.7561462E-02  0.1065229E+00
         22   -1    0    0    0    0  0.00000000000E+00  0.00000000000E+00  0.50853673808E+03  0.50853673808E+03  0.00000000000E+00 0. -1.
         22   -1    0    0    0    0 -0.00000000000E+00 -0.00000000000E+00 -0.10471759750E+04  0.10471759750E+04  0.00000000000E+00 0.  1.
        -24    2    1    2    0    0 -0.27980491325E+02 -0.10629118794E+02 -0.80760807505E+03  0.81223552318E+03  0.81239498800E+02 0.  0.
         25    2    1    2    0    0 -0.10713590840E+03 -0.20976220144E+02 -0.19283212745E+03  0.25446049247E+03  0.12509119942E+03 0.  0.
         24    2    1    2    0    0  0.13511639972E+03  0.31605338938E+02  0.46180096557E+03  0.48901669744E+03  0.81374809710E+02 0.  0.
        -13    1    5    5    0    0  0.74259365235E+02  0.93490766133E+01  0.12228088317E+03  0.14336831222E+03  0.00000000000E+00 0.  1.
         14    1    5    5    0    0  0.60857034487E+02  0.22256262325E+02  0.33952008240E+03  0.34564838523E+03  0.00000000000E+00 0. -1.
         11    1    3    3    0    0  0.15686018621E+02 -0.18437907954E+02 -0.88217577770E+02  0.91478678704E+02  0.00000000000E+00 0. -1.
        -12    1    3    3    0    0 -0.43666509946E+02  0.78087891591E+01 -0.71939049728E+03  0.72075684448E+03  0.00000000000E+00 0.  1.
          5    1    4    4  501    0  0.73959538777E+01  0.18166372051E+02  0.66198498952E+01  0.21118996660E+02  0.41800000000E+01 0.  1.
         -5    1    4    4    0  501 -0.11453186227E+03 -0.39142592195E+02 -0.19945197734E+03  0.23334149581E+03  0.41800000000E+01 0.  1.
</event>
<event>
11    1  0.8453735E-009  0.1866617E+03  0.7561462E-02  0.1064378E+00
         22   -1    0    0    0    0  0.00000000000E+00  0.00000000000E+00  0.16637899595E+03  0.16637899595E+03  0.00000000000E+00 0.  1.
         22   -1    0    0    0    0 -0.00000000000E+00 -0.00000000000E+00 -0.54945555843E+03  0.54945555843E+03  0.00000000000E+00 0.  1.
         24    2    1    2    0    0  0.96861491735E+02  0.10939884581E+03 -0.41630472815E+03  0.44841040881E+03  0.80075039846E+02 0.  0.
         25    2    1    2    0    0 -0.58729229653E+02 -0.86473582484E+02 -0.16107102527E+02  0.16379934305E+03  0.12507590955E+03 0.  0.
        -24    2    1    2    0    0 -0.38132262083E+02 -0.22925263323E+02  0.49335268194E+02  0.10362480251E+03  0.79526686701E+02 0.  0.
        -13    1    3    3    0    0  0.72352689764E+02  0.65373096999E+02 -0.16137153768E+03  0.18854529085E+03  0.00000000000E+00 0.  1.
         14    1    3    3    0    0  0.24508801971E+02  0.44025748807E+02 -0.25493319047E+03  0.25986511796E+03  0.00000000000E+00 0. -1.
         13    1    5    5    0    0 -0.35711902960E+02 -0.50871137064E+02  0.40622713358E+02  0.74252390128E+02  0.00000000000E+00 0. -1.
        -14    1    5    5    0    0 -0.24203591229E+01  0.27945873741E+02  0.87125548361E+01  0.29372412383E+02  0.00000000000E+00 0.  1.
          5    1    4    4  501    0 -0.71653085822E+02 -0.30721782317E+02  0.36288089280E+02  0.86094659766E+02  0.41800000000E+01 0.  1.
         -5    1    4    4    0  501  0.12923856169E+02 -0.55751800167E+02 -0.52395191807E+02  0.77704683286E+02  0.41800000000E+01 0.  1.
</event>
<event>
11    1  0.8453735E-009  0.1366220E+03  0.7561462E-02  0.1111390E+00
         22   -1    0    0    0    0  0.00000000000E+00  0.00000000000E+00  0.15479482922E+03  0.15479482922E+03  0.00000000000E+00 0. -1.
         22   -1    0    0    0    0 -0.00000000000E+00 -0.00000000000E+00 -0.16594660371E+04  0.16594660371E+04  0.00000000000E+00 0. -1.
        -24    2    1    2    0    0 -0.16876698599E+02 -0.51890430902E+02 -0.15282985547E+04  0.15312242224E+04  0.77289760493E+02 0.  0.
         25    2    1    2    0    0  0.46893299460E+02  0.55601727850E+02 -0.64499380948E+02  0.15841635949E+03  0.12508013087E+03 0.  0.
         24    2    1    2    0    0 -0.30016600861E+02 -0.37112969484E+01  0.88126727747E+02  0.12462028448E+03  0.82759441210E+02 0.  0.
        -11    1    5    5    0    0  0.72268646083E+01 -0.14595403767E+02 -0.99924586605E+01  0.19107658498E+02  0.00000000000E+00 0.  1.
         12    1    5    5    0    0 -0.37243465469E+02  0.10884106818E+02  0.98119186408E+02  0.10551262599E+03  0.00000000000E+00 0. -1.
         11    1    3    3    0    0  0.28796478290E+01 -0.46160299253E+02 -0.14322974733E+04  0.14330440040E+04  0.00000000000E+00 0. -1.
        -12    1    3    3    0    0 -0.19756346428E+02 -0.57301316481E+01 -0.96001081446E+02  0.98180218332E+02  0.00000000000E+00 0.  1.
          5    1    4    4  501    0  0.79531255597E+02  0.30531590343E+02 -0.43351294404E+01  0.85402952952E+02  0.41800000000E+01 0.  1.
         -5    1    4    4    0  501 -0.32637956137E+02  0.25070137507E+02 -0.60164251508E+02  0.73013406543E+02  0.41800000000E+01 0.  1.
</event>
<event>
11    1  0.8453735E-009  0.1340117E+03  0.7561462E-02  0.1114436E+00
         22   -1    0    0    0    0  0.00000000000E+00  0.00000000000E+00  0.39226289093E+03  0.39226289093E+03  0.00000000000E+00 0.  1.
         22   -1    0    0    0    0 -0.00000000000E+00 -0.00000000000E+00 -0.89907243601E+02  0.89907243601E+02  0.00000000000E+00 0.  1.
         24    2    1    2    0    0  0.14692953643E+02 -0.42077444006E+02 -0.41833304820E+01  0.98245959001E+02  0.87454982849E+02 0.  0.
         25    2    1    2    0    0 -0.13201261770E+02  0.59007168582E+02  0.13218398876E+03  0.19177097461E+03  0.12508949021E+03 0.  0.
        -24    2    1    2    0    0 -0.14916918732E+01 -0.16929724576E+02  0.17435498905E+03  0.19215320092E+03  0.78957898265E+02 0.  0.
        -11    1    3    3    0    0  0.16477331451E+02  0.24302619021E+02  0.86577879514E+01  0.30611714020E+02  0.00000000000E+00 0.  1.
         12    1    3    3    0    0 -0.17843778076E+01 -0.66380063026E+02 -0.12841118433E+02  0.67634244981E+02  0.00000000000E+00 0. -1.
         11    1    5    5    0    0  0.18411329244E+02  0.23355848819E+02  0.36061676504E+02  0.46743098217E+02  0.00000000000E+00 0. -1.
        -12    1    5    5    0    0 -0.19903021118E+02 -0.40285573395E+02  0.13829331255E+03  0.14541010271E+03  0.00000000000E+00 0.  1.
          5    1    4    4  501    0  0.54827260413E+02  0.19842742346E+02  0.72156726826E+02  0.92864570933E+02  0.41800000000E+01 0. -1.
         -5    1    4    4    0  501 -0.68028522183E+02  0.39164426236E+02  0.60027261932E+02  0.98906403675E+02  0.41800000000E+01 0. -1.
</event>
<event>
11    1  0.8453735E-009  0.1473669E+03  0.7561462E-02  0.1099600E+00
         22   -1    0    0    0    0  0.00000000000E+00  0.00000000000E+00  0.10888350378E+04  0.10888350378E+04  0.00000000000E+00 0. -1.
         22   -1    0    0    0    0 -0.00000000000E+00 -0.00000000000E+00 -0.44297239789E+03  0.44297239789E+03  0.00000000000E+00 0. -1.
         24    2    1    2    0    0  0.70901714963E+02 -0.14834991305E+02 -0.21832126457E+03  0.24387643679E+03  0.81021057161E+02 0.  0.
         25    2    1    2    0    0 -0.78463392578E+02  0.54094612123E+02 -0.18023511230E+03  0.23919597946E+03  0.12508912762E+03 0.  0.
        -24    2    1    2    0    0  0.75616776145E+01 -0.39259620818E+02  0.10444190168E+04  0.10487350194E+04  0.86229702584E+02 0.  0.
        -13    1    3    3    0    0  0.39470860146E+02  0.27643137961E+02 -0.59914805039E+02  0.76888723100E+02  0.00000000000E+00 0.  1.
         14    1    3    3    0    0  0.31430854817E+02 -0.42478129266E+02 -0.15840645953E+03  0.16698771369E+03  0.00000000000E+00 0. -1.
         13    1    5    5    0    0 -0.19453667583E+02 -0.47052579128E+02  0.90915633569E+03  0.91058093167E+03  0.00000000000E+00 0. -1.
        -14    1    5    5    0    0  0.27015345198E+02  0.77929583100E+01  0.13526268107E+03  0.13815408776E+03  0.00000000000E+00 0.  1.
          5    1    4    4  501    0 -0.68943115503E+02 -0.15807100467E+02 -0.38072079435E+02  0.80436143822E+02  0.41800000000E+01 0.  1.
         -5    1    4    4    0  501 -0.95202770747E+01  0.69901712590E+02 -0.14216303286E+03  0.15875983564E+03  0.41800000000E+01 0.  1.
</event>
<event>
11    1  0.8453735E-009  0.1278895E+03  0.7561462E-02  0.1121890E+00
         22   -1    0    0    0    0  0.00000000000E+00  0.00000000000E+00  0.14685820520E+03  0.14685820520E+03  0.00000000000E+00 0.  1.
         22   -1    0    0    0    0 -0.00000000000E+00 -0.00000000000E+00 -0.47338558341E+03  0.47338558341E+03  0.00000000000E+00 0.  1.
        -24    2    1    2    0    0 -0.19524175667E+02 -0.15795071442E+02 -0.38432001891E+03  0.39352827415E+03  0.80820467095E+02 0.  0.
         25    2    1    2    0    0  0.45578456059E+02  0.28562655379E+02  0.24213020872E+02  0.13829656450E+03  0.12508576431E+03 0.  0.
         24    2    1    2    0    0 -0.26054280392E+02 -0.12767583937E+02  0.33579619834E+02  0.88418949967E+02  0.76475375898E+02 0.  0.
        -11    1    5    5    0    0 -0.49209123426E+02 -0.24325010156E+02  0.29186031909E+02  0.62169674328E+02  0.00000000000E+00 0.  1.
         12    1    5    5    0    0  0.23154843034E+02  0.11557426219E+02  0.43935879250E+01  0.26249275639E+02  0.00000000000E+00 0. -1.
         13    1    3    3    0    0 -0.61063587467E+01  0.29616047676E+01  0.15567977509E+01  0.69629260502E+01  0.00000000000E+00 0. -1.
        -14    1    3    3    0    0 -0.13417816920E+02 -0.18756676210E+02 -0.38587681667E+03  0.38656534810E+03  0.00000000000E+00 0.  1.
          5    1    4    4  501    0 -0.37412866856E+02  0.17510274491E+01  0.33585363090E+02  0.50480072479E+02  0.41800000000E+01 0.  1.
         -5    1    4    4    0  501  0.82991322915E+02  0.26811627930E+02 -0.93723422189E+01  0.87816492017E+02  0.41800000000E+01 0.  1.
</event>
<event>
11    1  0.8453735E-009  0.1805737E+03  0.7561462E-02  0.1069180E+00
         22   -1    0    0    0    0  0.00000000000E+00  0.00000000000E+00  0.57943269581E+03  0.57943269581E+03  0.00000000000E+00 0. -1.
         22   -1    0    0    0    0 -0.00000000000E+00 -0.00000000000E+00 -0.35489001631E+03  0.35489001631E+03  0.00000000000E+00 0. -1.
        -24    2    1    2    0    0 -0.63286326175E+02 -0.82486490944E+01 -0.25362290558E+03  0.27370435850E+03  0.80723592182E+02 0.  0.
         25    2    1    2    0    0  0.16509044738E+03  0.75240371898E+02  0.77532993459E+02  0.23361242008E+03  0.12508968127E+03 0.  0.
         24    2    1    2    0    0 -0.10180412121E+03 -0.66991722804E+02  0.40063259163E+03  0.42700593354E+03  0.83520199829E+02 0.  0.
        -13    1    5    5    0    0 -0.70931748010E+01  0.56832271029E+01  0.13057798520E+00  0.90900632380E+01  0.00000000000E+00 0.  1.
         14    1    5    5    0    0 -0.94710946407E+02 -0.72674949907E+02  0.40050201365E+03  0.41791587030E+03  0.00000000000E+00 0. -1.
         11    1    3    3    0    0 -0.79971316137E+02  0.36688050412E+01 -0.22221928243E+03  0.23619966346E+03  0.00000000000E+00 0. -1.
        -12    1    3    3    0    0  0.16684989963E+02 -0.11917454136E+02 -0.31403623156E+02  0.37504695045E+02  0.00000000000E+00 0.  1.
          5    1    4    4  501    0  0.10223519776E+03 -0.21516710288E+02  0.30222701936E+02  0.10883881934E+03  0.41800000000E+01 0. -1.
         -5    1    4    4    0  501  0.62855249626E+02  0.96757082187E+02  0.47310291523E+02  0.12477360074E+03  0.41800000000E+01 0. -1.
</event>
<event>
11    1  0.8453735E-009  0.1661234E+03  0.7561462E-02  0.1081455E+00
         22   -1    0    0    0    0  0.00000000000E+00  0.00000000000E+00  0.23914752398E+03  0.23914752398E+03  0.00000000000E+00 0.  1.
         22   -1    0    0    0    0 -0.00000000000E+00 -0.00000000000E+00 -0.12883894929E+04  0.12883894929E+04  0.00000000000E+00 0. -1.
         24    2    1    2    0    0 -0.11667561193E+02 -0.42142234635E+02 -0.10614947563E+04  0.10639333403E+04  0.57192089735E+02 0.  0.
         25    2    1    2    0    0 -0.42881214171E+02  0.13321290787E+03 -0.15934550499E+03  0.24623997394E+03  0.12513455740E+03 0.  0.
        -24    2    1    2    0    0  0.54548775364E+02 -0.91070673231E+02  0.17159829233E+03  0.21736370264E+03  0.80818122209E+02 0.  0.
        -13    1    3    3    0    0 -0.10499622112E+01  0.55136948899E+01 -0.11426315922E+02  0.12730433909E+02  0.00000000000E+00 0.  1.
         14    1    3    3    0    0 -0.10617598982E+02 -0.47655929524E+02 -0.10500684403E+04  0.10512029064E+04  0.00000000000E+00 0. -1.
         13    1    5    5    0    0 -0.80539801544E+01 -0.29424809704E+02  0.98358839555E+02  0.10298129607E+03  0.00000000000E+00 0. -1.
        -14    1    5    5    0    0  0.62602755518E+02 -0.61645863527E+02  0.73239452774E+02  0.11438240656E+03  0.00000000000E+00 0.  1.
          5    1    4    4  501    0 -0.22140948566E+02 -0.17084362197E+02 -0.55645272842E+02  0.62417672375E+02  0.41800000000E+01 0.  1.
         -5    1    4    4    0  501 -0.20740265605E+02  0.15029727006E+03 -0.10370023215E+03  0.18382230157E+03  0.41800000000E+01 0.  1.
</event>
<event>
11    1  0.8453735E-009  0.1297084E+03  0.7561462E-02  0.1119628E+00
         22   -1    0    0    0    0  0.00000000000E+00  0.00000000000E+00  0.55025465205E+03  0.55025465205E+03  0.00000000000E+00 0. -1.
         22   -1    0    0    0    0 -0.00000000000E+00 -0.00000000000E+00 -0.43176999249E+03  0.43176999249E+03  0.00000000000E+00 0.  1.
        -24    2    1    2    0    0 -0.94995804365E+01 -0.31632911457E+02 -0.40415297469E+03  0.41373134997E+03  0.82116501846E+02 0.  0.
         25    2    1    2    0    0 -0.36891687547E+01 -0.11425011314E+02  0.24065346019E+03  0.27148723754E+03  0.12508833437E+03 0.  0.
         24    2    1    2    0    0  0.13188749191E+02  0.43057922771E+02  0.28198417407E+03  0.29680605704E+03  0.80937217951E+02 0.  0.
        -11    1    5    5    0    0 -0.43060356197E+00  0.12402185233E+02 -0.41981454058E+00  0.12416757315E+02  0.00000000000E+00 0.  1.
         12    1    5    5    0    0  0.13619352753E+02  0.30655737539E+02  0.28240398861E+03  0.28438929973E+03  0.00000000000E+00 0. -1.
         11    1    3    3    0    0 -0.39587022556E+02  0.37353711548E+00 -0.12431237778E+03  0.13046393813E+03  0.00000000000E+00 0. -1.
        -12    1    3    3    0    0  0.30087442119E+02 -0.32006448573E+02 -0.27984059692E+03  0.28326741183E+03  0.00000000000E+00 0.  1.
          5    1    4    4  501    0 -0.58046930569E+02 -0.29871535997E+02  0.99796269726E+02  0.11932528090E+03  0.41800000000E+01 0. -1.
         -5    1    4    4    0  501  0.54357761814E+02  0.18446524683E+02  0.14085719046E+03  0.15216195663E+03  0.41800000000E+01 0. -1.
</event>
<event>
11    1  0.8453735E-009  0.1258670E+03  0.7561462E-02  0.1124454E+00
         22   -1    0    0    0    0  0.00000000000E+00  0.00000000000E+00  0.60015097580E+03  0.60015097580E+03  0.00000000000E+00 0.  1.
         22   -1    0    0    0    0 -0.00000000000E+00 -0.00000000000E+00 -0.28747378155E+03  0.28747378155E+03  0.00000000000E+00 0.  1.
        -24    2    1    2    0    0  0.93367581861E+01 -0.96793130339E+01 -0.25966838440E+03  0.27209334101E+03  0.80163908423E+02 0.  0.
         25    2    1    2    0    0 -0.20843297999E+02  0.42997929797E+01  0.22171885554E+03  0.25546133648E+03  0.12509321422E+03 0.  0.
         24    2    1    2    0    0  0.11506539813E+02  0.53795200542E+01  0.35062672311E+03  0.36007007985E+03  0.80932217029E+02 0.  0.
        -13    1    5    5    0    0  0.24701585659E+02 -0.23607492079E+02  0.72753180858E+02  0.80377281251E+02  0.00000000000E+00 0.  1.
         14    1    5    5    0    0 -0.13195045846E+02  0.28987012133E+02  0.27787354225E+03  0.27969279860E+03  0.00000000000E+00 0. -1.
         11    1    3    3    0    0 -0.35649260685E+02 -0.27506618570E+01 -0.11187762624E+03  0.11745228470E+03  0.00000000000E+00 0. -1.
        -12    1    3    3    0    0  0.44986018871E+02 -0.69286511769E+01 -0.14779075816E+03  0.15464105631E+03  0.00000000000E+00 0.  1.
          5    1    4    4  501    0  0.47613232576E+02 -0.65085836730E+01  0.14082467257E+03  0.14885712070E+03  0.41800000000E+01 0. -1.
         -5    1    4    4    0  501 -0.68456530575E+02  0.10808376653E+02  0.80894182967E+02  0.10660421578E+03  0.41800000000E+01 0. -1.
</event>
<event>
11    1  0.8453735E-009  0.1459751E+03  0.7561462E-02  0.1101064E+00
         22   -1    0    0    0    0  0.00000000000E+00  0.00000000000E+00  0.14167026986E+04  0.14167026986E+04  0.00000000000E+00 0.  1.
         22   -1    0    0    0    0 -0.00000000000E+00 -0.00000000000E+00 -0.26858780677E+03  0.26858780677E+03  0.00000000000E+00 0.  1.
        -24    2    1    2    0    0 -0.71293846063E+02 -0.18637036029E+02 -0.21738742168E+03  0.24328216768E+03  0.80614951523E+02 0.  0.
         25    2    1    2    0    0  0.88453422823E+02  0.38650688334E+02  0.13218572387E+03  0.20600714846E+03  0.12509194979E+03 0.  0.
         24    2    1    2    0    0 -0.17159576760E+02 -0.20013652305E+02  0.12333165896E+04  0.12360011892E+04  0.77033318458E+02 0.  0.
        -13    1    5    5    0    0  0.30846680590E+01  0.26185607279E+02  0.64055032824E+03  0.64109275788E+03  0.00000000000E+00 0.  1.
         14    1    5    5    0    0 -0.20244244819E+02 -0.46199259584E+02  0.59276626141E+03  0.59490843136E+03  0.00000000000E+00 0. -1.
         11    1    3    3    0    0 -0.33077951931E+02  0.23076967244E+02 -0.38866252768E+02  0.56011453519E+02  0.00000000000E+00 0. -1.
        -12    1    3    3    0    0 -0.38215894132E+02 -0.41714003273E+02 -0.17852116891E+03  0.18727071416E+03  0.00000000000E+00 0.  1.
          5    1    4    4  501    0 -0.13409609940E+02 -0.18591059469E+02 -0.69057708882E+01  0.24302411454E+02  0.41800000000E+01 0. -1.
         -5    1    4    4    0  501  0.10186303276E+03  0.57241747803E+02  0.13909149476E+03  0.18170473700E+03  0.41800000000E+01 0. -1.
</event>
<event>
11    1  0.8453735E-009  0.1294230E+03  0.7561462E-02  0.1119980E+00
         22   -1    0    0    0    0  0.00000000000E+00  0.00000000000E+00  0.72962955462E+02  0.72962955462E+02  0.00000000000E+00 0. -1.
         22   -1    0    0    0    0 -0.00000000000E+00 -0.00000000000E+00 -0.46425593152E+03  0.46425593152E+03  0.00000000000E+00 0. -1.
         24    2    1    2    0    0  0.29953342807E+01 -0.31317662399E+02 -0.23440111782E+03  0.24976786717E+03  0.80313980293E+02 0.  0.
         25    2    1    2    0    0 -0.20361050265E+02 -0.33364335688E+01 -0.15122158642E+03  0.19733474625E+03  0.12508928700E+03 0.  0.
        -24    2    1    2    0    0  0.17365715984E+02  0.34654095968E+02 -0.56702718103E+01  0.90116273554E+02  0.81156123108E+02 0.  0.
        -11    1    3    3    0    0 -0.55673021472E+01  0.20043833352E+02 -0.19037433802E+02  0.28198829663E+02  0.00000000000E+00 0.  1.
         12    1    3    3    0    0  0.85626364279E+01 -0.51361495750E+02 -0.21536368402E+03  0.22156903751E+03  0.00000000000E+00 0. -1.
         11    1    5    5    0    0  0.45762641600E+02  0.39201548549E+02 -0.98434918377E+01  0.61056327325E+02  0.00000000000E+00 0. -1.
        -12    1    5    5    0    0 -0.28396925617E+02 -0.45474525812E+01  0.41732200274E+01  0.29059946229E+02  0.00000000000E+00 0.  1.
          5    1    4    4  501    0  0.32364502888E+02 -0.38456114262E+02 -0.25555074782E+02  0.56540852651E+02  0.41800000000E+01 0. -1.
         -5    1    4    4    0  501 -0.52725553153E+02  0.35119680694E+02 -0.12566651164E+03  0.14079389360E+03  0.41800000000E+01 0. -1.
</event>
<event>
11    1  0.8453735E-009  0.2045985E+03  0.7561462E-02  0.1051319E+00
         22   -1    0    0    0    0  0.00000000000E+00  0.00000000000E+00  0.93680374050E+02  0.93680374050E+02  0.00000000000E+00 0.  1.
         22   -1    0    0    0    0 -0.00000000000E+00 -0.00000000000E+00 -0.15918195034E+04  0.15918195034E+04  0.00000000000E+00 0.  1.
         24    2    1    2    0    0 -0.27114016029E+02  0.97985134577E+02 -0.99146440879E+03  0.99982770237E+03  0.79482728148E+02 0.  0.
         25    2    1    2    0    0 -0.18762205012E+02 -0.23345782487E+03 -0.42797218886E+03  0.50364900006E+03  0.12509014547E+03 0.  0.
        -24    2    1    2    0    0  0.45876221041E+02  0.13547269029E+03 -0.78702531741E+02  0.18202317506E+03  0.80503852600E+02 0.  0.
        -11    1    3    3    0    0 -0.15505647751E+02  0.61298155888E+02 -0.87264738668E+03  0.87493505503E+03  0.00000000000E+00 0.  1.
         12    1    3    3    0    0 -0.11608368278E+02  0.36686978688E+02 -0.11881702210E+03  0.12489264735E+03  0.00000000000E+00 0. -1.
         11    1    5    5    0    0  0.60826600224E+01  0.67365929716E+01 -0.41154312299E+02  0.42143301468E+02  0.00000000000E+00 0. -1.
        -12    1    5    5    0    0  0.39793561019E+02  0.12873609732E+03 -0.37548219441E+02  0.13987987359E+03  0.00000000000E+00 0.  1.
          5    1    4    4  501    0 -0.24322204864E+02 -0.20394700730E+03 -0.25220382333E+03  0.32528478651E+03  0.41800000000E+01 0.  1.
         -5    1    4    4    0  501  0.55599998522E+01 -0.29510817572E+02 -0.17576836554E+03  0.17836421355E+03  0.41800000000E+01 0.  1.
</event>
<event>
11    1  0.8453735E-009  0.1492206E+03  0.7561462E-02  0.1097678E+00
         22   -1    0    0    0    0  0.00000000000E+00  0.00000000000E+00  0.51652405577E+03  0.51652405577E+03  0.00000000000E+00 0.  1.
         22   -1    0    0    0    0 -0.00000000000E+00 -0.00000000000E+00 -0.15025006844E+04  0.15025006844E+04  0.00000000000E+00 0. -1.
         24    2    1    2    0    0 -0.15736857176E+02 -0.35337943400E+02 -0.14109304710E+04  0.14137480934E+04  0.80389420062E+02 0.  0.
         25    2    1    2    0    0  0.64550933607E+02 -0.31642554174E+02 -0.20009011809E+02  0.14565720541E+03  0.12509031406E+03 0.  0.
        -24    2    1    2    0    0 -0.48814076431E+02  0.66980497574E+02  0.44496285418E+03  0.45961944130E+03  0.79930520497E+02 0.  0.
        -11    1    3    3    0    0  0.29796885689E+02  0.26353063168E+01 -0.46346257454E+03  0.46442691269E+03  0.00000000000E+00 0.  1.
         12    1    3    3    0    0 -0.45533742865E+02 -0.37973249717E+02 -0.94746789642E+03  0.94932118073E+03  0.00000000000E+00 0. -1.
         13    1    5    5    0    0  0.11763358912E+02 -0.69026532100E+01  0.21117695620E+02  0.25139218415E+02  0.00000000000E+00 0. -1.
        -14    1    5    5    0    0 -0.60577435343E+02  0.73883150784E+02  0.42384515856E+03  0.43448022288E+03  0.00000000000E+00 0.  1.
          5    1    4    4  501    0  0.21817068493E+02  0.42962367619E+02 -0.33073790731E+02  0.58592640684E+02  0.41800000000E+01 0. -1.
         -5    1    4    4    0  501  0.42733865114E+02 -0.74604921793E+02  0.13064778922E+02  0.87064564730E+02  0.41800000000E+01 0. -1.
</event>
<event>
11    1  0.8453735E-009  0.1790417E+03  0.7561462E-02  0.1070421E+00
         22   -1    0    0    0    0  0.00000000000E+00  0.00000000000E+00  0.24257227282E+03  0.24257227282E+03  0.00000000000E+00 0. -1.
         22   -1    0    0    0    0 -0.00000000000E+00 -0.00000000000E+00 -0.58145895212E+03  0.58145895212E+03  0.00000000000E+00 0. -1.
        -24    2    1    2    0    0 -0.50732280791E+02  0.70149249481E+02 -0.30333163160E+03  0.32546300438E+03  0.80133681910E+02 0.  0.
         25    2    1    2    0    0 -0.52189677138E+02 -0.14568207937E+03 -0.19560623170E+03  0.27902772122E+03  0.12509052995E+03 0.  0.
         24    2    1    2    0    0  0.10292195793E+03  0.75532829885E+02  0.16005118399E+03  0.21954049933E+03  0.79268603723E+02 0.  0.
        -13    1    5    5    0    0 -0.93203691321E+01  0.20319658539E+02  0.10874229165E+02  0.24859739818E+02  0.00000000000E+00 0.  1.
         14    1    5    5    0    0  0.11224232706E+03  0.55213171346E+02  0.14917695483E+03  0.19468075952E+03  0.00000000000E+00 0. -1.
         13    1    3    3    0    0  0.14174959303E+01  0.34912975208E+02 -0.21003788275E+03  0.21292448737E+03  0.00000000000E+00 0. -1.
        -14    1    3    3    0    0 -0.52149776721E+02  0.35236274273E+02 -0.93293748850E+02  0.11253851701E+03  0.00000000000E+00 0.  1.
          5    1    4    4  501    0 -0.32293609141E+02 -0.84083238224E+02 -0.20747125399E+02  0.92524503533E+02  0.41800000000E+01 0.  1.
         -5    1    4    4    0  501 -0.19896067996E+02 -0.61598841142E+02 -0.17485910630E+03  0.18650321769E+03  0.41800000000E+01 0.  1.
</event>
<event>
11    1  0.9734004E-009  0.1540204E+03  0.7561462E-02  0.1092840E+00
         22   -1    0    0    0    0  0.00000000000E+00  0.00000000000E+00  0.37131913435E+03  0.37131913435E+03  0.00000000000E+00 0.  1.
         22   -1    0    0    0    0 -0.00000000000E+00 -0.00000000000E+00 -0.11998731768E+04  0.11998731768E+04  0.00000000000E+00 0.  1.
         24    2    1    2    0    0  0.36800465242E+02 -0.33003451765E+02 -0.88471680457E+03  0.88975429709E+03  0.80593937845E+02 0.  0.
         25    2    1    2    0    0  0.94580931880E+01 -0.45896723508E+02 -0.28717385420E+03  0.31672318845E+03  0.12509512704E+03 0.  0.
        -24    2    1    2    0    0 -0.46258558430E+02  0.78900175273E+02  0.34333661632E+03  0.36471482563E+03  0.82290825979E+02 0.  0.
        -13    1    3    3    0    0  0.41855814984E+02 -0.58405672137E+00 -0.74742146502E+03  0.74859274425E+03  0.00000000000E+00 0.  1.
         14    1    3    3    0    0 -0.50553497421E+01 -0.32419395044E+02 -0.13729533955E+03  0.14116155283E+03  0.00000000000E+00 0. -1.
         11    1    5    5    0    0  0.19276852779E+02  0.44750565188E+02  0.12215331647E+03  0.13151289999E+03  0.00000000000E+00 0. -1.
        -12    1    5    5    0    0 -0.65535411208E+02  0.34149610085E+02  0.22118329984E+03  0.23320192564E+03  0.00000000000E+00 0.  1.
          5    1    4    4  501    0  0.65093391146E+01 -0.94424236548E+01 -0.27867650382E+03  0.27894371662E+03  0.41800000000E+01 0.  1.
         -5    1    4    4    0  501  0.29487540735E+01 -0.36454299853E+02 -0.84973503823E+01  0.37779471832E+02  0.41800000000E+01 0.  1.
</event>
<event>
11    1  0.8453735E-009  0.1834394E+03  0.7561462E-02  0.1066894E+00
         22   -1    0    0    0    0  0.00000000000E+00  0.00000000000E+00  0.97987492645E+03  0.97987492645E+03  0.00000000000E+00 0. -1.
         22   -1    0    0    0    0 -0.00000000000E+00 -0.00000000000E+00 -0.14878803332E+03  0.14878803332E+03  0.00000000000E+00 0. -1.
        -24    2    1    2    0    0  0.97525987060E+01 -0.32121399598E+02 -0.73476144030E+02  0.11376231775E+03  0.80101333977E+02 0.  0.
         25    2    1    2    0    0 -0.65802218695E+02  0.14874927537E+03  0.17568046935E+03  0.27012216022E+03  0.12508427248E+03 0.  0.
         24    2    1    2    0    0  0.56049619989E+02 -0.11662787578E+03  0.72888256781E+03  0.74477848179E+03  0.81740858647E+02 0.  0.
        -13    1    5    5    0    0 -0.32985093805E+01 -0.82125431785E+00 -0.87469878943E+00  0.35099459768E+01  0.00000000000E+00 0.  1.
         14    1    5    5    0    0  0.59348129369E+02 -0.11580662146E+03  0.72975726660E+03  0.74126853581E+03  0.00000000000E+00 0. -1.
         11    1    3    3    0    0  0.65199927674E+01 -0.25393314008E+02 -0.91007269810E+02  0.94708256558E+02  0.00000000000E+00 0. -1.
        -12    1    3    3    0    0  0.32326059386E+01 -0.67280855909E+01  0.17531125780E+02  0.19054061194E+02  0.00000000000E+00 0.  1.
          5    1    4    4  501    0  0.29726668456E+02  0.33075541844E+01  0.17380971337E+02  0.34845161741E+02  0.41800000000E+01 0. -1.
         -5    1    4    4    0  501 -0.95528887150E+02  0.14544172119E+03  0.15829949802E+03  0.23527699848E+03  0.41800000000E+01 0. -1.
</event>
<event>
11    1  0.9511514E-009  0.1600939E+03  0.7561462E-02  0.1086989E+00
         22   -1    0    0    0    0  0.00000000000E+00  0.00000000000E+00  0.85345999257E+03  0.85345999257E+03  0.00000000000E+00 0. -1.
         22   -1    0    0    0    0 -0.00000000000E+00 -0.00000000000E+00 -0.35952690496E+03  0.35952690496E+03  0.00000000000E+00 0. -1.
         24    2    1    2    0    0 -0.31533596000E+02 -0.64036371358E+02 -0.23199934646E+03  0.25618978901E+03  0.81941971557E+02 0.  0.
         25    2    1    2    0    0  0.12394160387E+03  0.26904260349E+02 -0.37543444808E+02  0.18205054385E+03  0.12509008703E+03 0.  0.
        -24    2    1    2    0    0 -0.92408007866E+02  0.37132111010E+02  0.76347587887E+03  0.77474656467E+03  0.86132387984E+02 0.  0.
        -13    1    3    3    0    0 -0.53694139858E+02 -0.64183790351E+02 -0.15602342547E+03  0.17704781527E+03  0.00000000000E+00 0.  1.
         14    1    3    3    0    0  0.22160543857E+02  0.14741899238E+00 -0.75975920989E+02  0.79141973734E+02  0.00000000000E+00 0. -1.
         11    1    5    5    0    0 -0.10679452247E+03  0.42622514092E+02  0.70296144068E+03  0.71230368230E+03  0.00000000000E+00 0. -1.
        -12    1    5    5    0    0  0.14386514607E+02 -0.54904030821E+01  0.60514438190E+02  0.62442882364E+02  0.00000000000E+00 0.  1.
          5    1    4    4  501    0  0.47139471899E+02  0.16638190788E+02 -0.79373157914E+02  0.93896377996E+02  0.41800000000E+01 0.  1.
         -5    1    4    4    0  501  0.76802131967E+02  0.10266069561E+02  0.41829713106E+02  0.88154165854E+02  0.41800000000E+01 0.  1.
</event>
<event>
11    1  0.8453735E-009  0.1718970E+03  0.7561462E-02  0.1076393E+00
         22   -1    0    0    0    0  0.00000000000E+00  0.00000000000E+00  0.27549000958E+03  0.27549000958E+03  0.00000000000E+00 0.  1.
         22   -1    0    0    0    0 -0.00000000000E+00 -0.00000000000E+00 -0.22315231049E+03  0.22315231049E+03  0.00000000000E+00 0.  1.
        -24    2    1    2    0    0 -0.54535598243E+01 -0.75701325018E+01 -0.97878187857E+02  0.12759932084E+03  0.81328954249E+02 0.  0.
         25    2    1    2    0    0  0.73655554330E+02 -0.89603455006E+02  0.10619662307E+02  0.17092067426E+03  0.12508868786E+03 0.  0.
         24    2    1    2    0    0 -0.68201994506E+02  0.97173587508E+02  0.13959622464E+03  0.20012232498E+03  0.80421519858E+02 0.  0.
        -11    1    5    5    0    0 -0.61217667938E+01  0.71572915112E+02  0.96613487233E+02  0.12039237568E+03  0.00000000000E+00 0.  1.
         12    1    5    5    0    0 -0.62080227712E+02  0.25600672396E+02  0.42982737407E+02  0.79729949297E+02  0.00000000000E+00 0. -1.
         11    1    3    3    0    0 -0.29995507942E+02  0.11772902122E+02 -0.91018239670E+01  0.33483950194E+02  0.00000000000E+00 0. -1.
        -12    1    3    3    0    0  0.24541948118E+02 -0.19343034624E+02 -0.88776363890E+02  0.94115370643E+02  0.00000000000E+00 0.  1.
          5    1    4    4  501    0  0.89882869681E+02 -0.71009566258E+02 -0.34171911308E+02  0.11960970147E+03  0.41800000000E+01 0. -1.
         -5    1    4    4    0  501 -0.16227315351E+02 -0.18593888749E+02  0.44791573615E+02  0.51310972795E+02  0.41800000000E+01 0. -1.
</event>
<event>
11    1  0.8453735E-009  0.1649575E+03  0.7561462E-02  0.1082505E+00
         22   -1    0    0    0    0  0.00000000000E+00  0.00000000000E+00  0.75521536377E+03  0.75521536377E+03  0.00000000000E+00 0. -1.
         22   -1    0    0    0    0 -0.00000000000E+00 -0.00000000000E+00 -0.34550117471E+03  0.34550117471E+03  0.00000000000E+00 0. -1.
        -24    2    1    2    0    0  0.57609284776E+01  0.52655745651E+02 -0.22190989155E+03  0.24133225057E+03  0.78685699795E+02 0.  0.
         25    2    1    2    0    0  0.88419342268E+02  0.29553143618E+01 -0.52409157449E+02  0.16192968497E+03  0.12509112326E+03 0.  0.
         24    2    1    2    0    0 -0.94180270746E+02 -0.55611060013E+02  0.68403323806E+03  0.69745460294E+03  0.81110658950E+02 0.  0.
        -13    1    5    5    0    0 -0.25341761937E+02  0.13001014596E+02  0.29862655526E+03  0.29998175075E+03  0.00000000000E+00 0.  1.
         14    1    5    5    0    0 -0.68838508809E+02 -0.68612074609E+02  0.38540668281E+03  0.39747285219E+03  0.00000000000E+00 0. -1.
         13    1    3    3    0    0  0.14404354777E+01  0.45875677461E+02 -0.22714665900E+03  0.23173747503E+03  0.00000000000E+00 0. -1.
        -14    1    3    3    0    0  0.43204929999E+01  0.67800681905E+01  0.52367674515E+01  0.95947755456E+01  0.00000000000E+00 0.  1.
          5    1    4    4  501    0  0.11514975235E+03  0.66950487580E+01 -0.16164521550E+02  0.11654635688E+03  0.41800000000E+01 0.  1.
         -5    1    4    4    0  501 -0.26730410086E+02 -0.37397343963E+01 -0.36244635899E+02  0.45383328086E+02  0.41800000000E+01 0.  1.
</event>
<event>
11    1  0.8453735E-009  0.1897289E+03  0.7561462E-02  0.1062034E+00
         22   -1    0    0    0    0  0.00000000000E+00  0.00000000000E+00  0.15588671000E+04  0.15588671000E+04  0.00000000000E+00 0. -1.
         22   -1    0    0    0    0 -0.00000000000E+00 -0.00000000000E+00 -0.17529598561E+03  0.17529598561E+03  0.00000000000E+00 0. -1.
         24    2    1    2    0    0  0.39528627767E+02 -0.44331722926E+02 -0.13368053899E+03  0.16715309394E+03  0.80881742297E+02 0.  0.
         25    2    1    2    0    0 -0.14665808082E+03  0.11250468263E+03  0.67042572481E+03  0.70660051862E+03  0.12509094345E+03 0.  0.
        -24    2    1    2    0    0  0.10712945306E+03 -0.68172959705E+02  0.84682592852E+03  0.86040947301E+03  0.84059716161E+02 0.  0.
        -13    1    3    3    0    0 -0.10885225275E+02 -0.43009062576E+02 -0.35660510975E+02  0.56920467636E+02  0.00000000000E+00 0.  1.
         14    1    3    3    0    0  0.50413853042E+02 -0.13226603501E+01 -0.98020028016E+02  0.11023262630E+03  0.00000000000E+00 0. -1.
         11    1    5    5    0    0  0.11110943471E+03 -0.78088827327E+02  0.69107213806E+03  0.70428962185E+03  0.00000000000E+00 0. -1.
        -12    1    5    5    0    0 -0.39799816539E+01  0.99158676225E+01  0.15575379046E+03  0.15611985117E+03  0.00000000000E+00 0.  1.
          5    1    4    4  501    0 -0.75252167238E+02  0.12812260469E+03  0.48407681230E+03  0.50638535041E+03  0.41800000000E+01 0.  1.
         -5    1    4    4    0  501 -0.71405913585E+02 -0.15617922057E+02  0.18634891252E+03  0.20021516821E+03  0.41800000000E+01 0.  1.
</event>
<event>
11    1  0.8453735E-009  0.1264174E+03  0.7561462E-02  0.1123751E+00
         22   -1    0    0    0    0  0.00000000000E+00  0.00000000000E+00  0.25022763450E+03  0.25022763450E+03  0.00000000000E+00 0. -1.
         22   -1    0    0    0    0 -0.00000000000E+00 -0.00000000000E+00 -0.13177072789E+04  0.13177072789E+04  0.00000000000E+00 0.  1.
         24    2    1    2    0    0  0.16157183461E+02 -0.24475434917E+02 -0.10952988826E+04  0.10986474769E+04  0.80539027385E+02 0.  0.
         25    2    1    2    0    0  0.27012607121E+01  0.21245957945E+02 -0.19205984644E+03  0.23020150418E+03  0.12508821037E+03 0.  0.
        -24    2    1    2    0    0 -0.18858444173E+02  0.32294769724E+01  0.21987908459E+03  0.23908593229E+03  0.91919534041E+02 0.  0.
        -13    1    3    3    0    0 -0.22672684898E+02 -0.29512459074E+02 -0.78592294892E+03  0.78680360797E+03  0.00000000000E+00 0.  1.
         14    1    3    3    0    0  0.38829868360E+02  0.50370241562E+01 -0.30937593366E+03  0.31184386898E+03  0.00000000000E+00 0. -1.
         13    1    5    5    0    0  0.13847819005E+02  0.35558394987E+02  0.48882575835E+02  0.62013448264E+02  0.00000000000E+00 0. -1.
        -14    1    5    5    0    0 -0.32706263179E+02 -0.32328918015E+02  0.17099650876E+03  0.17707248403E+03  0.00000000000E+00 0.  1.
          5    1    4    4  501    0 -0.21267485075E+02 -0.13162498406E+02  0.73385583297E+01  0.26398562917E+02  0.41800000000E+01 0. -1.
         -5    1    4    4    0  501  0.23968745787E+02  0.34408456351E+02 -0.19939840477E+03  0.20380294126E+03  0.41800000000E+01 0. -1.
</event>
<event>
11    1  0.8453735E-009  0.1886043E+03  0.7561462E-02  0.1062888E+00
         22   -1    0    0    0    0  0.00000000000E+00  0.00000000000E+00  0.38681842162E+02  0.38681842162E+02  0.00000000000E+00 0. -1.
         22   -1    0    0    0    0 -0.00000000000E+00 -0.00000000000E+00 -0.14985213352E+04  0.14985213352E+04  0.00000000000E+00 0. -1.
        -24    2    1    2    0    0 -0.55225319261E+02 -0.54826970281E+02 -0.48806307464E+03  0.50081275592E+03  0.80944543392E+02 0.  0.
         25    2    1    2    0    0 -0.86990625230E+02 -0.49621087540E+02 -0.53056836880E+03  0.55423607036E+03  0.12508079994E+03 0.  0.
         24    2    1    2    0    0  0.14221594449E+03  0.10444805782E+03 -0.44120804956E+03  0.48215435105E+03  0.81691514766E+02 0.  0.
        -11    1    5    5    0    0  0.55153854901E+02  0.47827002706E+02 -0.28768576661E+03  0.29680375707E+03  0.00000000000E+00 0.  1.
         12    1    5    5    0    0  0.87062089589E+02  0.56621055116E+02 -0.15352228295E+03  0.18535059398E+03  0.00000000000E+00 0. -1.
         13    1    3    3    0    0 -0.55026817822E+02  0.16040430696E+01 -0.27094525215E+03  0.27648119881E+03  0.00000000000E+00 0. -1.
        -14    1    3    3    0    0 -0.19850143833E+00 -0.56431013351E+02 -0.21711782249E+03  0.22433155711E+03  0.00000000000E+00 0.  1.
          5    1    4    4  501    0 -0.11126267716E+03 -0.18948704354E+02 -0.45768869474E+03  0.47141791483E+03  0.41800000000E+01 0. -1.
         -5    1    4    4    0  501  0.24272051933E+02 -0.30672383186E+02 -0.72879674060E+02  0.82818155536E+02  0.41800000000E+01 0. -1.
</event>
<event>
11    1  0.8453735E-009  0.1781941E+03  0.7561462E-02  0.1071113E+00
         22   -1    0    0    0    0  0.00000000000E+00  0.00000000000E+00  0.79903049429E+03  0.79903049429E+03  0.00000000000E+00 0.  1.
         22   -1    0    0    0    0 -0.00000000000E+00 -0.00000000000E+00 -0.38558416008E+03  0.38558416008E+03  0.00000000000E+00 0.  1.
         24    2    1    2    0    0  0.48167903591E+02 -0.11550525657E+03 -0.21492293011E+03  0.26125578816E+03  0.80006935502E+02 0.  0.
         25    2    1    2    0    0 -0.71776905079E+02  0.11164700354E+03 -0.87374400723E+02  0.20223244833E+03  0.12508676890E+03 0.  0.
        -24    2    1    2    0    0  0.23609001488E+02  0.38582530348E+01  0.71574366505E+03  0.72112641787E+03  0.84628868776E+02 0.  0.
        -13    1    3    3    0    0  0.58279028871E+02 -0.12161019809E+03 -0.18378231835E+03  0.22795049030E+03  0.00000000000E+00 0.  1.
         14    1    3    3    0    0 -0.10111125280E+02  0.61049415204E+01 -0.31140611756E+02  0.33305297866E+02  0.00000000000E+00 0. -1.
         13    1    5    5    0    0  0.14108268534E+02 -0.40310443730E+02  0.33473713593E+03  0.33745062644E+03  0.00000000000E+00 0. -1.
        -14    1    5    5    0    0  0.95007329541E+01  0.44168696764E+02  0.38100652912E+03  0.38367579143E+03  0.00000000000E+00 0.  1.
          5    1    4    4  501    0 -0.92075865433E+01 -0.50311295279E+01  0.25699553475E+02  0.28071896322E+02  0.41800000000E+01 0. -1.
         -5    1    4    4    0  501 -0.62569318535E+02  0.11667813307E+03 -0.11307395420E+03  0.17416055201E+03  0.41800000000E+01 0. -1.
</event>
<event>
11    1  0.8453735E-009  0.2590754E+03  0.7561462E-02  0.1019173E+00
         22   -1    0    0    0    0  0.00000000000E+00  0.00000000000E+00  0.52150955913E+03  0.52150955913E+03  0.00000000000E+00 0.  1.
         22   -1    0    0    0    0 -0.00000000000E+00 -0.00000000000E+00 -0.21811368141E+04  0.21811368141E+04  0.00000000000E+00 0. -1.
        -24    2    1    2    0    0  0.16926497448E+03  0.12102157071E+03 -0.83056393826E+03  0.86064705961E+03  0.87063502782E+02 0.  0.
         25    2    1    2    0    0 -0.19200372466E+03 -0.15173878559E+03 -0.13172858906E+04  0.13456522442E+04  0.12509098850E+03 0.  0.
         24    2    1    2    0    0  0.22738750176E+02  0.30717214880E+02  0.48822257386E+03  0.49634706945E+03  0.80861200047E+02 0.  0.
        -11    1    5    5    0    0  0.24498321086E+02  0.47075792414E+02  0.46423973709E+03  0.46726312872E+03  0.00000000000E+00 0.  1.
         12    1    5    5    0    0 -0.17595709092E+01 -0.16358577534E+02  0.23982836770E+02  0.29083940728E+02  0.00000000000E+00 0. -1.
         13    1    3    3    0    0  0.79574388502E+02  0.78226332891E+02 -0.58836546774E+03  0.59885337612E+03  0.00000000000E+00 0. -1.
        -14    1    3    3    0    0  0.89690585977E+02  0.42795237823E+02 -0.24219847052E+03  0.26179368349E+03  0.00000000000E+00 0.  1.
          5    1    4    4  501    0 -0.10513977486E+02 -0.70461478384E+02 -0.24979589081E+03  0.25978995963E+03  0.41800000000E+01 0. -1.
         -5    1    4    4    0  501 -0.18148974717E+03 -0.81277307211E+02 -0.10674899997E+04  0.10858622845E+04  0.41800000000E+01 0. -1.
</event>
<event>
11    1  0.8453735E-009  0.1385379E+03  0.7561462E-02  0.1109202E+00
         22   -1    0    0    0    0  0.00000000000E+00  0.00000000000E+00  0.83498696163E+03  0.83498696163E+03  0.00000000000E+00 0.  1.
         22   -1    0    0    0    0 -0.00000000000E+00 -0.00000000000E+00 -0.48177709464E+03  0.48177709464E+03  0.00000000000E+00 0.  1.
         24    2    1    2    0    0 -0.26998398104E+02 -0.32802612404E+02 -0.44967797720E+03  0.45842490109E+03  0.78346549876E+02 0.  0.
         25    2    1    2    0    0  0.43387836755E+02  0.83703657854E+02  0.23750910221E+03  0.28451202681E+03  0.12509081921E+03 0.  0.
        -24    2    1    2    0    0 -0.16389438652E+02 -0.50901045450E+02  0.56537874199E+03  0.57382712837E+03  0.82249141225E+02 0.  0.
        -11    1    3    3    0    0 -0.24651735641E+02 -0.56923194639E+02 -0.26499193141E+03  0.27215562068E+03  0.00000000000E+00 0.  1.
         12    1    3    3    0    0 -0.23466624622E+01  0.24120582234E+02 -0.18468604580E+03  0.18626928041E+03  0.00000000000E+00 0. -1.
         13    1    5    5    0    0  0.66791388956E+01  0.21002710352E+02  0.10399823674E+03  0.10630784535E+03  0.00000000000E+00 0. -1.
        -14    1    5    5    0    0 -0.23068577547E+02 -0.71903755802E+02  0.46138050525E+03  0.46751928302E+03  0.00000000000E+00 0.  1.
          5    1    4    4  501    0 -0.63604227094E+01  0.19409307786E+02  0.18817862261E+03  0.18932998340E+03  0.41800000000E+01 0. -1.
         -5    1    4    4    0  501  0.49748259465E+02  0.64294350067E+02  0.49330479592E+02  0.95182043407E+02  0.41800000000E+01 0. -1.
</event>
<event>
11    1  0.8453735E-009  0.2611024E+03  0.7561462E-02  0.1018146E+00
         22   -1    0    0    0    0  0.00000000000E+00  0.00000000000E+00  0.22651655935E+03  0.22651655935E+03  0.00000000000E+00 0.  1.
         22   -1    0    0    0    0 -0.00000000000E+00 -0.00000000000E+00 -0.58405845986E+03  0.58405845986E+03  0.00000000000E+00 0.  1.
        -24    2    1    2    0    0  0.96486889508E+01 -0.69444795729E+02 -0.19475017274E+03  0.22200967491E+03  0.80280689586E+02 0.  0.
         25    2    1    2    0    0  0.22206865124E+03  0.49661713990E+02 -0.21609829328E+03  0.33782685107E+03  0.12509091594E+03 0.  0.
         24    2    1    2    0    0 -0.23171734019E+03  0.19783081739E+02  0.53306565503E+02  0.25073849322E+03  0.77096731399E+02 0.  0.
        -11    1    5    5    0    0 -0.20592446145E+03  0.66617475216E+01  0.20587733949E+02  0.20705824662E+03  0.00000000000E+00 0.  1.
         12    1    5    5    0    0 -0.25792878733E+02  0.13121334218E+02  0.32718831554E+02  0.43680246602E+02  0.00000000000E+00 0. -1.
         11    1    3    3    0    0 -0.32458695785E+02 -0.25836445034E+02 -0.49299688287E+02  0.64432508016E+02  0.00000000000E+00 0. -1.
        -12    1    3    3    0    0  0.42107384736E+02 -0.43608350695E+02 -0.14545048445E+03  0.15757716689E+03  0.00000000000E+00 0.  1.
          5    1    4    4  501    0  0.14196491979E+03 -0.29883868328E+02 -0.13973715661E+03  0.20147215533E+03  0.41800000000E+01 0. -1.
         -5    1    4    4    0  501  0.80103731446E+02  0.79545582318E+02 -0.76361136669E+02  0.13635469574E+03  0.41800000000E+01 0. -1.
</event>
<event>
11    1  0.8453735E-009  0.1331619E+03  0.7561462E-02  0.1115444E+00
         22   -1    0    0    0    0  0.00000000000E+00  0.00000000000E+00  0.32348058013E+03  0.32348058013E+03  0.00000000000E+00 0.  1.
         22   -1    0    0    0    0 -0.00000000000E+00 -0.00000000000E+00 -0.24621426540E+03  0.24621426540E+03  0.00000000000E+00 0.  1.
         24    2    1    2    0    0  0.35060802450E+02 -0.32636042011E+02 -0.19196597587E+03  0.21309602513E+03  0.79149282546E+02 0.  0.
         25    2    1    2    0    0 -0.27285994911E+02 -0.29289580104E+00  0.86766286690E+02  0.15466139148E+03  0.12508855344E+03 0.  0.
        -24    2    1    2    0    0 -0.77748075395E+01  0.32928937812E+02  0.18246600392E+03  0.20193742892E+03  0.79624870723E+02 0.  0.
        -13    1    3    3    0    0  0.43425246159E+02 -0.20365867262E+01 -0.16745959799E+03  0.17301045242E+03  0.00000000000E+00 0.  1.
         14    1    3    3    0    0 -0.83644437092E+01 -0.30599455284E+02 -0.24506377883E+02  0.40085572707E+02  0.00000000000E+00 0. -1.
         11    1    5    5    0    0 -0.29910947815E+02  0.15441428883E+02  0.24910786084E+02  0.41876601921E+02  0.00000000000E+00 0. -1.
        -12    1    5    5    0    0  0.22136140276E+02  0.17487508929E+02  0.15755521783E+03  0.16006082700E+03  0.00000000000E+00 0.  1.
          5    1    4    4  501    0 -0.46005902246E+02 -0.53774064928E+02  0.42695881869E+02  0.82756291778E+02  0.41800000000E+01 0.  1.
         -5    1    4    4    0  501  0.18719907335E+02  0.53481169127E+02  0.44070404821E+02  0.71905099700E+02  0.41800000000E+01 0.  1.
</event>
<event>
11    1  0.8453735E-009  0.1417637E+03  0.7561462E-02  0.1105605E+00
         22   -1    0    0    0    0  0.00000000000E+00  0.00000000000E+00  0.19586626181E+03  0.19586626181E+03  0.00000000000E+00 0.  1.
         22   -1    0    0    0    0 -0.00000000000E+00 -0.00000000000E+00 -0.10104291515E+04  0.10104291515E+04  0.00000000000E+00 0. -1.
        -24    2    1    2    0    0 -0.28652426379E+02  0.42101403166E+02 -0.86544579052E+03  0.87057370745E+03  0.79427162135E+02 0.  0.
         25    2    1    2    0    0 -0.24658146471E+02 -0.81398798564E+02 -0.77981460233E+02  0.17014620095E+03  0.12503932567E+03 0.  0.
         24    2    1    2    0    0  0.53310572849E+02  0.39297395397E+02  0.12886436104E+03  0.16557550494E+03  0.80143133381E+02 0.  0.
        -11    1    5    5    0    0  0.21928179475E+02  0.54576269076E+02  0.11266860170E+03  0.12709692369E+03  0.00000000000E+00 0.  1.
         12    1    5    5    0    0  0.31382393374E+02 -0.15278873679E+02  0.16195759336E+02  0.38478581253E+02  0.00000000000E+00 0. -1.
         11    1    3    3    0    0 -0.72907682256E+01  0.52770367464E+02 -0.78106482741E+03  0.78287938510E+03  0.00000000000E+00 0. -1.
        -12    1    3    3    0    0 -0.21361658153E+02 -0.10668964297E+02 -0.84380963106E+02  0.87694322353E+02  0.00000000000E+00 0.  1.
          5    1    4    4  501    0 -0.54001594373E+01 -0.90057222117E+02 -0.11147610928E+01  0.90322644280E+02  0.41800000000E+01 0.  1.
         -5    1    4    4    0  501 -0.19257987033E+02  0.86584235537E+01 -0.76866699140E+02  0.79823556672E+02  0.41800000000E+01 0.  1.
</event>
<event>
11    1  0.8453735E-009  0.1407943E+03  0.7561462E-02  0.1106675E+00
         22   -1    0    0    0    0  0.00000000000E+00  0.00000000000E+00  0.11395132017E+04  0.11395132017E+04  0.00000000000E+00 0. -1.
         22   -1    0    0    0    0 -0.00000000000E+00 -0.00000000000E+00 -0.13244575336E+03  0.13244575336E+03  0.00000000000E+00 0.  1.
        -24    2    1    2    0    0 -0.10761381124E+02 -0.65304234547E+02 -0.99617189748E+02  0.13891668416E+03  0.70666896568E+02 0.  0.
         25    2    1    2    0    0  0.21574907371E+02  0.28935412340E+02  0.39690236713E+03  0.41771000487E+03  0.12508966552E+03 0.  0.
         24    2    1    2    0    0 -0.10813526247E+02  0.36368822207E+02  0.70978227099E+03  0.71533226607E+03  0.80434787854E+02 0.  0.
        -11    1    5    5    0    0 -0.28209324041E+02  0.17400211541E+02  0.10734293882E+03  0.11234340141E+03  0.00000000000E+00 0.  1.
         12    1    5    5    0    0  0.17395797794E+02  0.18968610666E+02  0.60243933216E+03  0.60298886467E+03  0.00000000000E+00 0. -1.
         13    1    3    3    0    0 -0.36035710011E+01 -0.10443220702E+02  0.10777700431E+02  0.15433904534E+02  0.00000000000E+00 0. -1.
        -14    1    3    3    0    0 -0.71578101227E+01 -0.54861013845E+02 -0.11039489018E+03  0.12348277962E+03  0.00000000000E+00 0.  1.
          5    1    4    4  501    0 -0.36582844473E+02  0.35333984765E+02  0.76347633048E+02  0.91832611099E+02  0.41800000000E+01 0. -1.
         -5    1    4    4    0  501  0.58157751844E+02 -0.63985724251E+01  0.32055473408E+03  0.32587739377E+03  0.41800000000E+01 0. -1.
</event>
<event>
11    1  0.8453735E-009  0.1422591E+03  0.7561462E-02  0.1105062E+00
         22   -1    0    0    0    0  0.00000000000E+00  0.00000000000E+00  0.14466482080E+04  0.14466482080E+04  0.00000000000E+00 0. -1.
         22   -1    0    0    0    0 -0.00000000000E+00 -0.00000000000E+00 -0.64069866839E+03  0.64069866839E+03  0.00000000000E+00 0. -1.
         24    2    1    2    0    0  0.33286005901E+02 -0.58790690313E+02 -0.62346604271E+03  0.63213706318E+03  0.79517650694E+02 0.  0.
         25    2    1    2    0    0 -0.74546303097E+02  0.66381406884E+02  0.60116166480E+03  0.62209856717E+03  0.12509051750E+03 0.  0.
        -24    2    1    2    0    0  0.41260297195E+02 -0.75907165717E+01  0.82825391750E+03  0.83311124602E+03  0.79434031049E+02 0.  0.
        -11    1    3    3    0    0 -0.12885005970E+02 -0.90755693992E+01 -0.23188909203E+02  0.28037739724E+02  0.00000000000E+00 0.  1.
         12    1    3    3    0    0  0.46171011871E+02 -0.49715120913E+02 -0.60027713351E+03  0.60409932346E+03  0.00000000000E+00 0. -1.
         11    1    5    5    0    0  0.10866370298E+02 -0.21620448405E+02  0.70432931060E+03  0.70474484713E+03  0.00000000000E+00 0. -1.
        -12    1    5    5    0    0  0.30393926897E+02  0.14029731833E+02  0.12392460690E+03  0.12836639889E+03  0.00000000000E+00 0.  1.
          5    1    4    4  501    0  0.60043343251E+01  0.51022069748E+02  0.42057616979E+03  0.42372289367E+03  0.41800000000E+01 0.  1.
         -5    1    4    4    0  501 -0.80550637422E+02  0.15359337137E+02  0.18058549501E+03  0.19837567350E+03  0.41800000000E+01 0.  1.
</event>
<event>
11    1  0.8453735E-009  0.1314126E+03  0.7561462E-02  0.1117545E+00
         22   -1    0    0    0    0  0.00000000000E+00  0.00000000000E+00  0.29407349910E+03  0.29407349910E+03  0.00000000000E+00 0. -1.
         22   -1    0    0    0    0 -0.00000000000E+00 -0.00000000000E+00 -0.20132758633E+04  0.20132758633E+04  0.00000000000E+00 0. -1.
         24    2    1    2    0    0  0.35697587886E+02 -0.17805644795E+02 -0.19040817741E+04  0.19062069462E+04  0.80660773979E+02 0.  0.
         25    2    1    2    0    0 -0.42670093652E+02  0.42573823860E+02 -0.52457288608E+02  0.14843429659E+03  0.12509079065E+03 0.  0.
        -24    2    1    2    0    0  0.69725057662E+01 -0.24768179064E+02  0.23733669859E+03  0.25270811956E+03  0.82889122702E+02 0.  0.
        -13    1    3    3    0    0  0.65255299748E+01  0.30372293614E+02 -0.47427274986E+03  0.47528906995E+03  0.00000000000E+00 0.  1.
         14    1    3    3    0    0  0.29172057911E+02 -0.48177938410E+02 -0.14298090243E+04  0.14309178763E+04  0.00000000000E+00 0. -1.
         11    1    5    5    0    0  0.10972095039E+02  0.29474384225E+02  0.10563602650E+03  0.11021840268E+03  0.00000000000E+00 0. -1.
        -12    1    5    5    0    0 -0.39995892725E+01 -0.54242563290E+02  0.13170067209E+03  0.14248971688E+03  0.00000000000E+00 0.  1.
          5    1    4    4  501    0 -0.19504271197E+02  0.41738168243E+02 -0.91675727144E+02  0.10268594174E+03  0.41800000000E+01 0.  1.
         -5    1    4    4    0  501 -0.23165822455E+02  0.83565561665E+00  0.39218438536E+02  0.45748354851E+02  0.41800000000E+01 0.  1.
</event>
<event>
11    1  0.8453735E-009  0.2859785E+03  0.7561462E-02  0.1006306E+00
         22   -1    0    0    0    0  0.00000000000E+00  0.00000000000E+00  0.27655358548E+03  0.27655358548E+03  0.00000000000E+00 0.  1.
         22   -1    0    0    0    0 -0.00000000000E+00 -0.00000000000E+00 -0.58305495667E+03  0.58305495667E+03  0.00000000000E+00 0.  1.
         24    2    1    2    0    0  0.85107042870E+02  0.22918433572E+02 -0.16408223149E+03  0.20370191335E+03  0.82480467192E+02 0.  0.
         25    2    1    2    0    0 -0.31046964556E+03 -0.90892501860E+02 -0.20039775190E+03  0.40057345025E+03  0.12508789857E+03 0.  0.
        -24    2    1    2    0    0  0.22536260269E+03  0.67974068288E+02  0.57978612186E+02  0.25533317855E+03  0.80154450579E+02 0.  0.
        -13    1    3    3    0    0  0.23722330009E+02 -0.28511874258E+02 -0.30799090957E+02  0.48210578907E+02  0.00000000000E+00 0.  1.
         14    1    3    3    0    0  0.61384712861E+02  0.51430307830E+02 -0.13328314053E+03  0.15549133444E+03  0.00000000000E+00 0. -1.
         11    1    5    5    0    0  0.79519192125E+02  0.41777618797E+02  0.58425474623E+02  0.10715506257E+03  0.00000000000E+00 0. -1.
        -12    1    5    5    0    0  0.14584341057E+03  0.26196449491E+02 -0.44686243643E+00  0.14817811599E+03  0.00000000000E+00 0.  1.
          5    1    4    4  501    0 -0.11947849624E+01  0.15707420225E+02 -0.23657258578E+02  0.28727840933E+02  0.41800000000E+01 0.  1.
         -5    1    4    4    0  501 -0.30927486060E+03 -0.10659992209E+03 -0.17674049332E+03  0.37184560932E+03  0.41800000000E+01 0.  1.
</event>
<event>
11    1  0.8453735E-009  0.2720471E+03  0.7561462E-02  0.1012769E+00
         22   -1    0    0    0    0  0.00000000000E+00  0.00000000000E+00  0.13607642971E+04  0.13607642971E+04  0.00000000000E+00 0.  1.
         22   -1    0    0    0    0 -0.00000000000E+00 -0.00000000000E+00 -0.26735947032E+03  0.26735947032E+03  0.00000000000E+00 0.  1.
         24    2    1    2    0    0 -0.96022967498E+02  0.14417963339E+03 -0.68669361029E+02  0.20300351701E+03  0.80540485481E+02 0.  0.
         25    2    1    2    0    0  0.26126329429E+03 -0.29292469290E+03  0.24780331757E+03  0.48074600687E+03  0.12508738651E+03 0.  0.
        -24    2    1    2    0    0 -0.16524032680E+03  0.14874505951E+03  0.91427087026E+03  0.94437424356E+03  0.80759082262E+02 0.  0.
        -13    1    3    3    0    0 -0.56821787252E+02  0.11035378997E+03 -0.96605557681E+01  0.12449899922E+03  0.00000000000E+00 0.  1.
         14    1    3    3    0    0 -0.39201180246E+02  0.33825843422E+02 -0.59008805261E+02  0.78504517795E+02  0.00000000000E+00 0. -1.
         11    1    5    5    0    0 -0.23936568037E+02 -0.81856169627E+01  0.90903637052E+02  0.94358014200E+02  0.00000000000E+00 0. -1.
        -12    1    5    5    0    0 -0.14130375876E+03  0.15693067647E+03  0.82336723321E+03  0.85001622936E+03  0.00000000000E+00 0.  1.
          5    1    4    4  501    0  0.18673749907E+03 -0.16740372650E+03  0.91904629992E+02  0.26713074442E+03  0.41800000000E+01 0. -1.
         -5    1    4    4    0  501  0.74525795229E+02 -0.12552096641E+03  0.15589868757E+03  0.21361526244E+03  0.41800000000E+01 0. -1.
</event>
<event>
11    1  0.8453735E-009  0.1882454E+03  0.7561462E-02  0.1063162E+00
         22   -1    0    0    0    0  0.00000000000E+00  0.00000000000E+00  0.56311284087E+03  0.56311284087E+03  0.00000000000E+00 0.  1.
         22   -1    0    0    0    0 -0.00000000000E+00 -0.00000000000E+00 -0.36055278686E+03  0.36055278686E+03  0.00000000000E+00 0. -1.
         24    2    1    2    0    0  0.81194244002E+01 -0.14715027948E+02 -0.28901116244E+03  0.30060543233E+03  0.80955029682E+02 0.  0.
         25    2    1    2    0    0  0.84497236565E+02  0.11851894750E+03  0.14344229566E+03  0.23960029972E+03  0.12508432172E+03 0.  0.
        -24    2    1    2    0    0 -0.92616660965E+02 -0.10380391955E+03  0.34812892079E+03  0.38345989568E+03  0.80589369677E+02 0.  0.
        -13    1    3    3    0    0  0.54330004485E+01 -0.25601125646E+01  0.40731539301E+01  0.72568762670E+01  0.00000000000E+00 0.  1.
         14    1    3    3    0    0  0.26864239517E+01 -0.12154915383E+02 -0.29308431637E+03  0.29334855606E+03  0.00000000000E+00 0. -1.
         11    1    5    5    0    0 -0.11580780090E+01  0.11989337165E+02  0.15987863246E+02  0.20017420451E+02  0.00000000000E+00 0. -1.
        -12    1    5    5    0    0 -0.91458582956E+02 -0.11579325672E+03  0.33214105754E+03  0.36344247523E+03  0.00000000000E+00 0.  1.
          5    1    4    4  501    0 -0.31856629401E+02  0.29455988263E+02  0.47168133330E+02  0.64224647007E+02  0.41800000000E+01 0. -1.
         -5    1    4    4    0  501  0.11635386597E+03  0.89062959235E+02  0.96274162330E+02  0.17537565272E+03  0.41800000000E+01 0. -1.
</event>
<event>
11    1  0.8453735E-009  0.1820889E+03  0.7561462E-02  0.1067966E+00
         22   -1    0    0    0    0  0.00000000000E+00  0.00000000000E+00  0.19939734713E+04  0.19939734713E+04  0.00000000000E+00 0.  1.
         22   -1    0    0    0    0 -0.00000000000E+00 -0.00000000000E+00 -0.12853246801E+04  0.12853246801E+04  0.00000000000E+00 0.  1.
         24    2    1    2    0    0  0.12498452612E+03  0.39805186702E+02 -0.12260890602E+04  0.12355535738E+04  0.78055528244E+02 0.  0.
         25    2    1    2    0    0 -0.17405944148E+03 -0.10131631552E+03  0.21278511136E+03  0.31857135150E+03  0.12509403432E+03 0.  0.
        -24    2    1    2    0    0  0.49074915358E+02  0.61511128820E+02  0.17219527400E+04  0.17251732261E+04  0.70067503009E+02 0.  0.
        -11    1    3    3    0    0  0.10970568477E+03  0.60602017984E+02 -0.94333263501E+03  0.95162198489E+03  0.00000000000E+00 0.  1.
         12    1    3    3    0    0  0.15278841351E+02 -0.20796831282E+02 -0.28275642521E+03  0.28393158891E+03  0.00000000000E+00 0. -1.
         11    1    5    5    0    0  0.27483996394E+02  0.30530610524E+00  0.20521148480E+03  0.20704399717E+03  0.00000000000E+00 0. -1.
        -12    1    5    5    0    0  0.21590918965E+02  0.61205822715E+02  0.15167412552E+04  0.15181292289E+04  0.00000000000E+00 0.  1.
          5    1    4    4  501    0 -0.36483151807E+02 -0.84037619697E+02  0.12262398063E+03  0.15312561809E+03  0.41800000000E+01 0.  1.
         -5    1    4    4    0  501 -0.13757628967E+03 -0.17278695825E+02  0.90161130735E+02  0.16544573341E+03  0.41800000000E+01 0.  1.
</event>
<event>
11    1  0.8453735E-009  0.1818269E+03  0.7561462E-02  0.1068175E+00
         22   -1    0    0    0    0  0.00000000000E+00  0.00000000000E+00  0.40662548541E+02  0.40662548541E+02  0.00000000000E+00 0. -1.
         22   -1    0    0    0    0 -0.00000000000E+00 -0.00000000000E+00 -0.22059008742E+04  0.22059008742E+04  0.00000000000E+00 0. -1.
        -24    2    1    2    0    0  0.11743373717E+03 -0.59003974693E+02 -0.16190393712E+04  0.16262718138E+04  0.78736111553E+02 0.  0.
         25    2    1    2    0    0 -0.10235399974E+03  0.94244058898E+02 -0.45616402612E+03  0.49304373834E+03  0.12509286666E+03 0.  0.
         24    2    1    2    0    0 -0.15079737427E+02 -0.35240084205E+02 -0.90034928352E+02  0.12724787060E+03  0.81341688160E+02 0.  0.
        -13    1    5    5    0    0  0.38372389876E+01  0.15112624117E+01 -0.85574403134E+02  0.85673722861E+02  0.00000000000E+00 0.  1.
         14    1    5    5    0    0 -0.18916976414E+02 -0.36751346617E+02 -0.44605252178E+01  0.41574147737E+02  0.00000000000E+00 0. -1.
         11    1    3    3    0    0  0.30845600698E+02 -0.37339880625E+02 -0.95931447964E+03  0.96053630260E+03  0.00000000000E+00 0. -1.
        -12    1    3    3    0    0  0.86588136468E+02 -0.21664094068E+02 -0.65972489155E+03  0.66573551120E+03  0.00000000000E+00 0.  1.
          5    1    4    4  501    0 -0.36681914205E+02  0.10644789683E+03 -0.34862815005E+03  0.36638200963E+03  0.41800000000E+01 0. -1.
         -5    1    4    4    0  501 -0.65672085534E+02 -0.12203837933E+02 -0.10753587607E+03  0.12666172871E+03  0.41800000000E+01 0. -1.
</event>
<event>
11    1  0.8453735E-009  0.1432166E+03  0.7561462E-02  0.1104019E+00
         22   -1    0    0    0    0  0.00000000000E+00  0.00000000000E+00  0.47724895148E+03  0.47724895148E+03  0.00000000000E+00 0. -1.
         22   -1    0    0    0    0 -0.00000000000E+00 -0.00000000000E+00 -0.17503615871E+04  0.17503615871E+04  0.00000000000E+00 0.  1.
         24    2    1    2    0    0 -0.29451685089E+02  0.32322167966E+02 -0.16891808358E+04  0.16917216938E+04  0.81720676264E+02 0.  0.
         25    2    1    2    0    0  0.21715730279E+02  0.41412543523E+02  0.32978897891E+02  0.13755687261E+03  0.12509082218E+03 0.  0.
        -24    2    1    2    0    0  0.77359548100E+01 -0.73734711489E+02  0.38308930227E+03  0.39833197219E+03  0.80089286923E+02 0.  0.
        -13    1    3    3    0    0 -0.33849775341E+02  0.57694219119E+02 -0.12423387422E+04  0.12441382482E+04  0.00000000000E+00 0.  1.
         14    1    3    3    0    0  0.43980902522E+01 -0.25372051153E+02 -0.44684209355E+03  0.44758344557E+03  0.00000000000E+00 0. -1.
         11    1    5    5    0    0 -0.25445032249E+02 -0.71485544844E+02  0.26553054850E+03  0.27615956434E+03  0.00000000000E+00 0. -1.
        -12    1    5    5    0    0  0.33180987059E+02 -0.22491666447E+01  0.11755875377E+03  0.12217240785E+03  0.00000000000E+00 0.  1.
          5    1    4    4  501    0  0.36526300288E+02  0.29149396129E+02  0.76529602339E+02  0.89766978013E+02  0.41800000000E+01 0.  1.
         -5    1    4    4    0  501 -0.14810570009E+02  0.12263147394E+02 -0.43550704448E+02  0.47789894601E+02  0.41800000000E+01 0.  1.
</event>
<event>
11    1  0.8453735E-009  0.1486674E+03  0.7561462E-02  0.1098248E+00
         22   -1    0    0    0    0  0.00000000000E+00  0.00000000000E+00  0.15451179180E+04  0.15451179180E+04  0.00000000000E+00 0. -1.
         22   -1    0    0    0    0 -0.00000000000E+00 -0.00000000000E+00 -0.73654707953E+02  0.73654707953E+02  0.00000000000E+00 0. -1.
         24    2    1    2    0    0  0.79318006905E+02 -0.12889631489E+02  0.15061679997E+02  0.10621758979E+03  0.67807325241E+02 0.  0.
         25    2    1    2    0    0 -0.83862885706E+02 -0.33295018230E+02  0.20061949947E+03  0.25305623271E+03  0.12509089300E+03 0.  0.
        -24    2    1    2    0    0  0.45448788014E+01  0.46184649719E+02  0.12557820306E+04  0.12594988035E+04  0.84823639208E+02 0.  0.
        -13    1    3    3    0    0 -0.10439778506E+02  0.71820413619E+01  0.52677826945E+01  0.13722981742E+02  0.00000000000E+00 0.  1.
         14    1    3    3    0    0  0.89757785411E+02 -0.20071672851E+02  0.97938973021E+01  0.92494608044E+02  0.00000000000E+00 0. -1.
         13    1    5    5    0    0  0.21351673884E+02  0.36190378816E+02  0.11930533597E+04  0.11937930962E+04  0.00000000000E+00 0. -1.
        -14    1    5    5    0    0 -0.16806795083E+02  0.99942709036E+01  0.62728670892E+02  0.65705707238E+02  0.00000000000E+00 0.  1.
          5    1    4    4  501    0 -0.53641493057E+02 -0.98223957918E+01  0.64089277467E+01  0.55067558429E+02  0.41800000000E+01 0. -1.
         -5    1    4    4    0  501 -0.30221392649E+02 -0.23472622439E+02  0.19421057172E+03  0.19798867429E+03  0.41800000000E+01 0. -1.
</event>
<event>
11    1  0.8453735E-009  0.2909032E+03  0.7561462E-02  0.1004116E+00
         22   -1    0    0    0    0  0.00000000000E+00  0.00000000000E+00  0.40706824673E+03  0.40706824673E+03  0.00000000000E+00 0.  1.
         22   -1    0    0    0    0 -0.00000000000E+00 -0.00000000000E+00 -0.88618401199E+03  0.88618401199E+03  0.00000000000E+00 0.  1.
         24    2    1    2    0    0 -0.54335224500E+02 -0.47478555319E+02 -0.41794095394E+02  0.11543493300E+03  0.79824479400E+02 0.  0.
         25    2    1    2    0    0  0.22082411997E+03  0.15204700194E+03 -0.74581402418E+03  0.80235118047E+03  0.12508906978E+03 0.  0.
        -24    2    1    2    0    0 -0.16648889547E+03 -0.10456844662E+03  0.30849235431E+03  0.37546614525E+03  0.84582393045E+02 0.  0.
        -13    1    3    3    0    0  0.18391466864E+02  0.31568018403E+01 -0.10758621731E+02  0.21539716637E+02  0.00000000000E+00 0.  1.
         14    1    3    3    0    0 -0.72726691363E+02 -0.50635357159E+02 -0.31035473663E+02  0.93895216368E+02  0.00000000000E+00 0. -1.
         13    1    5    5    0    0 -0.72498627902E+02 -0.39698865891E+02  0.20619965632E+03  0.22214938503E+03  0.00000000000E+00 0. -1.
        -14    1    5    5    0    0 -0.93990267571E+02 -0.64869580728E+02  0.10229269799E+03  0.15331676022E+03  0.00000000000E+00 0.  1.
          5    1    4    4  501    0  0.80327042168E+02  0.77967782126E+02 -0.47801541929E+03  0.49096600924E+03  0.41800000000E+01 0. -1.
         -5    1    4    4    0  501  0.14049707780E+03  0.74079219811E+02 -0.26779860489E+03  0.31138517123E+03  0.41800000000E+01 0. -1.
</event>
<event>
11    1  0.8453735E-009  0.9189155E+03  0.7561462E-02  0.8760208E-01
         22   -1    0    0    0    0  0.00000000000E+00  0.00000000000E+00  0.94075487248E+03  0.94075487248E+03  0.00000000000E+00 0. -1.
         22   -1    0    0    0    0 -0.00000000000E+00 -0.00000000000E+00 -0.22282745188E+04  0.22282745188E+04  0.00000000000E+00 0. -1.
        -24    2    1    2    0    0  0.83647598070E+03  0.28175403823E+03 -0.15757265089E+04  0.18078547654E+04  0.79670682529E+02 0.  0.
         25    2    1    2    0    0 -0.99034083631E+03 -0.31278464517E+03  0.26371825055E+02  0.10463997854E+04  0.12509129228E+03 0.  0.
         24    2    1    2    0    0  0.15386485560E+03  0.31030606940E+02  0.26183503751E+03  0.31477484049E+03  0.76735395881E+02 0.  0.
        -11    1    5    5    0    0  0.29685478561E+02  0.37761713437E+02  0.97483069467E+02  0.10867439198E+03  0.00000000000E+00 0.  1.
         12    1    5    5    0    0  0.12417937704E+03 -0.67311064973E+01  0.16435196804E+03  0.20610044851E+03  0.00000000000E+00 0. -1.
         11    1    3    3    0    0  0.83020637573E+03  0.28660526286E+03 -0.15601955146E+04  0.17904176180E+04  0.00000000000E+00 0. -1.
        -12    1    3    3    0    0  0.62696049713E+01 -0.48512246254E+01 -0.15530994325E+02  0.17437147462E+02  0.00000000000E+00 0.  1.
          5    1    4    4  501    0 -0.32386113560E+03 -0.71921430306E+02 -0.42017054773E+02  0.33442732033E+03  0.41800000000E+01 0. -1.
         -5    1    4    4    0  501 -0.66647970071E+03 -0.24086321487E+03  0.68388879827E+02  0.71197246507E+03  0.41800000000E+01 0. -1.
</event>
<event>
11    1  0.8453735E-009  0.1452518E+03  0.7561462E-02  0.1101832E+00
         22   -1    0    0    0    0  0.00000000000E+00  0.00000000000E+00  0.48391335709E+03  0.48391335709E+03  0.00000000000E+00 0. -1.
         22   -1    0    0    0    0 -0.00000000000E+00 -0.00000000000E+00 -0.68823510608E+03  0.68823510608E+03  0.00000000000E+00 0.  1.
         24    2    1    2    0    0  0.73018642154E+02  0.19635409198E+02 -0.64044214816E+03  0.64984595179E+03  0.80102088066E+02 0.  0.
         25    2    1    2    0    0 -0.34560212716E+02  0.55360452890E+02  0.10716148060E+03  0.17717338199E+03  0.12509051249E+03 0.  0.
        -24    2    1    2    0    0 -0.38458429438E+02 -0.74995862088E+02  0.32895891857E+03  0.34512912939E+03  0.61617495255E+02 0.  0.
        -11    1    3    3    0    0  0.60188685027E+01  0.59260828585E+01 -0.39401018273E+03  0.39410070964E+03  0.00000000000E+00 0.  1.
         12    1    3    3    0    0  0.66999773652E+02  0.13709326339E+02 -0.24643196543E+03  0.25574524215E+03  0.00000000000E+00 0. -1.
         11    1    5    5    0    0 -0.13722158924E+02 -0.30352282589E+02  0.41697730723E+02  0.53369087039E+02  0.00000000000E+00 0. -1.
        -12    1    5    5    0    0 -0.24736270514E+02 -0.44643579499E+02  0.28726118785E+03  0.29176004235E+03  0.00000000000E+00 0.  1.
          5    1    4    4  501    0 -0.64409917226E+01  0.68040328766E+02  0.30850507939E+01  0.68541685501E+02  0.41800000000E+01 0. -1.
         -5    1    4    4    0  501 -0.28119220993E+02 -0.12679875875E+02  0.10407642981E+03  0.10863169649E+03  0.41800000000E+01 0. -1.
</event>
<event>
11    1  0.8453735E-009  0.1809391E+03  0.7561462E-02  0.1068886E+00
         22   -1    0    0    0    0  0.00000000000E+00  0.00000000000E+00  0.27323056199E+03  0.27323056199E+03  0.00000000000E+00 0.  1.
         22   -1    0    0    0    0 -0.00000000000E+00 -0.00000000000E+00 -0.78759846030E+03  0.78759846030E+03  0.00000000000E+00 0.  1.
         24    2    1    2    0    0 -0.40414993376E+01 -0.62938380926E+02 -0.51181871716E+03  0.52194927319E+03  0.80592003567E+02 0.  0.
         25    2    1    2    0    0  0.12613314415E+03  0.10264129449E+03 -0.20185243856E+03  0.28781412424E+03  0.12509099797E+03 0.  0.
        -24    2    1    2    0    0 -0.12209164481E+03 -0.39702913566E+02  0.19930325741E+03  0.25106562486E+03  0.82640598333E+02 0.  0.
        -11    1    3    3    0    0  0.27542142818E+02 -0.65048068174E+02 -0.36037093288E+03  0.36722885244E+03  0.00000000000E+00 0.  1.
         12    1    3    3    0    0 -0.31583642156E+02  0.21096872481E+01 -0.15144778428E+03  0.15472042075E+03  0.00000000000E+00 0. -1.
         13    1    5    5    0    0 -0.10689808196E+02  0.15815869331E+02  0.65914452809E+02  0.68623092404E+02  0.00000000000E+00 0. -1.
        -14    1    5    5    0    0 -0.11140183661E+03 -0.55518782897E+02  0.13338880460E+03  0.18244253245E+03  0.00000000000E+00 0.  1.
          5    1    4    4  501    0  0.41125785103E+02 -0.21696221478E+02 -0.17830251825E+02  0.49974458545E+02  0.41800000000E+01 0.  1.
         -5    1    4    4    0  501  0.85007359044E+02  0.12433751597E+03 -0.18402218673E+03  0.23783966570E+03  0.41800000000E+01 0.  1.
</event>
<event>
11    1  0.8453735E-009  0.1620668E+03  0.7561462E-02  0.1085149E+00
         22   -1    0    0    0    0  0.00000000000E+00  0.00000000000E+00  0.30366255480E+03  0.30366255480E+03  0.00000000000E+00 0. -1.
         22   -1    0    0    0    0 -0.00000000000E+00 -0.00000000000E+00 -0.69431616077E+03  0.69431616077E+03  0.00000000000E+00 0. -1.
        -24    2    1    2    0    0 -0.21621359784E+02 -0.13184554601E+02 -0.57974243275E+03  0.58605713588E+03  0.81977817181E+02 0.  0.
         25    2    1    2    0    0  0.12065466796E+03  0.30728844057E+01 -0.10420677854E+02  0.17413393700E+03  0.12508815279E+03 0.  0.
         24    2    1    2    0    0 -0.99033308180E+02  0.10111670196E+02  0.19950950463E+03  0.23778764270E+03  0.82638239192E+02 0.  0.
        -13    1    5    5    0    0 -0.31502842009E+02  0.43608380364E+02  0.76617555434E+02  0.93618212402E+02  0.00000000000E+00 0.  1.
         14    1    5    5    0    0 -0.67530466172E+02 -0.33496710168E+02  0.12289194920E+03  0.14416943029E+03  0.00000000000E+00 0. -1.
         11    1    3    3    0    0 -0.25656038535E+01  0.27644290154E+02 -0.39207233138E+03  0.39305407024E+03  0.00000000000E+00 0. -1.
        -12    1    3    3    0    0 -0.19055755930E+02 -0.40828844755E+02 -0.18767010137E+03  0.19300306564E+03  0.00000000000E+00 0.  1.
          5    1    4    4  501    0  0.41031626847E+02 -0.59292307950E+02 -0.99369618468E+01  0.72906706101E+02  0.41800000000E+01 0.  1.
         -5    1    4    4    0  501  0.79623041117E+02  0.62365192356E+02 -0.48371600707E+00  0.10122723090E+03  0.41800000000E+01 0.  1.
</event>
<event>
11    1  0.8453735E-009  0.2057589E+03  0.7561462E-02  0.1050524E+00
         22   -1    0    0    0    0  0.00000000000E+00  0.00000000000E+00  0.12890149687E+04  0.12890149687E+04  0.00000000000E+00 0.  1.
         22   -1    0    0    0    0 -0.00000000000E+00 -0.00000000000E+00 -0.62328893720E+03  0.62328893720E+03  0.00000000000E+00 0. -1.
        -24    2    1    2    0    0 -0.60916749120E+02 -0.14325483097E+03 -0.35952911522E+03  0.39972154157E+03  0.79267453505E+02 0.  0.
         25    2    1    2    0    0  0.16228818963E+03  0.12498897223E+03 -0.18031134433E+03  0.30019999361E+03  0.12509258810E+03 0.  0.
         24    2    1    2    0    0 -0.10137144051E+03  0.18265858741E+02  0.12055664911E+04  0.12123823708E+04  0.76620088379E+02 0.  0.
        -13    1    5    5    0    0 -0.51131750451E+02 -0.26692212448E+02  0.69394509529E+03  0.69633808268E+03  0.00000000000E+00 0.  1.
         14    1    5    5    0    0 -0.50239690054E+02  0.44958071189E+02  0.51162139580E+03  0.51604428808E+03  0.00000000000E+00 0. -1.
         11    1    3    3    0    0 -0.65765079708E+02 -0.13960098646E+03 -0.27793165055E+03  0.31789854279E+03  0.00000000000E+00 0. -1.
        -12    1    3    3    0    0  0.48483305882E+01 -0.36538445124E+01 -0.81597464671E+02  0.81822998784E+02  0.00000000000E+00 0.  1.
          5    1    4    4  501    0  0.40513985259E+02 -0.35481195985E+01 -0.95391010656E+02  0.10378289584E+03  0.41800000000E+01 0. -1.
         -5    1    4    4    0  501  0.12177420437E+03  0.12853709183E+03 -0.84920333670E+02  0.19641709777E+03  0.41800000000E+01 0. -1.
</event>
<event>
11    1  0.8453735E-009  0.1355109E+03  0.7561462E-02  0.1112677E+00
         22   -1    0    0    0    0  0.00000000000E+00  0.00000000000E+00  0.14186397246E+03  0.14186397246E+03  0.00000000000E+00 0.  1.
         22   -1    0    0    0    0 -0.00000000000E+00 -0.00000000000E+00 -0.31257754781E+03  0.31257754781E+03  0.00000000000E+00 0. -1.
         24    2    1    2    0    0  0.37244331925E+02  0.10374299722E+02 -0.16225795221E+03  0.18553556087E+03  0.81246753397E+02 0.  0.
         25    2    1    2    0    0 -0.79377520239E+02 -0.24803667621E+02 -0.60861459166E+02  0.16207329685E+03  0.12509046203E+03 0.  0.
        -24    2    1    2    0    0  0.42133188314E+02  0.14429367900E+02  0.52405836028E+02  0.10683266255E+03  0.81752271659E+02 0.  0.
        -11    1    3    3    0    0  0.24188723753E+02  0.28945988551E+02 -0.22451515944E+02  0.43898008818E+02  0.00000000000E+00 0.  1.
         12    1    3    3    0    0  0.13055608172E+02 -0.18571688829E+02 -0.13980643627E+03  0.14163755206E+03  0.00000000000E+00 0. -1.
         11    1    5    5    0    0  0.15669245865E+02  0.18796313353E+02 -0.18724807696E+02  0.30813066788E+02  0.00000000000E+00 0. -1.
        -12    1    5    5    0    0  0.26463942449E+02 -0.43669454530E+01  0.71130643724E+02  0.76019595758E+02  0.00000000000E+00 0.  1.
          5    1    4    4  501    0 -0.10290878131E+03  0.63267171670E+01 -0.19424001549E+02  0.10500004218E+03  0.41800000000E+01 0.  1.
         -5    1    4    4    0  501  0.23531261072E+02 -0.31130384788E+02 -0.41437457617E+02  0.57073254668E+02  0.41800000000E+01 0.  1.
</event>
<event>
11    1  0.8453735E-009  0.1473140E+03  0.7561462E-02  0.1099655E+00
         22   -1    0    0    0    0  0.00000000000E+00  0.00000000000E+00  0.16615390434E+04  0.16615390434E+04  0.00000000000E+00 0. -1.
         22   -1    0    0    0    0 -0.00000000000E+00 -0.00000000000E+00 -0.10798142967E+03  0.10798142967E+03  0.00000000000E+00 0. -1.
         24    2    1    2    0    0  0.21350015789E+02  0.74660552145E+02 -0.52682651380E+02  0.12397295166E+03  0.81017342380E+02 0.  0.
         25    2    1    2    0    0 -0.39008307519E+02 -0.70680645997E+02  0.28152812786E+03  0.31847483734E+03  0.12510289152E+03 0.  0.
        -24    2    1    2    0    0  0.17658291731E+02 -0.39799061473E+01  0.13247121373E+04  0.13270726841E+04  0.77019525425E+02 0.  0.
        -13    1    3    3    0    0  0.26619775307E+02 -0.54184098684E+01  0.13943656261E+01  0.27201394421E+02  0.00000000000E+00 0.  1.
         14    1    3    3    0    0 -0.52697595188E+01  0.80078962013E+02 -0.54077017006E+02  0.96771557240E+02  0.00000000000E+00 0. -1.
         13    1    5    5    0    0 -0.19472769783E+02  0.17719103602E+02  0.85242943985E+03  0.85283591934E+03  0.00000000000E+00 0. -1.
        -14    1    5    5    0    0  0.37131061514E+02 -0.21699009749E+02  0.47228269741E+03  0.47423676473E+03  0.00000000000E+00 0.  1.
          5    1    4    4  501    0 -0.39429513175E+02 -0.45847107933E+02  0.28646629835E+03  0.29280890749E+03  0.41800000000E+01 0. -1.
         -5    1    4    4    0  501  0.42120565561E+00 -0.24833538065E+02 -0.49381704906E+01  0.25665929845E+02  0.41800000000E+01 0. -1.
</event>
<event>
11    1  0.8453735E-009  0.1700496E+03  0.7561462E-02  0.1077989E+00
         22   -1    0    0    0    0  0.00000000000E+00  0.00000000000E+00  0.18524322537E+04  0.18524322537E+04  0.00000000000E+00 0.  1.
         22   -1    0    0    0    0 -0.00000000000E+00 -0.00000000000E+00 -0.13278688700E+03  0.13278688700E+03  0.00000000000E+00 0.  1.
         24    2    1    2    0    0 -0.24151806673E+02  0.11695312644E+03 -0.61816205760E+02  0.15630996836E+03  0.79688263659E+02 0.  0.
         25    2    1    2    0    0  0.70469274858E+01 -0.91484253995E+02  0.24673379733E+03  0.29145199357E+03  0.12509064671E+03 0.  0.
        -24    2    1    2    0    0  0.17104879187E+02 -0.25468872447E+02  0.15347277751E+04  0.15374571787E+04  0.86278574627E+02 0.  0.
        -13    1    3    3    0    0 -0.21757674436E+02  0.77163145438E+02 -0.79315289163E+02  0.11277616107E+03  0.00000000000E+00 0.  1.
         14    1    3    3    0    0 -0.23941322369E+01  0.39789981003E+02  0.17499083403E+02  0.43533807292E+02  0.00000000000E+00 0. -1.
         13    1    5    5    0    0 -0.29364366765E+02  0.57712669795E+00  0.26696879269E+03  0.26857947684E+03  0.00000000000E+00 0. -1.
        -14    1    5    5    0    0  0.46469245952E+02 -0.26045999145E+02  0.12677589824E+04  0.12688777019E+04  0.00000000000E+00 0.  1.
          5    1    4    4  501    0 -0.26762825961E+02 -0.34954272770E+02  0.95294493665E+01  0.45236410595E+02  0.41800000000E+01 0. -1.
         -5    1    4    4    0  501  0.33809753447E+02 -0.56529981224E+02  0.23720434796E+03  0.24621558297E+03  0.41800000000E+01 0. -1.
</event>
<event>
11    1  0.8453735E-009  0.1521810E+03  0.7561462E-02  0.1094671E+00
         22   -1    0    0    0    0  0.00000000000E+00  0.00000000000E+00  0.56413229351E+03  0.56413229351E+03  0.00000000000E+00 0. -1.
         22   -1    0    0    0    0 -0.00000000000E+00 -0.00000000000E+00 -0.10921662441E+04  0.10921662441E+04  0.00000000000E+00 0.  1.
        -24    2    1    2    0    0 -0.22904529846E+02 -0.27918772530E+02 -0.10492589180E+04  0.10528733534E+04  0.79334393059E+02 0.  0.
         25    2    1    2    0    0  0.24499850519E+02 -0.66333987764E+02  0.14684944264E+03  0.20547345573E+03  0.12511651209E+03 0.  0.
         24    2    1    2    0    0 -0.15953206737E+01  0.94252760294E+02  0.37437552473E+03  0.39795172854E+03  0.96552663646E+02 0.  0.
        -11    1    5    5    0    0  0.36231341971E+02  0.89821472036E+02  0.26842473124E+03  0.28536370358E+03  0.00000000000E+00 0.  1.
         12    1    5    5    0    0 -0.37826662644E+02  0.44312882586E+01  0.10595079349E+03  0.11258802496E+03  0.00000000000E+00 0. -1.
         13    1    3    3    0    0  0.26193591193E+01 -0.38131411083E+02 -0.23006573860E+03  0.23321901645E+03  0.00000000000E+00 0. -1.
        -14    1    3    3    0    0 -0.25523888965E+02  0.10212638553E+02 -0.81919317937E+03  0.81965433691E+03  0.00000000000E+00 0.  1.
          5    1    4    4  501    0  0.49547476814E+02  0.68485725480E+01  0.10738595664E+03  0.11853721562E+03  0.41800000000E+01 0. -1.
         -5    1    4    4    0  501 -0.25047626295E+02 -0.73182560312E+02  0.39463486004E+02  0.86936240110E+02  0.41800000000E+01 0. -1.
</event>
<event>
11    1  0.8453735E-009  0.1628302E+03  0.7561462E-02  0.1084445E+00
         22   -1    0    0    0    0  0.00000000000E+00  0.00000000000E+00  0.21862185661E+03  0.21862185661E+03  0.00000000000E+00 0. -1.
         22   -1    0    0    0    0 -0.00000000000E+00 -0.00000000000E+00 -0.22337203736E+04  0.22337203736E+04  0.00000000000E+00 0. -1.
        -24    2    1    2    0    0  0.20819821569E+02 -0.16552476635E+02 -0.11793375002E+04  0.11824019664E+04  0.80808548579E+02 0.  0.
         25    2    1    2    0    0 -0.12465654937E+03  0.16998568167E+02 -0.10245539016E+04  0.10398003924E+04  0.12508378031E+03 0.  0.
         24    2    1    2    0    0  0.10383672780E+03 -0.44609153199E+00  0.18879288481E+03  0.23013987134E+03  0.80866198055E+02 0.  0.
        -13    1    5    5    0    0  0.88764205963E+01  0.24097466167E+02  0.78257404202E+02  0.82363220133E+02  0.00000000000E+00 0.  1.
         14    1    5    5    0    0  0.94960307204E+02 -0.24543557699E+02  0.11053548061E+03  0.14777665121E+03  0.00000000000E+00 0. -1.
         13    1    3    3    0    0 -0.28042578157E+02 -0.20491147147E+02 -0.59446739781E+03  0.59548111671E+03  0.00000000000E+00 0. -1.
        -14    1    3    3    0    0  0.48862399726E+02  0.39386705119E+01 -0.58487010235E+03  0.58692084974E+03  0.00000000000E+00 0.  1.
          5    1    4    4  501    0  0.52234874957E+01  0.41225741543E+02 -0.34415757265E+03  0.34668249711E+03  0.41800000000E+01 0.  1.
         -5    1    4    4    0  501 -0.12988003686E+03 -0.24227173375E+02 -0.68039632897E+03  0.69311789529E+03  0.41800000000E+01 0.  1.
</event>
<event>
11    1  0.8453735E-009  0.1292076E+03  0.7561462E-02  0.1120246E+00
         22   -1    0    0    0    0  0.00000000000E+00  0.00000000000E+00  0.56214442940E+03  0.56214442940E+03  0.00000000000E+00 0. -1.
         22   -1    0    0    0    0 -0.00000000000E+00 -0.00000000000E+00 -0.58681616109E+03  0.58681616109E+03  0.00000000000E+00 0.  1.
        -24    2    1    2    0    0  0.40035615399E+01  0.16226343855E+02 -0.50553179091E+03  0.51095108068E+03  0.72313847126E+02 0.  0.
         25    2    1    2    0    0  0.26509493713E+02 -0.26839660130E+02 -0.17876592433E+02  0.13186459112E+03  0.12508228180E+03 0.  0.
         24    2    1    2    0    0 -0.30513055253E+02  0.10613316275E+02  0.49873665165E+03  0.50614491870E+03  0.80004637379E+02 0.  0.
        -13    1    5    5    0    0  0.25802192134E+02  0.68550185783E+01  0.23007460414E+03  0.23161836687E+03  0.00000000000E+00 0.  1.
         14    1    5    5    0    0 -0.56315247387E+02  0.37582976970E+01  0.26866204750E+03  0.27452655183E+03  0.00000000000E+00 0. -1.
         13    1    3    3    0    0 -0.23648579625E+02 -0.12603526265E+01 -0.64548009506E+02  0.68755285893E+02  0.00000000000E+00 0. -1.
        -14    1    3    3    0    0  0.27652141165E+02  0.17486696481E+02 -0.44098378140E+03  0.44219579478E+03  0.00000000000E+00 0.  1.
          5    1    4    4  501    0  0.19175673743E+02 -0.16293770169E+02  0.53474085028E+02  0.59246464700E+02  0.41800000000E+01 0.  1.
         -5    1    4    4    0  501  0.73338199698E+01 -0.10545889962E+02 -0.71350677462E+02  0.72618126419E+02  0.41800000000E+01 0.  1.
</event>
<event>
11    1  0.8453735E-009  0.2121634E+03  0.7561462E-02  0.1046241E+00
         22   -1    0    0    0    0  0.00000000000E+00  0.00000000000E+00  0.28711796373E+03  0.28711796373E+03  0.00000000000E+00 0.  1.
         22   -1    0    0    0    0 -0.00000000000E+00 -0.00000000000E+00 -0.98435486762E+03  0.98435486762E+03  0.00000000000E+00 0. -1.
         24    2    1    2    0    0  0.14763975865E+03 -0.84733458371E+01 -0.43013741768E+03  0.46219228355E+03  0.82062250531E+02 0.  0.
         25    2    1    2    0    0 -0.21366622036E+03  0.14337234853E+02 -0.49750904446E+03  0.55589655663E+03  0.12508765856E+03 0.  0.
        -24    2    1    2    0    0  0.66026461711E+02 -0.58638890157E+01  0.23040955825E+03  0.25338399117E+03  0.81981727267E+02 0.  0.
        -13    1    3    3    0    0  0.29614610769E+02 -0.23494986240E+02 -0.43340257136E+02  0.57510150739E+02  0.00000000000E+00 0.  1.
         14    1    3    3    0    0  0.11802514788E+03  0.15021640402E+02 -0.38679716055E+03  0.40468213281E+03  0.00000000000E+00 0. -1.
         13    1    5    5    0    0  0.31217953596E+02 -0.14951374399E+02  0.20113920302E+02  0.40033411209E+02  0.00000000000E+00 0. -1.
        -14    1    5    5    0    0  0.34808508115E+02  0.90874853830E+01  0.21029563795E+03  0.21335057996E+03  0.00000000000E+00 0.  1.
          5    1    4    4  501    0 -0.21117481395E+02  0.20082011944E+02 -0.19518184195E+03  0.19738961232E+03  0.41800000000E+01 0.  1.
         -5    1    4    4    0  501 -0.19254873896E+03 -0.57447770914E+01 -0.30232720251E+03  0.35850694431E+03  0.41800000000E+01 0.  1.
</event>
<event>
11    1  0.8453735E-009  0.1270291E+03  0.7561462E-02  0.1122974E+00
         22   -1    0    0    0    0  0.00000000000E+00  0.00000000000E+00  0.85879009747E+03  0.85879009747E+03  0.00000000000E+00 0.  1.
         22   -1    0    0    0    0 -0.00000000000E+00 -0.00000000000E+00 -0.62319094157E+03  0.62319094157E+03  0.00000000000E+00 0. -1.
        -24    2    1    2    0    0  0.30009439997E+01  0.27165294752E+02 -0.59889433622E+03  0.60468794639E+03  0.78905815101E+02 0.  0.
         25    2    1    2    0    0  0.38014184940E+01 -0.25348458214E+01  0.19137844032E+03  0.22868065225E+03  0.12509299369E+03 0.  0.
         24    2    1    2    0    0 -0.68023624938E+01 -0.24630448930E+02  0.64311505180E+03  0.64861244039E+03  0.80300665224E+02 0.  0.
        -11    1    5    5    0    0 -0.17303907633E+02 -0.38509789216E+02  0.60756972900E+03  0.60903481401E+03  0.00000000000E+00 0.  1.
         12    1    5    5    0    0  0.10501545139E+02  0.13879340285E+02  0.35545322801E+02  0.39577626382E+02  0.00000000000E+00 0. -1.
         11    1    3    3    0    0  0.14577512572E+01  0.54066413167E+02 -0.46296847424E+03  0.46611705634E+03  0.00000000000E+00 0. -1.
        -12    1    3    3    0    0  0.15431927425E+01 -0.26901118415E+02 -0.13592586197E+03  0.13857089005E+03  0.00000000000E+00 0.  1.
          5    1    4    4  501    0  0.40094525560E+02 -0.48069345693E+02  0.70035091881E+02  0.94024568438E+02  0.41800000000E+01 0.  1.
         -5    1    4    4    0  501 -0.36293107066E+02  0.45534499871E+02  0.12134334843E+03  0.13465608381E+03  0.41800000000E+01 0.  1.
</event>
<event>
11    1  0.8453735E-009  0.1715290E+03  0.7561462E-02  0.1076709E+00
         22   -1    0    0    0    0  0.00000000000E+00  0.00000000000E+00  0.35444513292E+03  0.35444513292E+03  0.00000000000E+00 0.  1.
         22   -1    0    0    0    0 -0.00000000000E+00 -0.00000000000E+00 -0.34340773851E+04  0.34340773851E+04  0.00000000000E+00 0.  1.
         24    2    1    2    0    0 -0.10913922854E+03  0.36475918235E+02 -0.25492624845E+04  0.25531863976E+04  0.82338946471E+02 0.  0.
         25    2    1    2    0    0  0.11710544502E+03 -0.53336159259E+02 -0.86865922187E+03  0.88700261759E+03  0.12508544577E+03 0.  0.
        -24    2    1    2    0    0 -0.79662164844E+01  0.16860241024E+02  0.33828945418E+03  0.34833350285E+03  0.80924323112E+02 0.  0.
        -11    1    3    3    0    0 -0.73602542626E+02  0.15133645395E+02 -0.22271887333E+04  0.22284559711E+04  0.00000000000E+00 0.  1.
         12    1    3    3    0    0 -0.35536685910E+02  0.21342272840E+02 -0.32207375120E+03  0.32473042645E+03  0.00000000000E+00 0. -1.
         11    1    5    5    0    0 -0.13045262285E+02 -0.24455972422E+02  0.51013948131E+02  0.58057698534E+02  0.00000000000E+00 0. -1.
        -12    1    5    5    0    0  0.50790458006E+01  0.41316213446E+02  0.28727550605E+03  0.29027580432E+03  0.00000000000E+00 0.  1.
          5    1    4    4  501    0  0.10450706436E+03  0.17281179239E+02 -0.57416499345E+03  0.58386923002E+03  0.41800000000E+01 0. -1.
         -5    1    4    4    0  501  0.12598380658E+02 -0.70617338498E+02 -0.29449422842E+03  0.30313338758E+03  0.41800000000E+01 0. -1.
</event>
<event>
11    1  0.8453735E-009  0.3325241E+03  0.7561462E-02  0.9872944E-01
         22   -1    0    0    0    0  0.00000000000E+00  0.00000000000E+00  0.24008201025E+03  0.24008201025E+03  0.00000000000E+00 0. -1.
         22   -1    0    0    0    0 -0.00000000000E+00 -0.00000000000E+00 -0.18692862021E+04  0.18692862021E+04  0.00000000000E+00 0.  1.
         24    2    1    2    0    0  0.28745721793E+03  0.12636073553E+03 -0.14022634149E+04  0.14392789449E+04  0.81132662092E+02 0.  0.
         25    2    1    2    0    0 -0.28123091686E+03 -0.78232318887E+02 -0.37710619678E+03  0.49301755006E+03  0.12508435835E+03 0.  0.
        -24    2    1    2    0    0 -0.62263010750E+01 -0.48128416640E+02  0.15016541978E+03  0.17707171744E+03  0.80309579154E+02 0.  0.
        -13    1    3    3    0    0  0.28674143442E+03  0.13344956975E+03 -0.13512365641E+04  0.13877570717E+04  0.00000000000E+00 0.  1.
         14    1    3    3    0    0  0.71578351127E+00 -0.70888342193E+01 -0.51026850771E+02  0.51521873183E+02  0.00000000000E+00 0. -1.
         11    1    5    5    0    0  0.21346853102E+02 -0.40891985815E+02  0.13900332331E+03  0.14645738811E+03  0.00000000000E+00 0. -1.
        -12    1    5    5    0    0 -0.27573154177E+02 -0.72364308251E+01  0.11162096473E+02  0.30614329325E+02  0.00000000000E+00 0.  1.
          5    1    4    4  501    0 -0.20751273139E+02 -0.43775205046E+02 -0.28159039916E+02  0.56189748555E+02  0.41800000000E+01 0.  1.
         -5    1    4    4    0  501 -0.26047964372E+03 -0.34457113841E+02 -0.34894715686E+03  0.43682780150E+03  0.41800000000E+01 0.  1.
</event>
<event>
11    1  0.8453735E-009  0.1499486E+03  0.7561462E-02  0.1096931E+00
         22   -1    0    0    0    0  0.00000000000E+00  0.00000000000E+00  0.18841500716E+04  0.18841500716E+04  0.00000000000E+00 0.  1.
         22   -1    0    0    0    0 -0.00000000000E+00 -0.00000000000E+00 -0.70343200723E+03  0.70343200723E+03  0.00000000000E+00 0.  1.
         24    2    1    2    0    0 -0.37559028639E+02 -0.62100978737E+00 -0.66556412036E+03  0.67143400072E+03  0.80230622167E+02 0.  0.
         25    2    1    2    0    0  0.75828235527E+02 -0.71492840238E+02  0.16896440029E+03  0.23464399085E+03  0.12509071256E+03 0.  0.
        -24    2    1    2    0    0 -0.38269206888E+02  0.72113850025E+02  0.16773177844E+04  0.16815040873E+04  0.86000615806E+02 0.  0.
        -11    1    3    3    0    0  0.11102172198E+01 -0.16409356151E+02 -0.51277281504E+03  0.51303650883E+03  0.00000000000E+00 0.  1.
         12    1    3    3    0    0 -0.38669245859E+02  0.15788346364E+02 -0.15279130532E+03  0.15839749189E+03  0.00000000000E+00 0. -1.
         11    1    5    5    0    0  0.15005897984E+02  0.61853851854E+02  0.99415886698E+03  0.99619422240E+03  0.00000000000E+00 0. -1.
        -12    1    5    5    0    0 -0.53275104872E+02  0.10259998171E+02  0.68315891745E+03  0.68530986485E+03  0.00000000000E+00 0.  1.
          5    1    4    4  501    0 -0.46081725059E+01  0.31335369705E+02  0.38532033912E+02  0.50053278472E+02  0.41800000000E+01 0. -1.
         -5    1    4    4    0  501  0.80436408033E+02 -0.10282820994E+03  0.13043236638E+03  0.18459071238E+03  0.41800000000E+01 0. -1.
</event>
<event>
11    1  0.8453735E-009  0.1638555E+03  0.7561462E-02  0.1083506E+00
         22   -1    0    0    0    0  0.00000000000E+00  0.00000000000E+00  0.22048854238E+04  0.22048854238E+04  0.00000000000E+00 0.  1.
         22   -1    0    0    0    0 -0.00000000000E+00 -0.00000000000E+00 -0.39377225206E+03  0.39377225206E+03  0.00000000000E+00 0. -1.
         24    2    1    2    0    0 -0.74508636840E+01  0.10535763070E+03 -0.30621604059E+03  0.33380522412E+03  0.80634474129E+02 0.  0.
         25    2    1    2    0    0 -0.13431474681E+02 -0.10823861758E+03  0.21650261805E+02  0.16737004644E+03  0.12509194923E+03 0.  0.
        -24    2    1    2    0    0  0.20882338365E+02  0.28809868803E+01  0.20956789505E+04  0.20974824053E+04  0.84367083250E+02 0.  0.
        -11    1    3    3    0    0  0.32350210632E+02  0.22997093178E+02 -0.11884784297E+03  0.12530048763E+03  0.00000000000E+00 0.  1.
         12    1    3    3    0    0 -0.39801074316E+02  0.82360537520E+02 -0.18736819762E+03  0.20850473649E+03  0.00000000000E+00 0. -1.
         13    1    5    5    0    0  0.33799881702E+02 -0.29808015538E+01  0.32873094500E+03  0.33047745972E+03  0.00000000000E+00 0. -1.
        -14    1    5    5    0    0 -0.12917543337E+02  0.58617884340E+01  0.17669480055E+04  0.17670049455E+04  0.00000000000E+00 0.  1.
          5    1    4    4  501    0 -0.45885474950E+02 -0.33390526121E+02 -0.36048001743E+02  0.67359742248E+02  0.41800000000E+01 0. -1.
         -5    1    4    4    0  501  0.32454000269E+02 -0.74848091456E+02  0.57698263549E+02  0.10001030419E+03  0.41800000000E+01 0. -1.
</event>
<event>
11    1  0.8453735E-009  0.1351017E+03  0.7561462E-02  0.1113155E+00
         22   -1    0    0    0    0  0.00000000000E+00  0.00000000000E+00  0.78842173748E+03  0.78842173748E+03  0.00000000000E+00 0.  1.
         22   -1    0    0    0    0 -0.00000000000E+00 -0.00000000000E+00 -0.84673430239E+03  0.84673430239E+03  0.00000000000E+00 0.  1.
         24    2    1    2    0    0 -0.36098057354E+01 -0.12370953253E+02 -0.77815575037E+03  0.78207062313E+03  0.77084476705E+02 0.  0.
         25    2    1    2    0    0 -0.18157306324E+02 -0.34547495473E+02  0.52463301824E+01  0.13114935756E+03  0.12509761305E+03 0.  0.
        -24    2    1    2    0    0  0.21767112060E+02  0.46918448726E+02  0.71459685527E+03  0.72193605918E+03  0.88700958153E+02 0.  0.
        -13    1    3    3    0    0 -0.14605240192E+02 -0.81640010351E+01 -0.76144772563E+03  0.76163154007E+03  0.00000000000E+00 0.  1.
         14    1    3    3    0    0  0.10995434456E+02 -0.42069522180E+01 -0.16708024734E+02  0.20439083061E+02  0.00000000000E+00 0. -1.
         13    1    5    5    0    0 -0.10573544828E+02  0.24011129626E+02  0.52853506973E+02  0.59007011410E+02  0.00000000000E+00 0. -1.
        -14    1    5    5    0    0  0.32340656887E+02  0.22907319101E+02  0.66174334830E+03  0.66292904777E+03  0.00000000000E+00 0.  1.
          5    1    4    4  501    0  0.41962536902E+02  0.18634707651E+02 -0.14598898921E+02  0.48360180750E+02  0.41800000000E+01 0. -1.
         -5    1    4    4    0  501 -0.60119843226E+02 -0.53182203124E+02  0.19845229103E+02  0.82789176810E+02  0.41800000000E+01 0. -1.
</event>
<event>
11    1  0.8453735E-009  0.1792322E+03  0.7561462E-02  0.1070266E+00
         22   -1    0    0    0    0  0.00000000000E+00  0.00000000000E+00  0.69371525550E+03  0.69371525550E+03  0.00000000000E+00 0.  1.
         22   -1    0    0    0    0 -0.00000000000E+00 -0.00000000000E+00 -0.21111906665E+04  0.21111906665E+04  0.00000000000E+00 0.  1.
        -24    2    1    2    0    0 -0.11845510258E+03  0.45040382714E+02 -0.16120795863E+04  0.16193852110E+04  0.86877049227E+02 0.  0.
         25    2    1    2    0    0  0.13160414494E+03 -0.36625581830E+02 -0.47579255948E+03  0.51057525909E+03  0.12508977310E+03 0.  0.
         24    2    1    2    0    0 -0.13149042357E+02 -0.84148008840E+01  0.67039673477E+03  0.67494545190E+03  0.76654255325E+02 0.  0.
        -11    1    5    5    0    0 -0.15781069389E+01  0.36693717052E+01  0.64181214354E+03  0.64182457284E+03  0.00000000000E+00 0.  1.
         12    1    5    5    0    0 -0.11570935418E+02 -0.12084172589E+02  0.28584591231E+02  0.33120879056E+02  0.00000000000E+00 0. -1.
         13    1    3    3    0    0 -0.84891258593E+02  0.32476800962E+02 -0.61683102164E+03  0.62349160190E+03  0.00000000000E+00 0. -1.
        -14    1    3    3    0    0 -0.33563843989E+02  0.12563581752E+02 -0.99524856466E+03  0.99589360911E+03  0.00000000000E+00 0.  1.
          5    1    4    4  501    0  0.11404257623E+03  0.22029156100E+02 -0.23618623126E+03  0.26323449840E+03  0.41800000000E+01 0. -1.
         -5    1    4    4    0  501  0.17561568707E+02 -0.58654737930E+02 -0.23960632822E+03  0.24734076069E+03  0.41800000000E+01 0. -1.
</event>
<event>
11    1  0.8453735E-009  0.1368415E+03  0.7561462E-02  0.1111138E+00
         22   -1    0    0    0    0  0.00000000000E+00  0.00000000000E+00  0.11943904027E+04  0.11943904027E+04  0.00000000000E+00 0.  1.
         22   -1    0    0    0    0 -0.00000000000E+00 -0.00000000000E+00 -0.15545990384E+03  0.15545990384E+03  0.00000000000E+00 0. -1.
         24    2    1    2    0    0 -0.21605245114E+02 -0.44577838721E+02 -0.40236389187E+02  0.10426216393E+03  0.82447932003E+02 0.  0.
         25    2    1    2    0    0  0.12628888353E+02  0.67227687365E+02 -0.19364164171E+02  0.14388599700E+03  0.12509659671E+03 0.  0.
        -24    2    1    2    0    0  0.89763567615E+01 -0.22649848644E+02  0.10985310522E+04  0.11017021456E+04  0.79897148506E+02 0.  0.
        -13    1    3    3    0    0 -0.11532037873E+02 -0.34374210652E+02  0.20639813865E+02  0.41720212988E+02  0.00000000000E+00 0.  1.
         14    1    3    3    0    0 -0.10073207242E+02 -0.10203628069E+02 -0.60876203051E+02  0.62541950944E+02  0.00000000000E+00 0. -1.
         13    1    5    5    0    0  0.20719526387E+02  0.14726349313E+02  0.13484339150E+03  0.13721845492E+03  0.00000000000E+00 0. -1.
        -14    1    5    5    0    0 -0.11743169625E+02 -0.37376197956E+02  0.96368766072E+03  0.96448369070E+03  0.00000000000E+00 0.  1.
          5    1    4    4  501    0  0.28607132344E+02  0.28119688608E+02  0.48969262867E+02  0.63439309691E+02  0.41800000000E+01 0. -1.
         -5    1    4    4    0  501 -0.15978243991E+02  0.39107998756E+02 -0.68333427038E+02  0.80446687306E+02  0.41800000000E+01 0. -1.
</event>
<event>
11    1  0.8453735E-009  0.3072923E+03  0.7561462E-02  0.9971513E-01
         22   -1    0    0    0    0  0.00000000000E+00  0.00000000000E+00  0.49128445255E+03  0.49128445255E+03  0.00000000000E+00 0. -1.
         22   -1    0    0    0    0 -0.00000000000E+00 -0.00000000000E+00 -0.18520451970E+03  0.18520451970E+03  0.00000000000E+00 0. -1.
        -24    2    1    2    0    0 -0.11167427429E+03 -0.49736636300E+02 -0.53186580859E+02  0.15573530647E+03  0.80497184846E+02 0.  0.
         25    2    1    2    0    0 -0.61895004899E+02 -0.26812664281E+02  0.52660776669E+02  0.15155743206E+03  0.12508631906E+03 0.  0.
         24    2    1    2    0    0  0.17356927919E+03  0.76549300582E+02  0.30660573705E+03  0.36919623373E+03  0.79452444337E+02 0.  0.
        -11    1    5    5    0    0  0.67697961556E+02  0.32287857261E+02  0.19582149472E+03  0.20969400926E+03  0.00000000000E+00 0.  1.
         12    1    5    5    0    0  0.10587131763E+03  0.44261443321E+02  0.11078424233E+03  0.15950222447E+03  0.00000000000E+00 0. -1.
         13    1    3    3    0    0 -0.75608235156E+02 -0.63260858389E+02 -0.11945077331E+02  0.99303707382E+02  0.00000000000E+00 0. -1.
        -14    1    3    3    0    0 -0.36066039134E+02  0.13524222088E+02 -0.41241503528E+02  0.56431599084E+02  0.00000000000E+00 0.  1.
          5    1    4    4  501    0  0.19563578543E+02  0.15233011341E+02 -0.21880805896E+02  0.33331971237E+02  0.41800000000E+01 0. -1.
         -5    1    4    4    0  501 -0.81458583442E+02 -0.42045675622E+02  0.74541582565E+02  0.11822546082E+03  0.41800000000E+01 0. -1.
</event>
<event>
11    1  0.8453735E-009  0.1789590E+03  0.7561462E-02  0.1070488E+00
         22   -1    0    0    0    0  0.00000000000E+00  0.00000000000E+00  0.74322185265E+03  0.74322185265E+03  0.00000000000E+00 0.  1.
         22   -1    0    0    0    0 -0.00000000000E+00 -0.00000000000E+00 -0.28958979926E+03  0.28958979926E+03  0.00000000000E+00 0. -1.
        -24    2    1    2    0    0 -0.11482893994E+03 -0.94548138303E+01 -0.96034965118E+02  0.17042679861E+03  0.80916625020E+02 0.  0.
         25    2    1    2    0    0  0.23449306569E+03  0.29337462489E+02 -0.25877517280E+02  0.26862888044E+03  0.12507655633E+03 0.  0.
         24    2    1    2    0    0 -0.11966412574E+03 -0.19882648659E+02  0.57554453579E+03  0.59375597287E+03  0.81116089224E+02 0.  0.
        -13    1    5    5    0    0 -0.65163704005E+02 -0.83185037230E+01  0.46847389050E+03  0.47305738754E+03  0.00000000000E+00 0.  1.
         14    1    5    5    0    0 -0.54500421738E+02 -0.11564144936E+02  0.10707064528E+03  0.12069858532E+03  0.00000000000E+00 0. -1.
         13    1    3    3    0    0 -0.11731298101E+03  0.98695206732E+01 -0.66990630547E+02  0.13545289784E+03  0.00000000000E+00 0. -1.
        -14    1    3    3    0    0  0.24840410685E+01 -0.19324334504E+02 -0.29044334572E+02  0.34973900765E+02  0.00000000000E+00 0.  1.
          5    1    4    4  501    0  0.12170703040E+03 -0.12593752579E+01 -0.73634562162E+02  0.14231552417E+03  0.41800000000E+01 0.  1.
         -5    1    4    4    0  501  0.11278603529E+03  0.30596837747E+02  0.47757044882E+02  0.12631335627E+03  0.41800000000E+01 0.  1.
</event>
<event>
11    1  0.8453735E-009  0.2655026E+03  0.7561462E-02  0.1015950E+00
         22   -1    0    0    0    0  0.00000000000E+00  0.00000000000E+00  0.12771877466E+03  0.12771877466E+03  0.00000000000E+00 0.  1.
         22   -1    0    0    0    0 -0.00000000000E+00 -0.00000000000E+00 -0.98284687956E+03  0.98284687956E+03  0.00000000000E+00 0.  1.
        -24    2    1    2    0    0 -0.50370718209E+01 -0.40626245036E+02 -0.29066118627E+03  0.30442457842E+03  0.80712668544E+02 0.  0.
         25    2    1    2    0    0 -0.55142087728E+02 -0.19697143086E+03 -0.47243663851E+03  0.52979503436E+03  0.12509199260E+03 0.  0.
         24    2    1    2    0    0  0.60179159549E+02  0.23759767590E+03 -0.92030280111E+02  0.27634604143E+03  0.88449846367E+02 0.  0.
        -13    1    5    5    0    0  0.35765442822E+02  0.21322260752E+03 -0.10388807891E+03  0.23986617143E+03  0.00000000000E+00 0.  1.
         14    1    5    5    0    0  0.24413716726E+02  0.24375068383E+02  0.11857798802E+02  0.36479870004E+02  0.00000000000E+00 0. -1.
         11    1    3    3    0    0  0.35208350269E+02 -0.30739487674E+02 -0.18780159559E+03  0.19353031633E+03  0.00000000000E+00 0. -1.
        -12    1    3    3    0    0 -0.40245422089E+02 -0.98867573626E+01 -0.10285959068E+03  0.11089426209E+03  0.00000000000E+00 0.  1.
          5    1    4    4  501    0 -0.99153374955E+01 -0.57864453014E+02 -0.29004628670E+03  0.29595764844E+03  0.41800000000E+01 0. -1.
         -5    1    4    4    0  501 -0.45226750232E+02 -0.13910697785E+03 -0.18239035181E+03  0.23383738593E+03  0.41800000000E+01 0. -1.
</event>
<event>
11    1  0.8453735E-009  0.1271917E+03  0.7561462E-02  0.1122768E+00
         22   -1    0    0    0    0  0.00000000000E+00  0.00000000000E+00  0.15434178353E+04  0.15434178353E+04  0.00000000000E+00 0. -1.
         22   -1    0    0    0    0 -0.00000000000E+00 -0.00000000000E+00 -0.48111746761E+03  0.48111746761E+03  0.00000000000E+00 0.  1.
         24    2    1    2    0    0  0.17984753764E+02 -0.48627912820E+01 -0.45217284976E+03  0.45823345163E+03  0.71906272532E+02 0.  0.
         25    2    1    2    0    0 -0.91395391712E+01  0.26283831061E+02  0.14221238833E+03  0.19142627273E+03  0.12508110787E+03 0.  0.
        -24    2    1    2    0    0 -0.88452145930E+01 -0.21421039779E+02  0.13722608292E+04  0.13748755786E+04  0.81522846861E+02 0.  0.
        -13    1    3    3    0    0  0.40153818774E+02  0.16072772390E+02 -0.29174160430E+03  0.29493020675E+03  0.00000000000E+00 0.  1.
         14    1    3    3    0    0 -0.22169065009E+02 -0.20935563672E+02 -0.16043124546E+03  0.16330324488E+03  0.00000000000E+00 0. -1.
         11    1    5    5    0    0 -0.16748586699E+02 -0.51237386531E+02  0.87692994783E+03  0.87858517990E+03  0.00000000000E+00 0. -1.
        -12    1    5    5    0    0  0.79033721061E+01  0.29816346751E+02  0.49533088133E+03  0.49629039868E+03  0.00000000000E+00 0.  1.
          5    1    4    4  501    0  0.10365248767E+02 -0.38104553095E+02  0.69710084825E+01  0.40317027518E+02  0.41800000000E+01 0. -1.
         -5    1    4    4    0  501 -0.19504787938E+02  0.64388384157E+02  0.13524137985E+03  0.15110924522E+03  0.41800000000E+01 0. -1.
</event>
<event>
11    1  0.8453735E-009  0.1825751E+03  0.7561462E-02  0.1067579E+00
         22   -1    0    0    0    0  0.00000000000E+00  0.00000000000E+00  0.67319805741E+03  0.67319805741E+03  0.00000000000E+00 0. -1.
         22   -1    0    0    0    0 -0.00000000000E+00 -0.00000000000E+00 -0.17338175720E+03  0.17338175720E+03  0.00000000000E+00 0.  1.
        -24    2    1    2    0    0  0.13672829855E+03  0.22394686768E+02 -0.89700627267E+02  0.18439493066E+03  0.82213978736E+02 0.  0.
         25    2    1    2    0    0 -0.79914861775E+02 -0.90190285769E+02  0.28818232149E+03  0.33647744328E+03  0.12508935461E+03 0.  0.
         24    2    1    2    0    0 -0.56813436779E+02  0.67795599001E+02  0.30133460599E+03  0.32570744067E+03  0.86364241998E+02 0.  0.
        -13    1    5    5    0    0 -0.54615288735E+02  0.62411855626E+02  0.12953583860E+03  0.15381028239E+03  0.00000000000E+00 0.  1.
         14    1    5    5    0    0 -0.21981480443E+01  0.53837433749E+01  0.17179876739E+03  0.17189715828E+03  0.00000000000E+00 0. -1.
         11    1    3    3    0    0  0.97466111428E+01  0.27695853901E+02 -0.93990322809E+00  0.29375843309E+02  0.00000000000E+00 0. -1.
        -12    1    3    3    0    0  0.12698168741E+03 -0.53011671327E+01 -0.88760724039E+02  0.15501908735E+03  0.00000000000E+00 0.  1.
          5    1    4    4  501    0  0.15152858970E+02 -0.68071673101E+02  0.16554516528E+03  0.17968315436E+03  0.41800000000E+01 0. -1.
         -5    1    4    4    0  501 -0.95067720746E+02 -0.22118612667E+02  0.12263715621E+03  0.15679428892E+03  0.41800000000E+01 0. -1.
</event>
<event>
11    1  0.8453735E-009  0.1427001E+03  0.7561462E-02  0.1104580E+00
         22   -1    0    0    0    0  0.00000000000E+00  0.00000000000E+00  0.24361004698E+03  0.24361004698E+03  0.00000000000E+00 0. -1.
         22   -1    0    0    0    0 -0.00000000000E+00 -0.00000000000E+00 -0.10636158222E+04  0.10636158222E+04  0.00000000000E+00 0. -1.
         24    2    1    2    0    0  0.11948861636E+02 -0.71509551630E+02 -0.68513341424E+03  0.69411941718E+03  0.84484192196E+02 0.  0.
         25    2    1    2    0    0  0.57620238391E+01  0.58837466162E+02 -0.35306232684E+03  0.37920422660E+03  0.12509112875E+03 0.  0.
        -24    2    1    2    0    0 -0.17710885475E+02  0.12672085468E+02  0.21818996589E+03  0.23390222537E+03  0.81419485409E+02 0.  0.
        -11    1    3    3    0    0  0.33416848834E+02 -0.16907556908E+02 -0.11430452770E+03  0.12028331688E+03  0.00000000000E+00 0.  1.
         12    1    3    3    0    0 -0.21467987199E+02 -0.54601994722E+02 -0.57082888654E+03  0.57383610031E+03  0.00000000000E+00 0. -1.
         13    1    5    5    0    0  0.27715773756E+02 -0.14428192793E+02  0.87607018605E+02  0.93012507605E+02  0.00000000000E+00 0. -1.
        -14    1    5    5    0    0 -0.45426659230E+02  0.27100278261E+02  0.13058294728E+03  0.14088971777E+03  0.00000000000E+00 0.  1.
          5    1    4    4  501    0  0.37848015214E+02  0.84999831575E+02 -0.28048297099E+03  0.29554291235E+03  0.41800000000E+01 0.  1.
         -5    1    4    4    0  501 -0.32085991375E+02 -0.26162365413E+02 -0.72579355853E+02  0.83661314253E+02  0.41800000000E+01 0.  1.
</event>
<event>
11    1  0.8453735E-009  0.1335349E+03  0.7561462E-02  0.1115000E+00
         22   -1    0    0    0    0  0.00000000000E+00  0.00000000000E+00  0.26051741399E+03  0.26051741399E+03  0.00000000000E+00 0. -1.
         22   -1    0    0    0    0 -0.00000000000E+00 -0.00000000000E+00 -0.36611796617E+03  0.36611796617E+03  0.00000000000E+00 0.  1.
         24    2    1    2    0    0 -0.21801237281E+01  0.19726428393E+02 -0.24869304140E+03  0.26221077792E+03  0.80699307939E+02 0.  0.
         25    2    1    2    0    0 -0.39399023984E+02  0.38933373170E+01 -0.57019304508E+02  0.14306198729E+03  0.12509232572E+03 0.  0.
        -24    2    1    2    0    0  0.41579147712E+02 -0.23619765710E+02  0.20011179372E+03  0.22136261495E+03  0.81669813608E+02 0.  0.
        -11    1    3    3    0    0  0.49119964435E+01 -0.13296914033E+02 -0.21148154370E+03  0.21195607790E+03  0.00000000000E+00 0.  1.
         12    1    3    3    0    0 -0.70921201716E+01  0.33023342425E+02 -0.37211497693E+02  0.50254700019E+02  0.00000000000E+00 0. -1.
         11    1    5    5    0    0  0.47566794149E+02  0.13410242466E+02  0.15502526808E+03  0.16271222527E+03  0.00000000000E+00 0. -1.
        -12    1    5    5    0    0 -0.59876464367E+01 -0.37030008176E+02  0.45086525636E+02  0.58650389677E+02  0.00000000000E+00 0.  1.
          5    1    4    4  501    0 -0.39588110010E+02 -0.43106784846E+02 -0.72621299593E+02  0.93363477380E+02  0.41800000000E+01 0.  1.
         -5    1    4    4    0  501  0.18908602650E+00  0.47000122163E+02  0.15601995086E+02  0.49698509912E+02  0.41800000000E+01 0.  1.
</event>
<event>
11    1  0.8453735E-009  0.1478866E+03  0.7561462E-02  0.1099058E+00
         22   -1    0    0    0    0  0.00000000000E+00  0.00000000000E+00  0.48718089958E+03  0.48718089958E+03  0.00000000000E+00 0.  1.
         22   -1    0    0    0    0 -0.00000000000E+00 -0.00000000000E+00 -0.41956889985E+03  0.41956889985E+03  0.00000000000E+00 0. -1.
         24    2    1    2    0    0 -0.37109328971E+02  0.68283831736E+02 -0.36061176639E+03  0.37693550709E+03  0.77458030396E+02 0.  0.
         25    2    1    2    0    0  0.45284243138E+02 -0.87820920732E+02  0.93753757280E+02  0.18493517829E+03  0.12509227143E+03 0.  0.
        -24    2    1    2    0    0 -0.81749141665E+01  0.19537088996E+02  0.33447000885E+03  0.34487911405E+03  0.81381136752E+02 0.  0.
        -11    1    3    3    0    0 -0.55376852854E+01  0.26703853153E+01  0.24692093674E+01  0.66252479918E+01  0.00000000000E+00 0.  1.
         12    1    3    3    0    0 -0.31571643686E+02  0.65613446421E+02 -0.36308097576E+03  0.37031025910E+03  0.00000000000E+00 0. -1.
         13    1    5    5    0    0  0.16847925069E+02 -0.57452481441E+00  0.11708342658E+02  0.20524812927E+02  0.00000000000E+00 0. -1.
        -14    1    5    5    0    0 -0.25022839235E+02  0.20111613811E+02  0.32276166619E+03  0.32435430112E+03  0.00000000000E+00 0.  1.
          5    1    4    4  501    0  0.10862621170E+02 -0.11446340227E+03  0.75098382403E+02  0.13739398254E+03  0.41800000000E+01 0. -1.
         -5    1    4    4    0  501  0.34421621968E+02  0.26642481542E+02  0.18655374877E+02  0.47541195751E+02  0.41800000000E+01 0. -1.
</event>
<event>
11    1  0.8453735E-009  0.1328484E+03  0.7561462E-02  0.1115818E+00
         22   -1    0    0    0    0  0.00000000000E+00  0.00000000000E+00  0.52817755876E+03  0.52817755876E+03  0.00000000000E+00 0.  1.
         22   -1    0    0    0    0 -0.00000000000E+00 -0.00000000000E+00 -0.27236371950E+03  0.27236371950E+03  0.00000000000E+00 0.  1.
        -24    2    1    2    0    0  0.34924144152E+02  0.12019417640E+02 -0.11981936805E+03  0.16626610864E+03  0.10919512662E+03 0.  0.
         25    2    1    2    0    0 -0.57667464698E+02 -0.70962720965E+01 -0.87638939952E+02  0.16341382802E+03  0.12509037465E+03 0.  0.
         24    2    1    2    0    0  0.22743320546E+02 -0.49231455438E+01  0.46327214726E+03  0.47086134161E+03  0.80918629496E+02 0.  0.
        -11    1    5    5    0    0  0.32205195548E+02 -0.84822350447E+01  0.45845522544E+03  0.45966326443E+03  0.00000000000E+00 0.  1.
         12    1    5    5    0    0 -0.94618750016E+01  0.35590895009E+01  0.48169218190E+01  0.11198077176E+02  0.00000000000E+00 0. -1.
         13    1    3    3    0    0 -0.70952487260E+01  0.54809229039E+02 -0.55440684343E+02  0.78281949534E+02  0.00000000000E+00 0. -1.
        -14    1    3    3    0    0  0.42019392878E+02 -0.42789811399E+02 -0.64378683705E+02  0.87984159102E+02  0.00000000000E+00 0.  1.
          5    1    4    4  501    0 -0.31264535699E+02  0.65104946587E+00 -0.11804788069E+03  0.12219111913E+03  0.41800000000E+01 0.  1.
         -5    1    4    4    0  501 -0.26402928999E+02 -0.77473215624E+01  0.30408940741E+02  0.41222708888E+02  0.41800000000E+01 0.  1.
</event>
<event>
11    1  0.8453735E-009  0.1428282E+03  0.7561462E-02  0.1104441E+00
         22   -1    0    0    0    0  0.00000000000E+00  0.00000000000E+00  0.11832540567E+04  0.11832540567E+04  0.00000000000E+00 0. -1.
         22   -1    0    0    0    0 -0.00000000000E+00 -0.00000000000E+00 -0.24801047099E+03  0.24801047099E+03  0.00000000000E+00 0. -1.
         24    2    1    2    0    0  0.63216469910E+02 -0.22530678800E+02 -0.18953641402E+03  0.21591660196E+03  0.78689092058E+02 0.  0.
         25    2    1    2    0    0 -0.79226496794E+02  0.38176471730E+02  0.90446504614E+02  0.17765779005E+03  0.12508972532E+03 0.  0.
        -24    2    1    2    0    0  0.16010026884E+02 -0.15645792930E+02  0.10343334951E+04  0.10376901357E+04  0.80336335132E+02 0.  0.
        -13    1    3    3    0    0 -0.82803559237E+01 -0.29517185771E+02 -0.44140788066E+02  0.53742327091E+02  0.00000000000E+00 0.  1.
         14    1    3    3    0    0  0.71496825834E+02  0.69865069712E+01 -0.14539562595E+03  0.16217427487E+03  0.00000000000E+00 0. -1.
         13    1    5    5    0    0  0.19701591904E+02  0.57541802309E+01  0.96074726260E+03  0.96096647491E+03  0.00000000000E+00 0. -1.
        -14    1    5    5    0    0 -0.36915650201E+01 -0.21399973161E+02  0.73586232544E+02  0.76723660780E+02  0.00000000000E+00 0.  1.
          5    1    4    4  501    0 -0.11271439141E+03  0.32848601053E+02  0.79228411050E+02  0.14169748812E+03  0.41800000000E+01 0. -1.
         -5    1    4    4    0  501  0.33487894615E+02  0.53278706772E+01  0.11218093564E+02  0.35960301930E+02  0.41800000000E+01 0. -1.
</event>
<event>
11    1  0.8453735E-009  0.1851612E+03  0.7561462E-02  0.1065543E+00
         22   -1    0    0    0    0  0.00000000000E+00  0.00000000000E+00  0.21049835876E+03  0.21049835876E+03  0.00000000000E+00 0. -1.
         22   -1    0    0    0    0 -0.00000000000E+00 -0.00000000000E+00 -0.50725899378E+03  0.50725899378E+03  0.00000000000E+00 0. -1.
         24    2    1    2    0    0  0.33494248327E+02  0.25197163845E+02 -0.30747672811E+03  0.32065407619E+03  0.80748600680E+02 0.  0.
         25    2    1    2    0    0 -0.11247034478E+03  0.86082463831E+02 -0.90634142932E+02  0.20957579884E+03  0.12509076129E+03 0.  0.
        -24    2    1    2    0    0  0.78976096458E+02 -0.11127962768E+03  0.10135023602E+03  0.18752747751E+03  0.79210511489E+02 0.  0.
        -11    1    3    3    0    0 -0.47487057801E+01 -0.14374251263E+02 -0.10030206877E+02  0.18159690415E+02  0.00000000000E+00 0.  1.
         12    1    3    3    0    0  0.38242954107E+02  0.39571415109E+02 -0.29744652123E+03  0.30249438577E+03  0.00000000000E+00 0. -1.
         13    1    5    5    0    0  0.90132587684E+02 -0.85602230261E+02  0.99935785448E+02  0.15949541185E+03  0.00000000000E+00 0. -1.
        -14    1    5    5    0    0 -0.11156491226E+02 -0.25677397415E+02  0.14144505763E+01  0.28032065656E+02  0.00000000000E+00 0.  1.
          5    1    4    4  501    0 -0.13041447282E+03  0.39914605053E+02 -0.81793478588E+02  0.15908725894E+03  0.41800000000E+01 0.  1.
         -5    1    4    4    0  501  0.17944128038E+02  0.46167858779E+02 -0.88406643432E+01  0.50488539900E+02  0.41800000000E+01 0.  1.
</event>
<event>
11    1  0.8453735E-009  0.1334259E+03  0.7561462E-02  0.1115130E+00
         22   -1    0    0    0    0  0.00000000000E+00  0.00000000000E+00  0.14262903910E+03  0.14262903910E+03  0.00000000000E+00 0.  1.
         22   -1    0    0    0    0 -0.00000000000E+00 -0.00000000000E+00 -0.22559243661E+04  0.22559243661E+04  0.00000000000E+00 0. -1.
        -24    2    1    2    0    0  0.23994952790E+02 -0.31999365261E+02 -0.14654480563E+04  0.14682676856E+04  0.81683987367E+02 0.  0.
         25    2    1    2    0    0 -0.35070793197E+02 -0.13625043927E+02 -0.76751618038E+03  0.77855170627E+03  0.12508425095E+03 0.  0.
         24    2    1    2    0    0  0.11075840407E+02  0.45624409188E+02  0.11966890971E+03  0.15173401328E+03  0.80612045508E+02 0.  0.
        -13    1    5    5    0    0 -0.58225987326E+01  0.32462889573E+02  0.12531562880E+03  0.12958297989E+03  0.00000000000E+00 0.  1.
         14    1    5    5    0    0  0.16898439139E+02  0.13161519615E+02 -0.56467190901E+01  0.22151033393E+02  0.00000000000E+00 0. -1.
         13    1    3    3    0    0  0.21697279976E+01 -0.25417455708E+02 -0.13660863739E+04  0.13663245353E+04  0.00000000000E+00 0. -1.
        -14    1    3    3    0    0  0.21825224793E+02 -0.65819095523E+01 -0.99361682378E+02  0.10194315031E+03  0.00000000000E+00 0.  1.
          5    1    4    4  501    0  0.35440799226E-01 -0.57307131197E+02 -0.19514749376E+03  0.20343088572E+03  0.41800000000E+01 0.  1.
         -5    1    4    4    0  501 -0.35106233996E+02  0.43682087270E+02 -0.57236868662E+03  0.57512082055E+03  0.41800000000E+01 0.  1.
</event>
<event>
11    1  0.8453735E-009  0.1354183E+03  0.7561462E-02  0.1112785E+00
         22   -1    0    0    0    0  0.00000000000E+00  0.00000000000E+00  0.29029466362E+03  0.29029466362E+03  0.00000000000E+00 0.  1.
         22   -1    0    0    0    0 -0.00000000000E+00 -0.00000000000E+00 -0.34367259496E+04  0.34367259496E+04  0.00000000000E+00 0. -1.
         24    2    1    2    0    0 -0.11118177593E+02  0.19015747749E+01 -0.16161779753E+04  0.16181232812E+04  0.78514174082E+02 0.  0.
         25    2    1    2    0    0 -0.18259404907E+02  0.40890469926E+02 -0.18087783080E+04  0.18136515850E+04  0.12509063785E+03 0.  0.
        -24    2    1    2    0    0  0.29377582500E+02 -0.42792044701E+02  0.27852499732E+03  0.29524574705E+03  0.83064285783E+02 0.  0.
        -13    1    3    3    0    0  0.63537139469E+01  0.19154285243E+02 -0.11586113776E+03  0.11760552524E+03  0.00000000000E+00 0.  1.
         14    1    3    3    0    0 -0.17471891540E+02 -0.17252710468E+02 -0.15003168375E+04  0.15005177560E+04  0.00000000000E+00 0. -1.
         13    1    5    5    0    0 -0.20195642460E+02  0.10521456444E+01  0.14302504367E+03  0.14444768639E+03  0.00000000000E+00 0. -1.
        -14    1    5    5    0    0  0.49573224959E+02 -0.43844190346E+02  0.13549995365E+03  0.15079806066E+03  0.00000000000E+00 0.  1.
          5    1    4    4  501    0 -0.19458606221E+01 -0.43927693924E+02 -0.77780440064E+03  0.77905749898E+03  0.41800000000E+01 0. -1.
         -5    1    4    4    0  501 -0.16313544285E+02  0.84818163850E+02 -0.10309739074E+04  0.10345940860E+04  0.41800000000E+01 0. -1.
</event>
<event>
11    1  0.8453735E-009  0.1473485E+03  0.7561462E-02  0.1099619E+00
         22   -1    0    0    0    0  0.00000000000E+00  0.00000000000E+00  0.13651068942E+03  0.13651068942E+03  0.00000000000E+00 0. -1.
         22   -1    0    0    0    0 -0.00000000000E+00 -0.00000000000E+00 -0.11761774518E+04  0.11761774518E+04  0.00000000000E+00 0. -1.
        -24    2    1    2    0    0  0.24866239745E+02  0.16343526925E+02 -0.81683857711E+03  0.82137767917E+03  0.80935715425E+02 0.  0.
         25    2    1    2    0    0 -0.26221064899E+02 -0.92874511564E+02 -0.31041115345E+03  0.34830496076E+03  0.12509213547E+03 0.  0.
         24    2    1    2    0    0  0.13548251543E+01  0.76530984639E+02  0.87582968180E+02  0.14300550131E+03  0.83192367005E+02 0.  0.
        -11    1    5    5    0    0 -0.22187686642E+02  0.18770672858E+02 -0.68253341727E+01  0.29853254172E+02  0.00000000000E+00 0.  1.
         12    1    5    5    0    0  0.23542511796E+02  0.57760311781E+02  0.94408302352E+02  0.11315224714E+03  0.00000000000E+00 0. -1.
         11    1    3    3    0    0  0.31976149385E+02  0.30093974059E+02 -0.78226983287E+03  0.78350125260E+03  0.00000000000E+00 0. -1.
        -12    1    3    3    0    0 -0.71099096399E+01 -0.13750447134E+02 -0.34568744237E+02  0.37876426568E+02  0.00000000000E+00 0.  1.
          5    1    4    4  501    0 -0.33640715567E+02 -0.12034728953E+03 -0.27888544374E+03  0.30563005574E+03  0.41800000000E+01 0. -1.
         -5    1    4    4    0  501  0.74196506678E+01  0.27472777967E+02 -0.31525709717E+02  0.42674905019E+02  0.41800000000E+01 0. -1.
</event>
<event>
11    1  0.8453735E-009  0.1268732E+03  0.7561462E-02  0.1123172E+00
         22   -1    0    0    0    0  0.00000000000E+00  0.00000000000E+00  0.28345492499E+04  0.28345492499E+04  0.00000000000E+00 0. -1.
         22   -1    0    0    0    0 -0.00000000000E+00 -0.00000000000E+00 -0.36612124670E+02  0.36612124670E+02  0.00000000000E+00 0. -1.
        -24    2    1    2    0    0  0.12466709248E+02 -0.19588560340E+02  0.53374985807E+02  0.10647654646E+03  0.89158484177E+02 0.  0.
         25    2    1    2    0    0 -0.18390077795E+02 -0.45372282540E+00  0.41972258090E+03  0.43835197647E+03  0.12508800717E+03 0.  0.
         24    2    1    2    0    0  0.59233685473E+01  0.20042283165E+02  0.23248395586E+04  0.23263328517E+04  0.80677036998E+02 0.  0.
        -11    1    5    5    0    0  0.49151113504E+01  0.26480773880E+02  0.24381214491E+03  0.24529523377E+03  0.00000000000E+00 0.  1.
         12    1    5    5    0    0  0.10082571969E+01 -0.64384907150E+01  0.20810274137E+04  0.20810376179E+04  0.00000000000E+00 0. -1.
         13    1    3    3    0    0 -0.11279035982E+02 -0.30238310573E+02  0.68962714306E+02  0.76140843464E+02  0.00000000000E+00 0. -1.
        -14    1    3    3    0    0  0.23745745230E+02  0.10649750233E+02 -0.15587728499E+02  0.30335702997E+02  0.00000000000E+00 0.  1.
          5    1    4    4  501    0 -0.20866616810E+01  0.51152950626E+02  0.85446991507E+02  0.99697739555E+02  0.41800000000E+01 0.  1.
         -5    1    4    4    0  501 -0.16303416114E+02 -0.51606673451E+02  0.33427558939E+03  0.33865423692E+03  0.41800000000E+01 0.  1.
</event>
<event>
11    1  0.8453735E-009  0.1257643E+03  0.7561462E-02  0.1124586E+00
         22   -1    0    0    0    0  0.00000000000E+00  0.00000000000E+00  0.18132929159E+03  0.18132929159E+03  0.00000000000E+00 0. -1.
         22   -1    0    0    0    0 -0.00000000000E+00 -0.00000000000E+00 -0.92462774039E+03  0.92462774039E+03  0.00000000000E+00 0.  1.
         24    2    1    2    0    0 -0.11995063622E+02 -0.48701441107E+01 -0.85936572002E+03  0.86341126193E+03  0.82474036075E+02 0.  0.
         25    2    1    2    0    0  0.60895448724E+01  0.33060063563E+02  0.53699134836E+02  0.14021281573E+03  0.12508391684E+03 0.  0.
        -24    2    1    2    0    0  0.59055187497E+01 -0.28189919452E+02  0.62368136376E+02  0.10233295433E+03  0.75846571422E+02 0.  0.
        -13    1    3    3    0    0  0.18075478688E+01  0.18269498799E+02 -0.76639950394E+03  0.76661935891E+03  0.00000000000E+00 0.  1.
         14    1    3    3    0    0 -0.13802611491E+02 -0.23139642910E+02 -0.92966216077E+02  0.96791903017E+02  0.00000000000E+00 0. -1.
         11    1    5    5    0    0  0.34225856712E+02 -0.31844770024E+02  0.56230308226E+02  0.73125550998E+02  0.00000000000E+00 0. -1.
        -12    1    5    5    0    0 -0.28320337963E+02  0.36548505712E+01  0.61378281507E+01  0.29207403333E+02  0.00000000000E+00 0.  1.
          5    1    4    4  501    0 -0.50110968350E+01 -0.46016086188E+02  0.53807893879E+01  0.46786927384E+02  0.41800000000E+01 0.  1.
         -5    1    4    4    0  501  0.11100641707E+02  0.79076149751E+02  0.48318345448E+02  0.93425888343E+02  0.41800000000E+01 0.  1.
</event>
<event>
11    1  0.8453735E-009  0.1529354E+03  0.7561462E-02  0.1093917E+00
         22   -1    0    0    0    0  0.00000000000E+00  0.00000000000E+00  0.26561754181E+04  0.26561754181E+04  0.00000000000E+00 0.  1.
         22   -1    0    0    0    0 -0.00000000000E+00 -0.00000000000E+00 -0.56581737182E+02  0.56581737182E+02  0.00000000000E+00 0.  1.
         24    2    1    2    0    0 -0.29057269804E+02 -0.79545618753E+02  0.21978706974E+02  0.11261477248E+03  0.70902701149E+02 0.  0.
         25    2    1    2    0    0 -0.34892726869E+01  0.14475407586E+03  0.96535240903E+03  0.98413343520E+03  0.12508967647E+03 0.  0.
        -24    2    1    2    0    0  0.32546542491E+02 -0.65208457110E+02  0.16122625650E+04  0.16160089476E+04  0.82358485788E+02 0.  0.
        -11    1    3    3    0    0 -0.36456512633E+02 -0.86772117353E+02  0.69562410178E+01  0.94376199078E+02  0.00000000000E+00 0.  1.
         12    1    3    3    0    0  0.73992428291E+01  0.72264986007E+01  0.15022465956E+02  0.18238573406E+02  0.00000000000E+00 0. -1.
         13    1    5    5    0    0 -0.23725367724E+02  0.35905640424E-01  0.37575981407E+03  0.37650807725E+03  0.00000000000E+00 0. -1.
        -14    1    5    5    0    0  0.56271910215E+02 -0.65244362751E+02  0.12365027509E+04  0.12395008704E+04  0.00000000000E+00 0.  1.
          5    1    4    4  501    0 -0.31544479010E+02  0.63799080325E+01  0.63769465057E+02  0.71552599227E+02  0.41800000000E+01 0. -1.
         -5    1    4    4    0  501  0.28055206323E+02  0.13837416783E+03  0.90158294397E+03  0.91258083597E+03  0.41800000000E+01 0. -1.
</event>
<event>
11    1  0.8453735E-009  0.2494554E+03  0.7561462E-02  0.1024190E+00
         22   -1    0    0    0    0  0.00000000000E+00  0.00000000000E+00  0.16299765909E+04  0.16299765909E+04  0.00000000000E+00 0.  1.
         22   -1    0    0    0    0 -0.00000000000E+00 -0.00000000000E+00 -0.23844362450E+04  0.23844362450E+04  0.00000000000E+00 0. -1.
        -24    2    1    2    0    0 -0.14772780605E+00 -0.21514724818E+03 -0.21172790700E+04  0.21297561107E+04  0.81866177207E+02 0.  0.
         25    2    1    2    0    0 -0.12895900132E+02  0.22262164593E+03 -0.19691958685E+03  0.32272588999E+03  0.12509186589E+03 0.  0.
         24    2    1    2    0    0  0.13043627938E+02 -0.74743977545E+01  0.15597390027E+04  0.15619308351E+04  0.81339868634E+02 0.  0.
        -13    1    5    5    0    0  0.11983933268E+02 -0.19312019795E+02  0.15258312376E+04  0.15260005028E+04  0.00000000000E+00 0.  1.
         14    1    5    5    0    0  0.10596946704E+01  0.11837622041E+02  0.33907765130E+02  0.35930332373E+02  0.00000000000E+00 0. -1.
         11    1    3    3    0    0 -0.20085288418E+02 -0.15667284981E+03 -0.17691813798E+04  0.17762186114E+04  0.00000000000E+00 0. -1.
        -12    1    3    3    0    0  0.19937560612E+02 -0.58474398364E+02 -0.34809769014E+03  0.35353749938E+03  0.00000000000E+00 0.  1.
          5    1    4    4  501    0  0.52081135020E+02  0.79358193156E+02 -0.99841030610E+02  0.13782551012E+03  0.41800000000E+01 0.  1.
         -5    1    4    4    0  501 -0.64977035152E+02  0.14326345277E+03 -0.97078556236E+02  0.18490037988E+03  0.41800000000E+01 0.  1.
</event>
<event>
11    1  0.8453735E-009  0.1348570E+03  0.7561462E-02  0.1113441E+00
         22   -1    0    0    0    0  0.00000000000E+00  0.00000000000E+00  0.18631952708E+03  0.18631952708E+03  0.00000000000E+00 0. -1.
         22   -1    0    0    0    0 -0.00000000000E+00 -0.00000000000E+00 -0.90970127638E+03  0.90970127638E+03  0.00000000000E+00 0.  1.
        -24    2    1    2    0    0 -0.14935981681E+02  0.16896827972E+02 -0.38000276355E+03  0.38903349781E+03  0.80227026407E+02 0.  0.
         25    2    1    2    0    0  0.28957970272E+02  0.31834670225E+02 -0.50223460810E+03  0.51936490190E+03  0.12509312325E+03 0.  0.
         24    2    1    2    0    0 -0.14021988591E+02 -0.48731498197E+02  0.15885562235E+03  0.18762240375E+03  0.85998154361E+02 0.  0.
        -11    1    5    5    0    0  0.13772325533E+02 -0.12416159167E+02 -0.35685597815E+01  0.18883129454E+02  0.00000000000E+00 0.  1.
         12    1    5    5    0    0 -0.27794314124E+02 -0.36315339030E+02  0.16242418214E+03  0.16873927429E+03  0.00000000000E+00 0. -1.
         11    1    3    3    0    0  0.24548746142E+02 -0.17131031003E+02 -0.10748926908E+03  0.11157981953E+03  0.00000000000E+00 0. -1.
        -12    1    3    3    0    0 -0.39484727823E+02  0.34027858975E+02 -0.27251349448E+03  0.27745367828E+03  0.00000000000E+00 0.  1.
          5    1    4    4  501    0  0.26370027693E+02  0.10368504970E+02 -0.16346991800E+02  0.32978489910E+02  0.41800000000E+01 0.  1.
         -5    1    4    4    0  501  0.25879425791E+01  0.21466165255E+02 -0.48588761630E+03  0.48638641199E+03  0.41800000000E+01 0.  1.
</event>
<event>
11    1  0.8453735E-009  0.1833064E+03  0.7561462E-02  0.1066999E+00
         22   -1    0    0    0    0  0.00000000000E+00  0.00000000000E+00  0.55654237558E+03  0.55654237558E+03  0.00000000000E+00 0.  1.
         22   -1    0    0    0    0 -0.00000000000E+00 -0.00000000000E+00 -0.12551537736E+03  0.12551537736E+03  0.00000000000E+00 0. -1.
         24    2    1    2    0    0 -0.28225103299E+02  0.10381461057E+01 -0.21629070639E+02  0.88655399949E+02  0.81204858474E+02 0.  0.
         25    2    1    2    0    0  0.15436152427E+03 -0.18595046724E+02  0.13129161130E+03  0.23887845674E+03  0.12510864862E+03 0.  0.
        -24    2    1    2    0    0 -0.12613642097E+03  0.17556900619E+02  0.32136445756E+03  0.35452389625E+03  0.78698392428E+02 0.  0.
        -13    1    3    3    0    0 -0.12400568051E+02 -0.29623838844E+02  0.17428907346E+02  0.36539194396E+02  0.00000000000E+00 0.  1.
         14    1    3    3    0    0 -0.15824535248E+02  0.30661984950E+02 -0.39057977985E+02  0.52116205553E+02  0.00000000000E+00 0. -1.
         11    1    5    5    0    0 -0.48867257298E+01  0.27261621897E+02  0.69842380627E+02  0.75133442943E+02  0.00000000000E+00 0. -1.
        -12    1    5    5    0    0 -0.12124969524E+03 -0.97047212786E+01  0.25152207694E+03  0.27939045331E+03  0.00000000000E+00 0.  1.
          5    1    4    4  501    0 -0.19067788142E+02 -0.14917279613E+02  0.26663113631E+02  0.36256031280E+02  0.41800000000E+01 0.  1.
         -5    1    4    4    0  501  0.17342931241E+03 -0.36777671111E+01  0.10462849767E+03  0.20262242546E+03  0.41800000000E+01 0.  1.
</event>
<event>
11    1  0.8453735E-009  0.1816534E+03  0.7561462E-02  0.1068313E+00
         22   -1    0    0    0    0  0.00000000000E+00  0.00000000000E+00  0.15983685925E+03  0.15983685925E+03  0.00000000000E+00 0.  1.
         22   -1    0    0    0    0 -0.00000000000E+00 -0.00000000000E+00 -0.35436887139E+04  0.35436887139E+04  0.00000000000E+00 0. -1.
        -24    2    1    2    0    0  0.18079617604E+02 -0.46248249857E+02 -0.21696297075E+04  0.21716307258E+04  0.78874382189E+02 0.  0.
         25    2    1    2    0    0  0.81698018375E+02  0.13148213426E+03 -0.13237027260E+04  0.13385797471E+04  0.12507883418E+03 0.  0.
         24    2    1    2    0    0 -0.99777635979E+02 -0.85233884405E+02  0.10948057894E+03  0.19331510018E+03  0.90356732459E+02 0.  0.
        -13    1    5    5    0    0 -0.11600857235E+03 -0.82485416977E+02  0.93066886299E+02  0.17006845150E+03  0.00000000000E+00 0.  1.
         14    1    5    5    0    0  0.16230936368E+02 -0.27484674287E+01  0.16413692637E+02  0.23246648674E+02  0.00000000000E+00 0. -1.
         13    1    3    3    0    0  0.16623986887E+02  0.32170544776E+00 -0.16037267479E+04  0.16038129387E+04  0.00000000000E+00 0. -1.
        -14    1    3    3    0    0  0.14556307164E+01 -0.46569955305E+02 -0.56590295964E+03  0.56781778708E+03  0.00000000000E+00 0.  1.
          5    1    4    4  501    0  0.78415480274E+02  0.12352277900E+03 -0.13203506168E+04  0.13284389667E+04  0.41800000000E+01 0.  1.
         -5    1    4    4    0  501  0.32825381017E+01  0.79593552667E+01 -0.33521092324E+01  0.10140780490E+02  0.41800000000E+01 0.  1.
</event>
<event>
11    1  0.8453735E-009  0.1524558E+03  0.7561462E-02  0.1094396E+00
         22   -1    0    0    0    0  0.00000000000E+00  0.00000000000E+00  0.14576634302E+04  0.14576634302E+04  0.00000000000E+00 0. -1.
         22   -1    0    0    0    0 -0.00000000000E+00 -0.00000000000E+00 -0.97579315828E+03  0.97579315828E+03  0.00000000000E+00 0. -1.
        -24    2    1    2    0    0  0.18664158403E+02  0.46715964392E+02 -0.93213655467E+03  0.93680637993E+03  0.78720421590E+02 0.  0.
         25    2    1    2    0    0  0.49158514379E+02  0.12976525718E+02  0.80470201344E+02  0.15718896558E+03  0.12509183762E+03 0.  0.
         24    2    1    2    0    0 -0.67822672782E+02 -0.59692490109E+02  0.13335366253E+04  0.13394612430E+04  0.87597843656E+02 0.  0.
        -11    1    5    5    0    0 -0.33274321449E+02 -0.77627955993E+02  0.78050906597E+03  0.78506539987E+03  0.00000000000E+00 0.  1.
         12    1    5    5    0    0 -0.34548351333E+02  0.17935465883E+02  0.55302755930E+03  0.55439584311E+03  0.00000000000E+00 0. -1.
         13    1    3    3    0    0  0.41780123203E+01  0.29168886537E+02 -0.87217525604E+03  0.87267288086E+03  0.00000000000E+00 0. -1.
        -14    1    3    3    0    0  0.14486146083E+02  0.17547077855E+02 -0.59961298632E+02  0.64133499072E+02  0.00000000000E+00 0.  1.
          5    1    4    4  501    0  0.53635671374E+02 -0.38566133093E+02  0.81848564625E+02  0.10526533996E+03  0.41800000000E+01 0.  1.
         -5    1    4    4    0  501 -0.44771569944E+01  0.51542658811E+02 -0.13783632807E+01  0.51923625619E+02  0.41800000000E+01 0.  1.
</event>
<event>
11    1  0.8453735E-009  0.1641799E+03  0.7561462E-02  0.1083210E+00
         22   -1    0    0    0    0  0.00000000000E+00  0.00000000000E+00  0.72537375782E+03  0.72537375782E+03  0.00000000000E+00 0. -1.
         22   -1    0    0    0    0 -0.00000000000E+00 -0.00000000000E+00 -0.90064321829E+03  0.90064321829E+03  0.00000000000E+00 0. -1.
         24    2    1    2    0    0  0.92558976966E+02  0.51536291910E+02 -0.86176039673E+03  0.87186485276E+03  0.79335909353E+02 0.  0.
         25    2    1    2    0    0 -0.11994374292E+03 -0.47010731900E+02  0.24379866720E+03  0.30279100582E+03  0.12509233669E+03 0.  0.
        -24    2    1    2    0    0  0.27384765952E+02 -0.45255600106E+01  0.44269226906E+03  0.45136111751E+03  0.83546437519E+02 0.  0.
        -11    1    3    3    0    0  0.27430093516E+02 -0.19874018044E+02 -0.29293370890E+03  0.29488564636E+03  0.00000000000E+00 0.  1.
         12    1    3    3    0    0  0.65128883450E+02  0.71410309954E+02 -0.56882668783E+03  0.57697920640E+03  0.00000000000E+00 0. -1.
         13    1    5    5    0    0  0.11431346940E+02 -0.17766020095E+02  0.42035414858E+03  0.42088468419E+03  0.00000000000E+00 0. -1.
        -14    1    5    5    0    0  0.15953419012E+02  0.13240460084E+02  0.22338120479E+02  0.30476433321E+02  0.00000000000E+00 0.  1.
          5    1    4    4  501    0 -0.13055260435E+03 -0.68174410160E+02  0.23464053000E+03  0.27706566626E+03  0.41800000000E+01 0.  1.
         -5    1    4    4    0  501  0.10608861437E+02  0.21163678261E+02  0.91581372079E+01  0.25725339563E+02  0.41800000000E+01 0.  1.
</event>
<event>
11    1  0.8453735E-009  0.2360335E+04  0.7561462E-02  0.7933465E-01
         22   -1    0    0    0    0  0.00000000000E+00  0.00000000000E+00  0.69920115137E+03  0.69920115137E+03  0.00000000000E+00 0.  1.
         22   -1    0    0    0    0 -0.00000000000E+00 -0.00000000000E+00 -0.19919801839E+04  0.19919801839E+04  0.00000000000E+00 0.  1.
        -24    2    1    2    0    0  0.49320313078E+03 -0.82831354680E+03 -0.11196048955E+04  0.14796434852E+04  0.80480191330E+02 0.  0.
         25    2    1    2    0    0 -0.46268540075E+03  0.93253120190E+03 -0.90580530960E+02  0.10523996592E+04  0.12509191664E+03 0.  0.
         24    2    1    2    0    0 -0.30517730028E+02 -0.10421765510E+03 -0.82593606070E+02  0.15913819084E+03  0.81918304057E+02 0.  0.
        -13    1    5    5    0    0 -0.58644573073E+02 -0.71249698398E+02 -0.61872057922E+02  0.11110291186E+03  0.00000000000E+00 0.  1.
         14    1    5    5    0    0  0.28126843046E+02 -0.32967956701E+02 -0.20721548147E+02  0.48035278977E+02  0.00000000000E+00 0. -1.
         11    1    3    3    0    0  0.19417650965E+03 -0.40242514831E+03 -0.50309923914E+03  0.67287395648E+03  0.00000000000E+00 0. -1.
        -12    1    3    3    0    0  0.29902662113E+03 -0.42588839849E+03 -0.61650565639E+03  0.80676952872E+03  0.00000000000E+00 0.  1.
          5    1    4    4  501    0  0.70974197984E+01  0.17227925487E+02  0.29648945481E+01  0.19324538392E+02  0.41800000000E+01 0.  1.
         -5    1    4    4    0  501 -0.46978282055E+03  0.91530327641E+03 -0.93545425508E+02  0.10330751209E+04  0.41800000000E+01 0.  1.
</event>
<event>
11    1  0.8453735E-009  0.2247095E+03  0.7561462E-02  0.1038307E+00
         22   -1    0    0    0    0  0.00000000000E+00  0.00000000000E+00  0.49317371437E+03  0.49317371437E+03  0.00000000000E+00 0.  1.
         22   -1    0    0    0    0 -0.00000000000E+00 -0.00000000000E+00 -0.26078521313E+03  0.26078521313E+03  0.00000000000E+00 0. -1.
         24    2    1    2    0    0 -0.10174604346E+03 -0.16388394391E+03 -0.15746416559E+03  0.25770512333E+03  0.66383452114E+02 0.  0.
         25    2    1    2    0    0  0.11898504786E+03  0.10661020656E+03  0.22211143913E+03  0.30083812796E+03  0.12508760963E+03 0.  0.
        -24    2    1    2    0    0 -0.17239004404E+02  0.57273737347E+02  0.16774122770E+03  0.19541567621E+03  0.80453109171E+02 0.  0.
        -13    1    3    3    0    0  0.65371608781E+01 -0.13902138804E+02 -0.95252478367E+00  0.15391921229E+02  0.00000000000E+00 0.  1.
         14    1    3    3    0    0 -0.10828320434E+03 -0.14998180511E+03 -0.15651164081E+03  0.24231320210E+03  0.00000000000E+00 0. -1.
         11    1    5    5    0    0 -0.39241031294E+02  0.43051891757E+01  0.94311256024E+02  0.10223994427E+03  0.00000000000E+00 0. -1.
        -12    1    5    5    0    0  0.22002026890E+02  0.52968548171E+02  0.73429971678E+02  0.93175731944E+02  0.00000000000E+00 0.  1.
          5    1    4    4  501    0  0.65453526271E+02  0.35155798282E+02  0.19297973238E+03  0.20683022933E+03  0.41800000000E+01 0.  1.
         -5    1    4    4    0  501  0.53531521593E+02  0.71454408282E+02  0.29131706749E+02  0.94007898631E+02  0.41800000000E+01 0.  1.
</event>
<event>
11    1  0.8453735E-009  0.1403335E+03  0.7561462E-02  0.1107187E+00
         22   -1    0    0    0    0  0.00000000000E+00  0.00000000000E+00  0.10955893821E+04  0.10955893821E+04  0.00000000000E+00 0. -1.
         22   -1    0    0    0    0 -0.00000000000E+00 -0.00000000000E+00 -0.24515193893E+03  0.24515193893E+03  0.00000000000E+00 0.  1.
         24    2    1    2    0    0  0.81873217485E+01  0.61232048983E+02 -0.17004481033E+03  0.19768483736E+03  0.79672211836E+02 0.  0.
         25    2    1    2    0    0  0.17017104916E+02 -0.78218364160E+02  0.33371910657E+02  0.15220639758E+03  0.12508160813E+03 0.  0.
        -24    2    1    2    0    0 -0.25204426665E+02  0.16986315176E+02  0.98711034286E+03  0.99085008611E+03  0.80456610270E+02 0.  0.
        -11    1    3    3    0    0 -0.10434294742E+02  0.35358629461E+02 -0.16010298995E+03  0.16429264918E+03  0.00000000000E+00 0.  1.
         12    1    3    3    0    0  0.18621616491E+02  0.25873419522E+02 -0.99418203830E+01  0.33392188174E+02  0.00000000000E+00 0. -1.
         13    1    5    5    0    0 -0.32906235802E+02  0.23518562053E+02  0.97096090266E+03  0.97180297262E+03  0.00000000000E+00 0. -1.
        -14    1    5    5    0    0  0.77018091373E+01 -0.65322468766E+01  0.16149440209E+02  0.19047113490E+02  0.00000000000E+00 0.  1.
          5    1    4    4  501    0  0.57592802783E+02 -0.45636295544E+02 -0.21291386484E+02  0.76618522185E+02  0.41800000000E+01 0.  1.
         -5    1    4    4    0  501 -0.40575697867E+02 -0.32582068616E+02  0.54663297140E+02  0.75587875396E+02  0.41800000000E+01 0.  1.
</event>
<event>
11    1  0.8453735E-009  0.1623236E+03  0.7561462E-02  0.1084912E+00
         22   -1    0    0    0    0  0.00000000000E+00  0.00000000000E+00  0.10233024876E+04  0.10233024876E+04  0.00000000000E+00 0.  1.
         22   -1    0    0    0    0 -0.00000000000E+00 -0.00000000000E+00 -0.24127722490E+03  0.24127722490E+03  0.00000000000E+00 0. -1.
        -24    2    1    2    0    0 -0.23348200699E+02 -0.69071733584E+01 -0.21173930068E+03  0.22751756307E+03  0.79610693607E+02 0.  0.
         25    2    1    2    0    0 -0.82077060933E+02 -0.35124679086E+02  0.45154821914E+03  0.47697445111E+03  0.12505377161E+03 0.  0.
         24    2    1    2    0    0  0.10542526163E+03  0.42031852444E+02  0.54221634420E+03  0.56008769827E+03  0.82574229811E+02 0.  0.
        -13    1    5    5    0    0  0.85491065175E+02  0.26713915620E+02  0.51618700044E+03  0.52390015742E+03  0.00000000000E+00 0.  1.
         14    1    5    5    0    0  0.19934196457E+02  0.15317936824E+02  0.26029343756E+02  0.36187540858E+02  0.00000000000E+00 0. -1.
         13    1    3    3    0    0 -0.34028024021E+02 -0.27553525712E+01 -0.21324510931E+03  0.21596058675E+03  0.00000000000E+00 0. -1.
        -14    1    3    3    0    0  0.10679823322E+02 -0.41518207872E+01  0.15058086332E+01  0.11556976320E+02  0.00000000000E+00 0.  1.
          5    1    4    4  501    0 -0.77334353027E+02 -0.66208537765E+02  0.21066289980E+03  0.23400962028E+03  0.41800000000E+01 0.  1.
         -5    1    4    4    0  501 -0.47427079058E+01  0.31083858679E+02  0.24088531934E+03  0.24296483083E+03  0.41800000000E+01 0.  1.
</event>
<event>
11    1  0.8453735E-009  0.1727805E+03  0.7561462E-02  0.1075637E+00
         22   -1    0    0    0    0  0.00000000000E+00  0.00000000000E+00  0.59294656186E+03  0.59294656186E+03  0.00000000000E+00 0.  1.
         22   -1    0    0    0    0 -0.00000000000E+00 -0.00000000000E+00 -0.27800586778E+03  0.27800586778E+03  0.00000000000E+00 0.  1.
        -24    2    1    2    0    0  0.88506766408E+02 -0.81344169569E+02 -0.16603008404E+03  0.21994456358E+03  0.79745223167E+02 0.  0.
         25    2    1    2    0    0 -0.11594356042E+03  0.41466749328E+02  0.16244394247E+02  0.17627741772E+03  0.12508975638E+03 0.  0.
         24    2    1    2    0    0  0.27436794008E+02  0.39877420242E+02  0.46472638387E+03  0.47473044835E+03  0.83996430929E+02 0.  0.
        -13    1    5    5    0    0  0.28343354064E+02  0.33574262053E+02  0.46614097510E+03  0.46820720356E+03  0.00000000000E+00 0.  1.
         14    1    5    5    0    0 -0.90656005627E+00  0.63031581882E+01 -0.14145912276E+01  0.65232447924E+01  0.00000000000E+00 0. -1.
         13    1    3    3    0    0 -0.96493896987E+01 -0.30699926607E+02 -0.52299644637E+02  0.61407239348E+02  0.00000000000E+00 0. -1.
        -14    1    3    3    0    0  0.98156156107E+02 -0.50644242962E+02 -0.11373043941E+03  0.15853732423E+03  0.00000000000E+00 0.  1.
          5    1    4    4  501    0 -0.14305999424E+03  0.34772012024E+02  0.13864445204E+02  0.14793562793E+03  0.41800000000E+01 0. -1.
         -5    1    4    4    0  501  0.27116433820E+02  0.66947373033E+01  0.23799490429E+01  0.28341789783E+02  0.41800000000E+01 0. -1.
</event>
<event>
11    1  0.8453735E-009  0.1549787E+03  0.7561462E-02  0.1091897E+00
         22   -1    0    0    0    0  0.00000000000E+00  0.00000000000E+00  0.73854334099E+03  0.73854334099E+03  0.00000000000E+00 0. -1.
         22   -1    0    0    0    0 -0.00000000000E+00 -0.00000000000E+00 -0.15500924178E+04  0.15500924178E+04  0.00000000000E+00 0. -1.
         24    2    1    2    0    0 -0.24105268280E+02 -0.87638243861E+02 -0.13393951879E+04  0.13448839195E+04  0.80447260849E+02 0.  0.
         25    2    1    2    0    0  0.17191599353E+02  0.97093376170E+02 -0.17526436539E+03  0.23682872022E+03  0.12509024807E+03 0.  0.
        -24    2    1    2    0    0  0.69136689273E+01 -0.94551323089E+01  0.70311047646E+03  0.70692311911E+03  0.72379250380E+02 0.  0.
        -13    1    3    3    0    0 -0.26656379050E+02 -0.13712806760E+01 -0.57743759835E+03  0.57805416956E+03  0.00000000000E+00 0.  1.
         14    1    3    3    0    0  0.25511107698E+01 -0.86266963185E+02 -0.76195758955E+03  0.76682974993E+03  0.00000000000E+00 0. -1.
         13    1    5    5    0    0 -0.11679475428E+02 -0.25865166556E+02  0.60705552418E+03  0.60771854211E+03  0.00000000000E+00 0. -1.
        -14    1    5    5    0    0  0.18593144355E+02  0.16410034248E+02  0.96054952278E+02  0.99204577002E+02  0.00000000000E+00 0.  1.
          5    1    4    4  501    0  0.43446509249E+02  0.84291711539E+02 -0.48344485363E+02  0.10652395724E+03  0.41800000000E+01 0.  1.
         -5    1    4    4    0  501 -0.26254909896E+02  0.12801664631E+02 -0.12691988003E+03  0.13030476299E+03  0.41800000000E+01 0.  1.
</event>
<event>
11    1  0.8453735E-009  0.1362502E+03  0.7561462E-02  0.1111819E+00
         22   -1    0    0    0    0  0.00000000000E+00  0.00000000000E+00  0.27934026855E+03  0.27934026855E+03  0.00000000000E+00 0.  1.
         22   -1    0    0    0    0 -0.00000000000E+00 -0.00000000000E+00 -0.25614760719E+04  0.25614760719E+04  0.00000000000E+00 0.  1.
         24    2    1    2    0    0 -0.56769261394E+02  0.29974044877E+01 -0.20424917355E+04  0.20448949134E+04  0.81184874558E+02 0.  0.
         25    2    1    2    0    0  0.34789218850E+02  0.16556372152E+02 -0.50289692950E+03  0.51965013356E+03  0.12508611593E+03 0.  0.
        -24    2    1    2    0    0  0.21980042544E+02 -0.19553776639E+02  0.26325286161E+03  0.27627129353E+03  0.78474747732E+02 0.  0.
        -13    1    3    3    0    0  0.11261415630E+01 -0.11088838766E+02 -0.12898976290E+04  0.12899457833E+04  0.00000000000E+00 0.  1.
         14    1    3    3    0    0 -0.57895402957E+02  0.14086243254E+02 -0.75259410644E+03  0.75494913006E+03  0.00000000000E+00 0. -1.
         13    1    5    5    0    0 -0.17089398977E+02  0.89882545077E+01  0.17112274248E+03  0.17220867942E+03  0.00000000000E+00 0. -1.
        -14    1    5    5    0    0  0.39069441521E+02 -0.28542031147E+02  0.92130119130E+02  0.10406261410E+03  0.00000000000E+00 0.  1.
          5    1    4    4  501    0  0.67972149576E+02  0.20260293344E+02 -0.15951040797E+03  0.17461882847E+03  0.41800000000E+01 0. -1.
         -5    1    4    4    0  501 -0.33182930726E+02 -0.37039211920E+01 -0.34338652153E+03  0.34503130509E+03  0.41800000000E+01 0. -1.
</event>
<event>
11    1  0.8453735E-009  0.1303064E+03  0.7561462E-02  0.1118893E+00
         22   -1    0    0    0    0  0.00000000000E+00  0.00000000000E+00  0.10254817795E+03  0.10254817795E+03  0.00000000000E+00 0. -1.
         22   -1    0    0    0    0 -0.00000000000E+00 -0.00000000000E+00 -0.10344756379E+04  0.10344756379E+04  0.00000000000E+00 0.  1.
        -24    2    1    2    0    0  0.35087661307E+02 -0.13191368066E+02 -0.87660877500E+03  0.88103718436E+03  0.79865008918E+02 0.  0.
         25    2    1    2    0    0 -0.23796622710E+02  0.10860062717E+01 -0.99791226156E+02  0.16178149309E+03  0.12508998372E+03 0.  0.
         24    2    1    2    0    0 -0.11291038597E+02  0.12105361794E+02  0.44472541213E+02  0.94205138393E+02  0.81380426645E+02 0.  0.
        -13    1    5    5    0    0 -0.92245704533E+01 -0.25855605411E+02 -0.87379296877E+01  0.28808964689E+02  0.00000000000E+00 0.  1.
         14    1    5    5    0    0 -0.20664681439E+01  0.37960967205E+02  0.53210470900E+02  0.65396173704E+02  0.00000000000E+00 0. -1.
         13    1    3    3    0    0 -0.94390079833E+01 -0.29981593120E+02 -0.17381911796E+03  0.17663826472E+03  0.00000000000E+00 0. -1.
        -14    1    3    3    0    0  0.44526669291E+02  0.16790225054E+02 -0.70278965705E+03  0.70439891964E+03  0.00000000000E+00 0.  1.
          5    1    4    4  501    0  0.18248518521E+02  0.16291777629E+02  0.21254336694E+02  0.32674908949E+02  0.41800000000E+01 0. -1.
         -5    1    4    4    0  501 -0.42045141231E+02 -0.15205771358E+02 -0.12104556285E+03  0.12910658414E+03  0.41800000000E+01 0. -1.
</event>
<event>
11    1  0.8453735E-009  0.2136516E+03  0.7561462E-02  0.1045269E+00
         22   -1    0    0    0    0  0.00000000000E+00  0.00000000000E+00  0.31643891108E+03  0.31643891108E+03  0.00000000000E+00 0. -1.
         22   -1    0    0    0    0 -0.00000000000E+00 -0.00000000000E+00 -0.73647954875E+03  0.73647954875E+03  0.00000000000E+00 0. -1.
         24    2    1    2    0    0  0.66914829611E+01  0.56588909773E+02 -0.56711297811E+03  0.57564362824E+03  0.80631111477E+02 0.  0.
         25    2    1    2    0    0 -0.66189141375E+02 -0.20400770059E+03  0.33135364568E+01  0.24831232501E+03  0.12509151406E+03 0.  0.
        -24    2    1    2    0    0  0.59497658414E+02  0.14741879082E+03  0.14375880398E+03  0.22896250657E+03  0.80529276977E+02 0.  0.
        -11    1    3    3    0    0  0.39798560671E+02  0.36507020514E+02 -0.22711879095E+03  0.23345156496E+03  0.00000000000E+00 0.  1.
         12    1    3    3    0    0 -0.33107077709E+02  0.20081889259E+02 -0.33999418716E+03  0.34219206329E+03  0.00000000000E+00 0. -1.
         13    1    5    5    0    0  0.76943920542E+02  0.10577880706E+03  0.12191197201E+03  0.17880730368E+03  0.00000000000E+00 0. -1.
        -14    1    5    5    0    0 -0.17446262128E+02  0.41639983762E+02  0.21846831977E+02  0.50155202894E+02  0.00000000000E+00 0.  1.
          5    1    4    4  501    0  0.15131144422E+02 -0.12263583339E+02  0.32339267528E+02  0.37982201517E+02  0.41800000000E+01 0.  1.
         -5    1    4    4    0  501 -0.81320285797E+02 -0.19174411725E+03 -0.29025731071E+02  0.21033012349E+03  0.41800000000E+01 0.  1.
</event>
<event>
11    1  0.8453735E-009  0.1314834E+03  0.7561462E-02  0.1117460E+00
         22   -1    0    0    0    0  0.00000000000E+00  0.00000000000E+00  0.86010436472E+03  0.86010436472E+03  0.00000000000E+00 0.  1.
         22   -1    0    0    0    0 -0.00000000000E+00 -0.00000000000E+00 -0.98518734731E+03  0.98518734731E+03  0.00000000000E+00 0. -1.
        -24    2    1    2    0    0  0.46608383979E+02  0.11021605215E+01 -0.52525161327E+03  0.53347467515E+03  0.80823360293E+02 0.  0.
         25    2    1    2    0    0 -0.26050649139E+02 -0.13180555813E+02 -0.44469240896E+03  0.46287299661E+03  0.12509080317E+03 0.  0.
         24    2    1    2    0    0 -0.20557734840E+02  0.12078395291E+02  0.84486103964E+03  0.84894404026E+03  0.79669938525E+02 0.  0.
        -13    1    5    5    0    0  0.66516820202E+01  0.16784323738E+02  0.74815710762E+03  0.74837491679E+03  0.00000000000E+00 0.  1.
         14    1    5    5    0    0 -0.27209416860E+02 -0.47059284473E+01  0.96703932011E+02  0.10056912347E+03  0.00000000000E+00 0. -1.
         13    1    3    3    0    0 -0.77853913978E+01  0.29449082734E+02 -0.22219439070E+03  0.22427261994E+03  0.00000000000E+00 0. -1.
        -14    1    3    3    0    0  0.54393775377E+02 -0.28346922213E+02 -0.30305722257E+03  0.30920205521E+03  0.00000000000E+00 0.  1.
          5    1    4    4  501    0 -0.36904073957E+02 -0.58468026396E+02 -0.35531913826E+03  0.36200771151E+03  0.41800000000E+01 0.  1.
         -5    1    4    4    0  501  0.10853424818E+02  0.45287470584E+02 -0.89373270699E+02  0.10086528510E+03  0.41800000000E+01 0.  1.
</event>
<event>
11    1  0.8453735E-009  0.1286685E+03  0.7561462E-02  0.1120916E+00
         22   -1    0    0    0    0  0.00000000000E+00  0.00000000000E+00  0.49209531158E+03  0.49209531158E+03  0.00000000000E+00 0. -1.
         22   -1    0    0    0    0 -0.00000000000E+00 -0.00000000000E+00 -0.19282002970E+04  0.19282002970E+04  0.00000000000E+00 0. -1.
         24    2    1    2    0    0 -0.35462696832E+02 -0.20035082091E+02 -0.18558361908E+04  0.18579702371E+04  0.79160768654E+02 0.  0.
         25    2    1    2    0    0  0.58627223433E+02  0.33956298649E+02  0.10964794673E+02  0.14268168101E+03  0.12509058249E+03 0.  0.
        -24    2    1    2    0    0 -0.23164526600E+02 -0.13921216557E+02  0.40876641071E+03  0.41964369052E+03  0.90996993926E+02 0.  0.
        -13    1    3    3    0    0  0.43635575769E+01  0.20061295264E+02 -0.10290659302E+04  0.10292707054E+04  0.00000000000E+00 0.  1.
         14    1    3    3    0    0 -0.39826254409E+02 -0.40096377355E+02 -0.82677026059E+03  0.82869953168E+03  0.00000000000E+00 0. -1.
         11    1    5    5    0    0 -0.24895473325E+02 -0.39714855610E+02  0.37056176326E+03  0.37351449066E+03  0.00000000000E+00 0. -1.
        -12    1    5    5    0    0  0.17309467244E+01  0.25793639053E+02  0.38204647457E+02  0.46129199858E+02  0.00000000000E+00 0.  1.
          5    1    4    4  501    0  0.85140127112E+02  0.31432797480E+02 -0.28205425107E+02  0.95130859386E+02  0.41800000000E+01 0.  1.
         -5    1    4    4    0  501 -0.26512903679E+02  0.25235011685E+01  0.39170219780E+02  0.47550821625E+02  0.41800000000E+01 0.  1.
</event>
<event>
11    1  0.1117867E-008  0.1989033E+03  0.7561462E-02  0.1055302E+00
         22   -1    0    0    0    0  0.00000000000E+00  0.00000000000E+00  0.59244450933E+03  0.59244450933E+03  0.00000000000E+00 0.  1.
         22   -1    0    0    0    0 -0.00000000000E+00 -0.00000000000E+00 -0.74058696792E+03  0.74058696792E+03  0.00000000000E+00 0. -1.
         24    2    1    2    0    0 -0.10877570373E+03  0.61227293097E+02 -0.55718134593E+03  0.58010274498E+03  0.10240706687E+03 0.  0.
         25    2    1    2    0    0  0.23337143333E+03  0.20998885401E+02 -0.44191012358E+02  0.26926476394E+03  0.12508992143E+03 0.  0.
        -24    2    1    2    0    0 -0.12459572961E+03 -0.82226178498E+02  0.45322989970E+03  0.48366396833E+03  0.78919275288E+02 0.  0.
        -11    1    3    3    0    0  0.23592252956E+01 -0.15815922577E+02 -0.17364654542E+02  0.23605943708E+02  0.00000000000E+00 0.  1.
         12    1    3    3    0    0 -0.11113492902E+03  0.77043215674E+02 -0.53981669139E+03  0.55649680128E+03  0.00000000000E+00 0. -1.
         13    1    5    5    0    0 -0.28952381456E+01 -0.32709103530E+02  0.52296819834E+02  0.61751317576E+02  0.00000000000E+00 0. -1.
        -14    1    5    5    0    0 -0.12170049146E+03 -0.49517074968E+02  0.40093307986E+03  0.42191265075E+03  0.00000000000E+00 0.  1.
          5    1    4    4  501    0  0.16136234624E+03  0.56466431944E+02 -0.70093335139E+02  0.18481561826E+03  0.41800000000E+01 0. -1.
         -5    1    4    4    0  501  0.72009087095E+02 -0.35467546543E+02  0.25902322782E+02  0.84449145688E+02  0.41800000000E+01 0. -1.
</event>
<event>
11    1  0.8453735E-009  0.1529125E+03  0.7561462E-02  0.1093939E+00
         22   -1    0    0    0    0  0.00000000000E+00  0.00000000000E+00  0.60053643259E+02  0.60053643259E+02  0.00000000000E+00 0.  1.
         22   -1    0    0    0    0 -0.00000000000E+00 -0.00000000000E+00 -0.12666038610E+04  0.12666038610E+04  0.00000000000E+00 0. -1.
        -24    2    1    2    0    0 -0.93189017216E+02  0.27023462562E+02 -0.80668439858E+03  0.81652386307E+03  0.80975549390E+02 0.  0.
         25    2    1    2    0    0  0.63961144117E+02 -0.17027025179E+02 -0.41316455342E+03  0.43673161662E+03  0.12509440120E+03 0.  0.
         24    2    1    2    0    0  0.29227873100E+02 -0.99964373826E+01  0.13298734232E+02  0.73402024588E+02  0.65244184072E+02 0.  0.
        -13    1    5    5    0    0  0.22295181475E+02 -0.35941970210E+02 -0.22764037149E+01  0.42356609324E+02  0.00000000000E+00 0.  1.
         14    1    5    5    0    0  0.69326916245E+01  0.25945532827E+02  0.15575137947E+02  0.31045415264E+02  0.00000000000E+00 0. -1.
         13    1    3    3    0    0 -0.82626877806E+02  0.32911686917E+02 -0.79412181491E+03  0.79908687700E+03  0.00000000000E+00 0. -1.
        -14    1    3    3    0    0 -0.10562139410E+02 -0.58882243550E+01 -0.12562583665E+02  0.17436986073E+02  0.00000000000E+00 0.  1.
          5    1    4    4  501    0 -0.76961507576E+01 -0.57651030252E+02 -0.14958132433E+03  0.16054568513E+03  0.41800000000E+01 0. -1.
         -5    1    4    4    0  501  0.71657294874E+02  0.40624005072E+02 -0.26358322909E+03  0.27618593150E+03  0.41800000000E+01 0. -1.
</event>
<event>
11    1  0.8453735E-009  0.1494170E+03  0.7561462E-02  0.1097476E+00
         22   -1    0    0    0    0  0.00000000000E+00  0.00000000000E+00  0.19735053719E+04  0.19735053719E+04  0.00000000000E+00 0. -1.
         22   -1    0    0    0    0 -0.00000000000E+00 -0.00000000000E+00 -0.18698719542E+04  0.18698719542E+04  0.00000000000E+00 0. -1.
         24    2    1    2    0    0  0.16702744465E+02 -0.26032759151E+02 -0.18393228989E+04  0.18413834067E+04  0.81409078224E+02 0.  0.
         25    2    1    2    0    0  0.18786249851E+01  0.10407204575E+03  0.21339948709E+03  0.26836947823E+03  0.12509322849E+03 0.  0.
        -24    2    1    2    0    0 -0.18581369450E+02 -0.78039286599E+02  0.17295568294E+04  0.17336244412E+04  0.87472734301E+02 0.  0.
        -11    1    3    3    0    0 -0.14816116165E+02  0.47773735373E+01 -0.79564627302E+02  0.81073241663E+02  0.00000000000E+00 0.  1.
         12    1    3    3    0    0  0.31518860630E+02 -0.30810132688E+02 -0.17597582716E+04  0.17603101651E+04  0.00000000000E+00 0. -1.
         11    1    5    5    0    0 -0.45806216784E+01 -0.95644101706E+02  0.13378397243E+04  0.13412620565E+04  0.00000000000E+00 0. -1.
        -12    1    5    5    0    0 -0.14000747772E+02  0.17604815106E+02  0.39171710512E+03  0.39236238466E+03  0.00000000000E+00 0.  1.
          5    1    4    4  501    0  0.27748827125E+02  0.12375520741E+03  0.18839224282E+03  0.22714413557E+03  0.41800000000E+01 0.  1.
         -5    1    4    4    0  501 -0.25870202140E+02 -0.19683161656E+02  0.25007244267E+02  0.41225342660E+02  0.41800000000E+01 0.  1.
</event>
<event>
11    1  0.8453735E-009  0.1388641E+03  0.7561462E-02  0.1108834E+00
         22   -1    0    0    0    0  0.00000000000E+00  0.00000000000E+00  0.85349680235E+03  0.85349680235E+03  0.00000000000E+00 0. -1.
         22   -1    0    0    0    0 -0.00000000000E+00 -0.00000000000E+00 -0.26913429722E+03  0.26913429722E+03  0.00000000000E+00 0.  1.
        -24    2    1    2    0    0 -0.57938554088E+02 -0.18941466867E+02 -0.21143243090E+03  0.23518188599E+03  0.83013200408E+02 0.  0.
         25    2    1    2    0    0  0.40976536234E+02  0.46131536404E+02  0.69009287927E+02  0.15561848190E+03  0.12509050689E+03 0.  0.
         24    2    1    2    0    0  0.16962017854E+02 -0.27190069537E+02  0.72678564811E+03  0.73183073168E+03  0.79572806942E+02 0.  0.
        -13    1    5    5    0    0  0.36583087451E+02 -0.86118942070E+01  0.15818421437E+03  0.16258761541E+03  0.00000000000E+00 0.  1.
         14    1    5    5    0    0 -0.19621069597E+02 -0.18578175330E+02  0.56860143374E+03  0.56924311627E+03  0.00000000000E+00 0. -1.
         13    1    3    3    0    0 -0.37782077609E+02  0.25840141608E+02 -0.14826921825E+03  0.15517396492E+03  0.00000000000E+00 0. -1.
        -14    1    3    3    0    0 -0.20156476479E+02 -0.44781608475E+02 -0.63163212651E+02  0.80007921071E+02  0.00000000000E+00 0.  1.
          5    1    4    4  501    0  0.78661911138E+02  0.56724707701E+02  0.63178738341E+02  0.11582061175E+03  0.41800000000E+01 0. -1.
         -5    1    4    4    0  501 -0.37685374904E+02 -0.10593171297E+02  0.58305495852E+01  0.39797870147E+02  0.41800000000E+01 0. -1.
</event>
<event>
11    1  0.8453735E-009  0.2245206E+03  0.7561462E-02  0.1038422E+00
         22   -1    0    0    0    0  0.00000000000E+00  0.00000000000E+00  0.10063225832E+04  0.10063225832E+04  0.00000000000E+00 0. -1.
         22   -1    0    0    0    0 -0.00000000000E+00 -0.00000000000E+00 -0.50298416907E+03  0.50298416907E+03  0.00000000000E+00 0.  1.
        -24    2    1    2    0    0  0.78612594633E+00 -0.41394704944E+02 -0.44678849488E+03  0.45592353810E+03  0.80821864876E+02 0.  0.
         25    2    1    2    0    0 -0.18370474986E+03  0.63283142901E+02  0.34062904529E+03  0.41161623504E+03  0.12509031600E+03 0.  0.
         24    2    1    2    0    0  0.18291862392E+03 -0.21888437958E+02  0.60949786376E+03  0.64176697917E+03  0.80242650313E+02 0.  0.
        -13    1    5    5    0    0 -0.56499281049E+01 -0.50669613354E+01  0.61971144268E+02  0.62434113325E+02  0.00000000000E+00 0.  1.
         14    1    5    5    0    0  0.18856855202E+03 -0.16821476622E+02  0.54752671949E+03  0.57933286584E+03  0.00000000000E+00 0. -1.
         11    1    3    3    0    0 -0.11121762365E+02 -0.50084221318E+02 -0.14559957911E+03  0.15437409193E+03  0.00000000000E+00 0. -1.
        -12    1    3    3    0    0  0.11907888311E+02  0.86895163742E+01 -0.30118891577E+03  0.30154944617E+03  0.00000000000E+00 0.  1.
          5    1    4    4  501    0 -0.66474562964E+02  0.78205420100E+02  0.21944310736E+03  0.24229672929E+03  0.41800000000E+01 0. -1.
         -5    1    4    4    0  501 -0.11723018690E+03 -0.14922277199E+02  0.12118593793E+03  0.16931950575E+03  0.41800000000E+01 0. -1.
</event>
<event>
11    1  0.8453735E-009  0.1583992E+03  0.7561462E-02  0.1088593E+00
         22   -1    0    0    0    0  0.00000000000E+00  0.00000000000E+00  0.44081727952E+03  0.44081727952E+03  0.00000000000E+00 0. -1.
         22   -1    0    0    0    0 -0.00000000000E+00 -0.00000000000E+00 -0.19118109617E+04  0.19118109617E+04  0.00000000000E+00 0. -1.
         24    2    1    2    0    0 -0.53398746970E+02 -0.77554506152E+02 -0.15576908663E+04  0.15626000655E+04  0.80324354819E+02 0.  0.
         25    2    1    2    0    0  0.17026157801E+02  0.14335245143E+03 -0.31792845465E+03  0.37089846381E+03  0.12508937924E+03 0.  0.
        -24    2    1    2    0    0  0.36372589169E+02 -0.65797945278E+02  0.40462563881E+03  0.41912971194E+03  0.79344016791E+02 0.  0.
        -13    1    3    3    0    0 -0.23255011427E+02  0.12764383043E+02 -0.47067088707E+03  0.47141787086E+03  0.00000000000E+00 0.  1.
         14    1    3    3    0    0 -0.30143735543E+02 -0.90318889194E+02 -0.10870199792E+04  0.10911821946E+04  0.00000000000E+00 0. -1.
         13    1    5    5    0    0  0.16258516944E+02 -0.81849561604E+02  0.31747224481E+03  0.32825647950E+03  0.00000000000E+00 0. -1.
        -14    1    5    5    0    0  0.20114072226E+02  0.16051616326E+02  0.87153393995E+02  0.90873232434E+02  0.00000000000E+00 0.  1.
          5    1    4    4  501    0  0.70299921481E+02  0.84366741918E+02 -0.20709120512E+03  0.23444416337E+03  0.41800000000E+01 0. -1.
         -5    1    4    4    0  501 -0.53273763680E+02  0.58985709512E+02 -0.11083724953E+03  0.13645430044E+03  0.41800000000E+01 0. -1.
</event>
<event>
11    1  0.8453735E-009  0.1620701E+03  0.7561462E-02  0.1085146E+00
         22   -1    0    0    0    0  0.00000000000E+00  0.00000000000E+00  0.33663665967E+02  0.33663665967E+02  0.00000000000E+00 0. -1.
         22   -1    0    0    0    0 -0.00000000000E+00 -0.00000000000E+00 -0.16673915830E+04  0.16673915830E+04  0.00000000000E+00 0.  1.
         24    2    1    2    0    0 -0.88904323506E+02 -0.62225272593E+02 -0.11783897150E+04  0.11861034362E+04  0.80393268659E+02 0.  0.
         25    2    1    2    0    0  0.48434325299E+02  0.58485112598E+02 -0.23612995524E+03  0.27779664320E+03  0.12508887620E+03 0.  0.
        -24    2    1    2    0    0  0.40469998207E+02  0.37401599951E+01 -0.21920824675E+03  0.23715516953E+03  0.80861050199E+02 0.  0.
        -11    1    3    3    0    0 -0.52771829262E+02 -0.33903768811E+02 -0.99780035661E+03  0.99976991511E+03  0.00000000000E+00 0.  1.
         12    1    3    3    0    0 -0.36132494244E+02 -0.28321503782E+02 -0.18058935840E+03  0.18633352110E+03  0.00000000000E+00 0. -1.
         13    1    5    5    0    0  0.16863638382E+02  0.38499972933E+02 -0.65651776853E+02  0.77953742818E+02  0.00000000000E+00 0. -1.
        -14    1    5    5    0    0  0.23606359826E+02 -0.34759812938E+02 -0.15355646989E+03  0.15920142671E+03  0.00000000000E+00 0.  1.
          5    1    4    4  501    0 -0.20814303553E+02 -0.74634876467E+01 -0.14121609390E+03  0.14299788970E+03  0.41800000000E+01 0.  1.
         -5    1    4    4    0  501  0.69248628852E+02  0.65948600245E+02 -0.94913861331E+02  0.13479875350E+03  0.41800000000E+01 0.  1.
</event>
<event>
11    1  0.8453735E-009  0.1472934E+03  0.7561462E-02  0.1099677E+00
         22   -1    0    0    0    0  0.00000000000E+00  0.00000000000E+00  0.10986050847E+04  0.10986050847E+04  0.00000000000E+00 0.  1.
         22   -1    0    0    0    0 -0.00000000000E+00 -0.00000000000E+00 -0.63804606881E+02  0.63804606881E+02  0.00000000000E+00 0. -1.
         24    2    1    2    0    0  0.72916508944E+02 -0.37742087151E+02  0.19292818476E+02  0.11929998448E+03  0.84374113526E+02 0.  0.
         25    2    1    2    0    0 -0.36571722465E+02  0.38448233190E+02  0.42638392552E+03  0.44751149683E+03  0.12509008890E+03 0.  0.
        -24    2    1    2    0    0 -0.36344786479E+02 -0.70614603833E+00  0.58912373387E+03  0.59559821031E+03  0.79680688813E+02 0.  0.
        -13    1    3    3    0    0 -0.40065788977E+01  0.19546804728E+02  0.11598909786E+02  0.23079535476E+02  0.00000000000E+00 0.  1.
         14    1    3    3    0    0  0.76923087842E+02 -0.57288891879E+02  0.76939086896E+01  0.96220449005E+02  0.00000000000E+00 0. -1.
         13    1    5    5    0    0 -0.50554532570E+02 -0.25973160188E+02  0.44260277708E+03  0.44623713886E+03  0.00000000000E+00 0. -1.
        -14    1    5    5    0    0  0.14209746091E+02  0.25267014150E+02  0.14652095678E+03  0.14936107145E+03  0.00000000000E+00 0.  1.
          5    1    4    4  501    0 -0.20559260749E+02 -0.25171920305E+02  0.26174453893E+02  0.41939041608E+02  0.41800000000E+01 0.  1.
         -5    1    4    4    0  501 -0.16012461716E+02  0.63620153494E+02  0.40020947162E+03  0.40557245523E+03  0.41800000000E+01 0.  1.
</event>
<event>
11    1  0.1002373E-008  0.2167766E+03  0.7561462E-02  0.1043256E+00
         22   -1    0    0    0    0  0.00000000000E+00  0.00000000000E+00  0.68186448117E+03  0.68186448117E+03  0.00000000000E+00 0.  1.
         22   -1    0    0    0    0 -0.00000000000E+00 -0.00000000000E+00 -0.30411900221E+03  0.30411900221E+03  0.00000000000E+00 0. -1.
        -24    2    1    2    0    0  0.15744686189E+02  0.37878982861E+02 -0.96973577139E+02  0.12918927142E+03  0.74855064638E+02 0.  0.
         25    2    1    2    0    0 -0.19139529024E+03 -0.40324878312E+02 -0.98270300570E+02  0.25211624002E+03  0.12508914250E+03 0.  0.
         24    2    1    2    0    0  0.17565060405E+03  0.24458954515E+01  0.57298935667E+03  0.60467797194E+03  0.80371200012E+02 0.  0.
        -11    1    5    5    0    0  0.12375591952E+03 -0.92192373419E+01  0.49470927469E+03  0.51003704612E+03  0.00000000000E+00 0.  1.
         12    1    5    5    0    0  0.51894684535E+02  0.11665132793E+02  0.78280081981E+02  0.94640925825E+02  0.00000000000E+00 0. -1.
         13    1    3    3    0    0  0.36819991354E+02  0.49003903901E+02 -0.73982271001E+02  0.96075339101E+02  0.00000000000E+00 0. -1.
        -14    1    3    3    0    0 -0.21075305165E+02 -0.11124921040E+02 -0.22991306138E+02  0.33113932323E+02  0.00000000000E+00 0.  1.
          5    1    4    4  501    0  0.11136676865E+02 -0.78903633019E+00 -0.33867761909E+02  0.35904677225E+02  0.41800000000E+01 0.  1.
         -5    1    4    4    0  501 -0.20253196710E+03 -0.39535841982E+02 -0.64402538661E+02  0.21621156279E+03  0.41800000000E+01 0.  1.
</event>
<event>
11    1  0.8453735E-009  0.1922928E+03  0.7561462E-02  0.1060112E+00
         22   -1    0    0    0    0  0.00000000000E+00  0.00000000000E+00  0.14401758433E+04  0.14401758433E+04  0.00000000000E+00 0. -1.
         22   -1    0    0    0    0 -0.00000000000E+00 -0.00000000000E+00 -0.20055257746E+03  0.20055257746E+03  0.00000000000E+00 0. -1.
        -24    2    1    2    0    0  0.98291325029E+02  0.10463178102E+03 -0.14019987147E+03  0.21617768401E+03  0.80422589676E+02 0.  0.
         25    2    1    2    0    0 -0.14251138249E+03 -0.12729794689E+03  0.65833322530E+03  0.69682433768E+03  0.12508901085E+03 0.  0.
         24    2    1    2    0    0  0.44220057461E+02  0.22666165865E+02  0.72148991199E+03  0.72772639904E+03  0.81048443520E+02 0.  0.
        -13    1    5    5    0    0 -0.20452697997E+02 -0.42258753649E+01  0.91408068444E+02  0.93763563576E+02  0.00000000000E+00 0.  1.
         14    1    5    5    0    0  0.64672755458E+02  0.26892041230E+02  0.63008184354E+03  0.63396283546E+03  0.00000000000E+00 0. -1.
         13    1    3    3    0    0  0.96747805467E+02  0.10434246340E+03 -0.95319067586E+02  0.17126941402E+03  0.00000000000E+00 0. -1.
        -14    1    3    3    0    0  0.15435195624E+01  0.28931762002E+00 -0.44880803879E+02  0.44908269997E+02  0.00000000000E+00 0.  1.
          5    1    4    4  501    0  0.13626409208E+02 -0.29367074587E+02  0.40195769527E+02  0.51781042724E+02  0.41800000000E+01 0. -1.
         -5    1    4    4    0  501 -0.15613779170E+03 -0.97930872302E+02  0.61813745577E+03  0.64504329496E+03  0.41800000000E+01 0. -1.
</event>
<event>
11    1  0.8453735E-009  0.1260938E+03  0.7561462E-02  0.1124164E+00
         22   -1    0    0    0    0  0.00000000000E+00  0.00000000000E+00  0.17711000350E+03  0.17711000350E+03  0.00000000000E+00 0. -1.
         22   -1    0    0    0    0 -0.00000000000E+00 -0.00000000000E+00 -0.73329653255E+03  0.73329653255E+03  0.00000000000E+00 0.  1.
        -24    2    1    2    0    0 -0.32358791898E+02 -0.21666647288E+02 -0.63153722715E+03  0.63686213871E+03  0.72371122875E+02 0.  0.
         25    2    1    2    0    0  0.42954427995E+02  0.14133033737E+02 -0.32919455832E+02  0.13702971500E+03  0.12509447108E+03 0.  0.
         24    2    1    2    0    0 -0.10595636096E+02  0.75336135512E+01  0.10827015394E+03  0.13651468234E+03  0.82126788706E+02 0.  0.
        -13    1    5    5    0    0 -0.35276010525E+02 -0.17032609785E+02  0.25563343107E+02  0.46775968461E+02  0.00000000000E+00 0.  1.
         14    1    5    5    0    0  0.24680374429E+02  0.24566223336E+02  0.82706810829E+02  0.89738713878E+02  0.00000000000E+00 0. -1.
         13    1    3    3    0    0 -0.31691447946E+02  0.48375436219E+01 -0.10809093541E+03  0.11274484476E+03  0.00000000000E+00 0. -1.
        -14    1    3    3    0    0 -0.66734395158E+00 -0.26504190910E+02 -0.52344629174E+03  0.52411729396E+03  0.00000000000E+00 0.  1.
          5    1    4    4  501    0 -0.14082296054E+02  0.25802723247E+02 -0.64254100022E+02  0.70782436796E+02  0.41800000000E+01 0. -1.
         -5    1    4    4    0  501  0.57036724049E+02 -0.11669689511E+02  0.31334644190E+02  0.66247278208E+02  0.41800000000E+01 0. -1.
</event>
<event>
11    1  0.8453735E-009  0.1354182E+03  0.7561462E-02  0.1112785E+00
         22   -1    0    0    0    0  0.00000000000E+00  0.00000000000E+00  0.32017205089E+03  0.32017205089E+03  0.00000000000E+00 0. -1.
         22   -1    0    0    0    0 -0.00000000000E+00 -0.00000000000E+00 -0.83399868434E+03  0.83399868434E+03  0.00000000000E+00 0. -1.
        -24    2    1    2    0    0  0.71437617145E+00 -0.51845438780E+02 -0.47332245090E+03  0.48288495522E+03  0.80344742189E+02 0.  0.
         25    2    1    2    0    0  0.50423562172E+02  0.41825614633E+02 -0.33296637794E+03  0.36167164081E+03  0.12509136366E+03 0.  0.
         24    2    1    2    0    0 -0.51137938343E+02  0.10019824147E+02  0.29246219539E+03  0.30961413920E+03  0.87242729496E+02 0.  0.
        -11    1    5    5    0    0  0.20536851650E+02 -0.70442657343E+01  0.30168474804E+02  0.37168815254E+02  0.00000000000E+00 0.  1.
         12    1    5    5    0    0 -0.71674789993E+02  0.17064089881E+02  0.26229372058E+03  0.27244532395E+03  0.00000000000E+00 0. -1.
         11    1    3    3    0    0 -0.18575348525E+01  0.33656261385E+00 -0.33529882284E+03  0.33530413703E+03  0.00000000000E+00 0. -1.
        -12    1    3    3    0    0  0.25719110239E+01 -0.52182001394E+02 -0.13802362806E+03  0.14758081819E+03  0.00000000000E+00 0.  1.
          5    1    4    4  501    0  0.14142849753E+02  0.52747173953E+02 -0.31464882110E+03  0.31938008325E+03  0.41800000000E+01 0. -1.
         -5    1    4    4    0  501  0.36280712419E+02 -0.10921559319E+02 -0.18317556843E+02  0.42291557553E+02  0.41800000000E+01 0. -1.
</event>
<event>
11    1  0.8453735E-009  0.2705117E+03  0.7561462E-02  0.1013506E+00
         22   -1    0    0    0    0  0.00000000000E+00  0.00000000000E+00  0.81504660095E+03  0.81504660095E+03  0.00000000000E+00 0.  1.
         22   -1    0    0    0    0 -0.00000000000E+00 -0.00000000000E+00 -0.84736791518E+03  0.84736791518E+03  0.00000000000E+00 0. -1.
        -24    2    1    2    0    0  0.21860115160E+03  0.72090963063E+02 -0.43477098768E+03  0.49843882080E+03  0.80198977023E+02 0.  0.
         25    2    1    2    0    0 -0.21583735984E+03 -0.15222901756E+03 -0.31909825985E+03  0.43270187751E+03  0.12509106948E+03 0.  0.
         24    2    1    2    0    0 -0.27637917611E+01  0.80138054492E+02  0.72154793330E+03  0.73127381782E+03  0.87750955828E+02 0.  0.
        -13    1    5    5    0    0  0.64617230620E+01  0.54238899341E+02  0.16026032066E+03  0.16931326719E+03  0.00000000000E+00 0.  1.
         14    1    5    5    0    0 -0.92255148232E+01  0.25899155151E+02  0.56128761264E+03  0.56196055063E+03  0.00000000000E+00 0. -1.
         13    1    3    3    0    0  0.17679310971E+03  0.78478249401E+02 -0.39750911516E+03  0.44207254598E+03  0.00000000000E+00 0. -1.
        -14    1    3    3    0    0  0.41808041898E+02 -0.63872863379E+01 -0.37261872516E+02  0.56366274824E+02  0.00000000000E+00 0.  1.
          5    1    4    4  501    0 -0.94761606748E+02 -0.97447418400E+02 -0.76428240584E+02  0.15599522373E+03  0.41800000000E+01 0. -1.
         -5    1    4    4    0  501 -0.12107575310E+03 -0.54781599155E+02 -0.24267001927E+03  0.27670665378E+03  0.41800000000E+01 0. -1.
</event>
<event>
11    1  0.8453735E-009  0.1536273E+03  0.7561462E-02  0.1093229E+00
         22   -1    0    0    0    0  0.00000000000E+00  0.00000000000E+00  0.63082320144E+03  0.63082320144E+03  0.00000000000E+00 0.  1.
         22   -1    0    0    0    0 -0.00000000000E+00 -0.00000000000E+00 -0.33875924727E+03  0.33875924727E+03  0.00000000000E+00 0. -1.
        -24    2    1    2    0    0  0.32029571390E+02 -0.35180231949E+02 -0.27887957635E+03  0.29365383089E+03  0.78709669870E+02 0.  0.
         25    2    1    2    0    0  0.52567130446E+02  0.69310355025E+02  0.82710341000E+02  0.17337158477E+03  0.12509787120E+03 0.  0.
         24    2    1    2    0    0 -0.84596701836E+02 -0.34130123076E+02  0.48823318951E+03  0.50255703305E+03  0.76618906721E+02 0.  0.
        -13    1    5    5    0    0 -0.39843786813E+02  0.20455238238E+02  0.25403346954E+03  0.25795144459E+03  0.00000000000E+00 0.  1.
         14    1    5    5    0    0 -0.44752915023E+02 -0.54585361314E+02  0.23419971997E+03  0.24460558847E+03  0.00000000000E+00 0. -1.
         13    1    3    3    0    0 -0.11674252581E+02 -0.32261894222E+02 -0.20431799059E+03  0.20717856856E+03  0.00000000000E+00 0. -1.
        -14    1    3    3    0    0  0.43703823971E+02 -0.29183377268E+01 -0.74561585757E+02  0.86475262332E+02  0.00000000000E+00 0.  1.
          5    1    4    4  501    0  0.72872419760E+02  0.47876180326E+02  0.19854266267E+01  0.87315133415E+02  0.41800000000E+01 0. -1.
         -5    1    4    4    0  501 -0.20305289314E+02  0.21434174699E+02  0.80724914373E+02  0.86056451354E+02  0.41800000000E+01 0. -1.
</event>
<event>
11    1  0.8453735E-009  0.1283775E+03  0.7561462E-02  0.1121279E+00
         22   -1    0    0    0    0  0.00000000000E+00  0.00000000000E+00  0.61373217825E+02  0.61373217825E+02  0.00000000000E+00 0.  1.
         22   -1    0    0    0    0 -0.00000000000E+00 -0.00000000000E+00 -0.17859734746E+04  0.17859734746E+04  0.00000000000E+00 0. -1.
        -24    2    1    2    0    0 -0.42699071374E+01  0.27691963636E+02 -0.15511140848E+04  0.15534712690E+04  0.80826992600E+02 0.  0.
         25    2    1    2    0    0  0.26659176132E+02 -0.48263264069E+01 -0.16255518383E+03  0.20689528795E+03  0.12508983687E+03 0.  0.
         24    2    1    2    0    0 -0.22389268995E+02 -0.22865637229E+02 -0.10930988148E+02  0.86980135428E+02  0.80137012206E+02 0.  0.
        -11    1    5    5    0    0 -0.42502320719E+02 -0.26207314639E+02  0.16690846977E+02  0.52648409092E+02  0.00000000000E+00 0.  1.
         12    1    5    5    0    0  0.20113051724E+02  0.33416774097E+01 -0.27621835125E+02  0.34331726337E+02  0.00000000000E+00 0. -1.
         13    1    3    3    0    0  0.19292299906E+02  0.37707226117E+02 -0.43357805257E+03  0.43564200373E+03  0.00000000000E+00 0. -1.
        -14    1    3    3    0    0 -0.23562207044E+02 -0.10015262481E+02 -0.11175360322E+04  0.11178292653E+04  0.00000000000E+00 0.  1.
          5    1    4    4  501    0  0.32542374305E+02  0.28422097832E+02 -0.27357574898E+01  0.43494580578E+02  0.41800000000E+01 0.  1.
         -5    1    4    4    0  501 -0.58831981726E+01 -0.33248424239E+02 -0.15981942634E+03  0.16340070738E+03  0.41800000000E+01 0.  1.
</event>
<event>
11    1  0.8453735E-009  0.3905712E+03  0.7561462E-02  0.9677995E-01
         22   -1    0    0    0    0  0.00000000000E+00  0.00000000000E+00  0.16702432621E+03  0.16702432621E+03  0.00000000000E+00 0.  1.
         22   -1    0    0    0    0 -0.00000000000E+00 -0.00000000000E+00 -0.21077775503E+04  0.21077775503E+04  0.00000000000E+00 0.  1.
         24    2    1    2    0    0 -0.15106691623E+03 -0.41737555444E+02 -0.78642168374E+03  0.80589937630E+03  0.80321250961E+02 0.  0.
         25    2    1    2    0    0  0.27101451399E+03 -0.30372280490E+03 -0.95310233212E+03  0.10439104453E+04  0.12509417755E+03 0.  0.
        -24    2    1    2    0    0 -0.11994759776E+03  0.34546036034E+03 -0.20122920826E+03  0.42499205496E+03  0.79967279228E+02 0.  0.
        -11    1    3    3    0    0 -0.13614376212E+03 -0.45084512833E+02 -0.53117984789E+03  0.55019975287E+03  0.00000000000E+00 0.  1.
         12    1    3    3    0    0 -0.14923154112E+02  0.33469573894E+01 -0.25524183585E+03  0.25569962343E+03  0.00000000000E+00 0. -1.
         11    1    5    5    0    0 -0.13426663825E+02  0.15485985021E+03 -0.72428316163E+02  0.17148676185E+03  0.00000000000E+00 0. -1.
        -12    1    5    5    0    0 -0.10652093393E+03  0.19060051013E+03 -0.12880089209E+03  0.25350529310E+03  0.00000000000E+00 0.  1.
          5    1    4    4  501    0  0.15319267475E+03 -0.23074986849E+03 -0.73501435941E+03  0.78547888472E+03  0.41800000000E+01 0. -1.
         -5    1    4    4    0  501  0.11782183924E+03 -0.72972936406E+02 -0.21808797271E+03  0.25843156055E+03  0.41800000000E+01 0. -1.
</event>
<event>
11    1  0.8453735E-009  0.1405123E+03  0.7561462E-02  0.1106988E+00
         22   -1    0    0    0    0  0.00000000000E+00  0.00000000000E+00  0.52204885586E+03  0.52204885586E+03  0.00000000000E+00 0.  1.
         22   -1    0    0    0    0 -0.00000000000E+00 -0.00000000000E+00 -0.61270946005E+03  0.61270946005E+03  0.00000000000E+00 0.  1.
         24    2    1    2    0    0  0.39421178255E+02  0.12685386506E+02 -0.56121984975E+03  0.56826350257E+03  0.78998356130E+02 0.  0.
         25    2    1    2    0    0  0.29890965575E+02 -0.14056977842E+02  0.59634155355E+02  0.14246023927E+03  0.12509044264E+03 0.  0.
        -24    2    1    2    0    0 -0.69312143830E+02  0.13715913354E+01  0.41092509020E+03  0.42403457407E+03  0.78357103709E+02 0.  0.
        -13    1    3    3    0    0  0.46919942039E+02  0.24615632282E+02 -0.54116749216E+03  0.54375515160E+03  0.00000000000E+00 0.  1.
         14    1    3    3    0    0 -0.74987637838E+01 -0.11930245776E+02 -0.20052357589E+02  0.24508350973E+02  0.00000000000E+00 0. -1.
         11    1    5    5    0    0 -0.15981586930E+02 -0.35893731318E+02  0.16977722370E+03  0.17426438752E+03  0.00000000000E+00 0. -1.
        -12    1    5    5    0    0 -0.53330556900E+02  0.37265322653E+02  0.24114786650E+03  0.24977018655E+03  0.00000000000E+00 0.  1.
          5    1    4    4  501    0  0.65463706974E+02 -0.43430510922E+02  0.54823391786E+02  0.95889430579E+02  0.41800000000E+01 0.  1.
         -5    1    4    4    0  501 -0.35572741399E+02  0.29373533080E+02  0.48107635688E+01  0.46570808693E+02  0.41800000000E+01 0.  1.
</event>
<event>
11    1  0.8453735E-009  0.1551739E+03  0.7561462E-02  0.1091706E+00
         22   -1    0    0    0    0  0.00000000000E+00  0.00000000000E+00  0.19003355572E+03  0.19003355572E+03  0.00000000000E+00 0.  1.
         22   -1    0    0    0    0 -0.00000000000E+00 -0.00000000000E+00 -0.51305247229E+03  0.51305247229E+03  0.00000000000E+00 0.  1.
         24    2    1    2    0    0  0.17193359352E+02 -0.82359415043E+02 -0.25933521616E+03  0.28426524953E+03  0.80456776566E+02 0.  0.
         25    2    1    2    0    0  0.10598294170E+02  0.11415681799E+03 -0.19566465594E+03  0.25899264508E+03  0.12509368365E+03 0.  0.
        -24    2    1    2    0    0 -0.27791653522E+02 -0.31797402949E+02  0.13198095553E+03  0.15982813340E+03  0.79640497000E+02 0.  0.
        -11    1    3    3    0    0  0.19819163695E+02 -0.98209931028E+02 -0.21814774767E+03  0.24005505539E+03  0.00000000000E+00 0.  1.
         12    1    3    3    0    0 -0.26258043427E+01  0.15850515985E+02 -0.41187468489E+02  0.44210194140E+02  0.00000000000E+00 0. -1.
         13    1    5    5    0    0  0.77591972484E+01 -0.10256969026E+02 -0.70843915500E+01  0.14683295242E+02  0.00000000000E+00 0. -1.
        -14    1    5    5    0    0 -0.35550850771E+02 -0.21540433923E+02  0.13906534708E+03  0.14514483816E+03  0.00000000000E+00 0.  1.
          5    1    4    4  501    0  0.56723999450E+02  0.75485543245E+02 -0.63953964321E+02  0.11411950449E+03  0.41800000000E+01 0. -1.
         -5    1    4    4    0  501 -0.46125705279E+02  0.38671274746E+02 -0.13171069162E+03  0.14487314059E+03  0.41800000000E+01 0. -1.
</event>
<event>
11    1  0.8453735E-009  0.1562511E+03  0.7561462E-02  0.1090657E+00
         22   -1    0    0    0    0  0.00000000000E+00  0.00000000000E+00  0.96326467467E+03  0.96326467467E+03  0.00000000000E+00 0.  1.
         22   -1    0    0    0    0 -0.00000000000E+00 -0.00000000000E+00 -0.15267781768E+04  0.15267781768E+04  0.00000000000E+00 0.  1.
        -24    2    1    2    0    0 -0.29152040336E+02 -0.22467587999E+01 -0.14998065549E+04  0.15027977677E+04  0.90147318359E+02 0.  0.
         25    2    1    2    0    0 -0.36812741177E+02  0.74624536962E+02  0.27567134692E+03  0.31395208839E+03  0.12508885987E+03 0.  0.
         24    2    1    2    0    0  0.65964781514E+02 -0.72377778162E+02  0.66062170587E+03  0.67329299539E+03  0.85513298382E+02 0.  0.
        -11    1    5    5    0    0  0.27313367557E+02  0.70768709311E+01  0.32544548023E+03  0.32666628652E+03  0.00000000000E+00 0.  1.
         12    1    5    5    0    0  0.38651413957E+02 -0.79454649093E+02  0.33517622564E+03  0.34662670886E+03  0.00000000000E+00 0. -1.
         13    1    3    3    0    0 -0.37505746799E+02 -0.39281517849E+02 -0.70716830568E+03  0.70925082393E+03  0.00000000000E+00 0. -1.
        -14    1    3    3    0    0  0.83537064630E+01  0.37034759050E+02 -0.79263824925E+03  0.79354694376E+03  0.00000000000E+00 0.  1.
          5    1    4    4  501    0  0.14388371204E+02  0.39599951945E+02  0.13396854954E+02  0.44408665175E+02  0.41800000000E+01 0. -1.
         -5    1    4    4    0  501 -0.51201112382E+02  0.35024585017E+02  0.26227449196E+03  0.26954342322E+03  0.41800000000E+01 0. -1.
</event>
<event>
11    1  0.8453735E-009  0.1521555E+03  0.7561462E-02  0.1094696E+00
         22   -1    0    0    0    0  0.00000000000E+00  0.00000000000E+00  0.42087782039E+03  0.42087782039E+03  0.00000000000E+00 0.  1.
         22   -1    0    0    0    0 -0.00000000000E+00 -0.00000000000E+00 -0.27920938519E+03  0.27920938519E+03  0.00000000000E+00 0. -1.
        -24    2    1    2    0    0 -0.65909114180E+02 -0.26578018205E+02 -0.17927299612E+03  0.20896565269E+03  0.80482510404E+02 0.  0.
         25    2    1    2    0    0  0.13199303978E+03  0.67012302593E+02  0.52907814733E+02  0.20089603245E+03  0.12508863955E+03 0.  0.
         24    2    1    2    0    0 -0.66083925597E+02 -0.40434284388E+02  0.26803361659E+03  0.29022552044E+03  0.79917560756E+02 0.  0.
        -13    1    5    5    0    0 -0.47793712590E+02 -0.64318472529E+02  0.17558974343E+03  0.19301000717E+03  0.00000000000E+00 0.  1.
         14    1    5    5    0    0 -0.18290213007E+02  0.23884188142E+02  0.92443873161E+02  0.97215513269E+02  0.00000000000E+00 0. -1.
         11    1    3    3    0    0 -0.43760074799E+02 -0.29003563577E+02 -0.17914997122E+03  0.18668385853E+03  0.00000000000E+00 0. -1.
        -12    1    3    3    0    0 -0.22149039382E+02  0.24255453720E+01 -0.12302490228E+00  0.22281794161E+02  0.00000000000E+00 0.  1.
          5    1    4    4  501    0  0.96005888396E+02  0.69473039574E+02  0.90092467906E+02  0.14892198967E+03  0.41800000000E+01 0.  1.
         -5    1    4    4    0  501  0.35987151381E+02 -0.24607369814E+01 -0.37184653172E+02  0.51974042777E+02  0.41800000000E+01 0.  1.
</event>
<event>
11    1  0.8453735E-009  0.1705120E+03  0.7561462E-02  0.1077587E+00
         22   -1    0    0    0    0  0.00000000000E+00  0.00000000000E+00  0.29926630032E+03  0.29926630032E+03  0.00000000000E+00 0. -1.
         22   -1    0    0    0    0 -0.00000000000E+00 -0.00000000000E+00 -0.48932526506E+03  0.48932526506E+03  0.00000000000E+00 0.  1.
         24    2    1    2    0    0 -0.12325781236E+02  0.10204718174E+03 -0.29356454473E+03  0.32291250069E+03  0.86757068880E+02 0.  0.
         25    2    1    2    0    0 -0.10840218807E+02 -0.18656104283E+03 -0.86750810158E+02  0.24102983695E+03  0.12508855339E+03 0.  0.
        -24    2    1    2    0    0  0.23166000042E+02  0.84513861096E+02  0.19025639014E+03  0.22464922774E+03  0.81182050098E+02 0.  0.
        -13    1    3    3    0    0 -0.40485200565E+02  0.86651465225E+02 -0.16805746234E+03  0.19336710821E+03  0.00000000000E+00 0.  1.
         14    1    3    3    0    0  0.28159419330E+02  0.15395716512E+02 -0.12550708239E+03  0.12954539248E+03  0.00000000000E+00 0. -1.
         11    1    5    5    0    0  0.14144524234E+02  0.94774087922E+02  0.18770667172E+03  0.21075101403E+03  0.00000000000E+00 0. -1.
        -12    1    5    5    0    0  0.90214758080E+01 -0.10260226826E+02  0.25497184259E+01  0.13898213710E+02  0.00000000000E+00 0.  1.
          5    1    4    4  501    0 -0.67350201057E+02 -0.10178612507E+03 -0.57273440571E+02  0.13488581925E+03  0.41800000000E+01 0. -1.
         -5    1    4    4    0  501  0.56509982250E+02 -0.84774917759E+02 -0.29477369587E+02  0.10614401770E+03  0.41800000000E+01 0. -1.
</event>
<event>
11    1  0.8453735E-009  0.1466035E+03  0.7561462E-02  0.1100401E+00
         22   -1    0    0    0    0  0.00000000000E+00  0.00000000000E+00  0.54847679290E+03  0.54847679290E+03  0.00000000000E+00 0.  1.
         22   -1    0    0    0    0 -0.00000000000E+00 -0.00000000000E+00 -0.23742865494E+04  0.23742865494E+04  0.00000000000E+00 0.  1.
        -24    2    1    2    0    0 -0.54029647741E+02 -0.49522163587E+02 -0.19981519247E+04  0.20011647265E+04  0.81715977411E+02 0.  0.
         25    2    1    2    0    0  0.93089387913E+02  0.74031036887E+02 -0.34998719793E+03  0.39023700583E+03  0.12509058093E+03 0.  0.
         24    2    1    2    0    0 -0.39059740172E+02 -0.24508873300E+02  0.52232936615E+03  0.53136160992E+03  0.85970027213E+02 0.  0.
        -13    1    5    5    0    0 -0.40640794508E+02 -0.53904657481E+02  0.33514528180E+03  0.34187679972E+03  0.00000000000E+00 0.  1.
         14    1    5    5    0    0  0.15810543360E+01  0.29395784181E+02  0.18718408435E+03  0.18948481020E+03  0.00000000000E+00 0. -1.
         13    1    3    3    0    0 -0.14153396161E+02 -0.61745184119E+02 -0.90316969385E+03  0.90538847037E+03  0.00000000000E+00 0. -1.
        -14    1    3    3    0    0 -0.39876251580E+02  0.12223020532E+02 -0.10949822309E+04  0.10957762562E+04  0.00000000000E+00 0.  1.
          5    1    4    4  501    0  0.10062557124E+02  0.33475207352E+02 -0.81884946063E+01  0.36143718778E+02  0.41800000000E+01 0.  1.
         -5    1    4    4    0  501  0.83026830789E+02  0.40555829535E+02 -0.34179870333E+03  0.35409328705E+03  0.41800000000E+01 0.  1.
</event>
<event>
11    1  0.8453735E-009  0.1322138E+03  0.7561462E-02  0.1116578E+00
         22   -1    0    0    0    0  0.00000000000E+00  0.00000000000E+00  0.24489789501E+03  0.24489789501E+03  0.00000000000E+00 0. -1.
         22   -1    0    0    0    0 -0.00000000000E+00 -0.00000000000E+00 -0.14263947481E+04  0.14263947481E+04  0.00000000000E+00 0. -1.
        -24    2    1    2    0    0  0.23584455784E+02 -0.10623817427E+02 -0.11154223329E+04  0.11186627932E+04  0.81057832016E+02 0.  0.
         25    2    1    2    0    0 -0.10051190400E+02  0.51129978271E+02 -0.28469416068E+03  0.31530195434E+03  0.12509698710E+03 0.  0.
         24    2    1    2    0    0 -0.13533265384E+02 -0.40506160844E+02  0.21861964051E+03  0.23732789554E+03  0.81890685970E+02 0.  0.
        -13    1    5    5    0    0 -0.78058407519E+01 -0.39411130204E+02  0.34045854879E+02  0.52662022067E+02  0.00000000000E+00 0.  1.
         14    1    5    5    0    0 -0.57274246321E+01 -0.10950306399E+01  0.18457378563E+03  0.18466587348E+03  0.00000000000E+00 0. -1.
         13    1    3    3    0    0  0.48309526519E+02  0.68321112838E+01 -0.87236144026E+03  0.87372476819E+03  0.00000000000E+00 0. -1.
        -14    1    3    3    0    0 -0.24725070735E+02 -0.17455928711E+02 -0.24306089267E+03  0.24493802505E+03  0.00000000000E+00 0.  1.
          5    1    4    4  501    0 -0.46359337521E+02  0.42333707554E+02 -0.26595931076E+03  0.27330049094E+03  0.41800000000E+01 0.  1.
         -5    1    4    4    0  501  0.36308147121E+02  0.87962707172E+01 -0.18734849917E+02  0.42001463395E+02  0.41800000000E+01 0.  1.
</event>
<event>
11    1  0.8453735E-009  0.1356821E+03  0.7561462E-02  0.1112478E+00
         22   -1    0    0    0    0  0.00000000000E+00  0.00000000000E+00  0.40547040492E+03  0.40547040492E+03  0.00000000000E+00 0. -1.
         22   -1    0    0    0    0 -0.00000000000E+00 -0.00000000000E+00 -0.86033245087E+03  0.86033245087E+03  0.00000000000E+00 0. -1.
         24    2    1    2    0    0  0.37403094310E+02  0.38015285672E+02 -0.79661266271E+03  0.80258509784E+03  0.81895979558E+02 0.  0.
         25    2    1    2    0    0 -0.57092643972E+01 -0.39095219014E+02  0.23580720861E+02  0.13328599813E+03  0.12509226615E+03 0.  0.
        -24    2    1    2    0    0 -0.31693829913E+02  0.10799333417E+01  0.31816989589E+03  0.32993175983E+03  0.81346286809E+02 0.  0.
        -13    1    3    3    0    0  0.28774977831E+02 -0.16410811147E+02 -0.48558088044E+03  0.48670946726E+03  0.00000000000E+00 0.  1.
         14    1    3    3    0    0  0.86281164799E+01  0.54426096819E+02 -0.31103178228E+03  0.31587563058E+03  0.00000000000E+00 0. -1.
         11    1    5    5    0    0 -0.53270176016E+02  0.20823220477E+02  0.23148210863E+03  0.23844346244E+03  0.00000000000E+00 0. -1.
        -12    1    5    5    0    0  0.21576346103E+02 -0.19743287135E+02  0.86687787264E+02  0.91488297387E+02  0.00000000000E+00 0.  1.
          5    1    4    4  501    0  0.51681271253E+02 -0.20854375549E+02  0.42295045551E+02  0.70087103350E+02  0.41800000000E+01 0. -1.
         -5    1    4    4    0  501 -0.57390535650E+02 -0.18240843465E+02 -0.18714324690E+02  0.63198894778E+02  0.41800000000E+01 0. -1.
</event>
<event>
11    1  0.8453735E-009  0.3087360E+03  0.7561462E-02  0.9965603E-01
         22   -1    0    0    0    0  0.00000000000E+00  0.00000000000E+00  0.71390745567E+03  0.71390745567E+03  0.00000000000E+00 0.  1.
         22   -1    0    0    0    0 -0.00000000000E+00 -0.00000000000E+00 -0.78284502098E+03  0.78284502098E+03  0.00000000000E+00 0.  1.
        -24    2    1    2    0    0  0.16986540852E+03 -0.11557130198E+02 -0.24524634714E+03  0.30923691241E+03  0.80584570117E+02 0.  0.
         25    2    1    2    0    0  0.98083556989E+02  0.12904042916E+03 -0.44862632179E+03  0.49313742715E+03  0.12508848447E+03 0.  0.
         24    2    1    2    0    0 -0.26794896551E+03 -0.11748329896E+03  0.62493510361E+03  0.69437813708E+03  0.77576670977E+02 0.  0.
        -13    1    5    5    0    0 -0.24898596946E+03 -0.10011530352E+03  0.50668560058E+03  0.57336496651E+03  0.00000000000E+00 0.  1.
         14    1    5    5    0    0 -0.18962996055E+02 -0.17367995440E+02  0.11824950304E+03  0.12101317058E+03  0.00000000000E+00 0. -1.
         13    1    3    3    0    0  0.10061741568E+02 -0.24825212845E+02 -0.23822357304E+02  0.35847378477E+02  0.00000000000E+00 0. -1.
        -14    1    3    3    0    0  0.15980366696E+03  0.13268082648E+02 -0.22142398983E+03  0.27338953393E+03  0.00000000000E+00 0.  1.
          5    1    4    4  501    0  0.46303272349E+02 -0.14552492416E+01 -0.21960275443E+03  0.22447483808E+03  0.41800000000E+01 0.  1.
         -5    1    4    4    0  501  0.51780284640E+02  0.13049567840E+03 -0.22902356736E+03  0.26866258907E+03  0.41800000000E+01 0.  1.
</event>
<event>
11    1  0.8453735E-009  0.3081008E+03  0.7561462E-02  0.9968199E-01
         22   -1    0    0    0    0  0.00000000000E+00  0.00000000000E+00  0.74551052433E+03  0.74551052433E+03  0.00000000000E+00 0.  1.
         22   -1    0    0    0    0 -0.00000000000E+00 -0.00000000000E+00 -0.31694240378E+03  0.31694240378E+03  0.00000000000E+00 0. -1.
        -24    2    1    2    0    0 -0.19728114201E+03 -0.21339834123E+03 -0.97213453367E+02  0.31672769937E+03  0.80045480828E+02 0.  0.
         25    2    1    2    0    0  0.16805099309E+03  0.20500438294E+03  0.97858484147E+02  0.30902287630E+03  0.12510364444E+03 0.  0.
         24    2    1    2    0    0  0.29230148921E+02  0.83939582836E+01  0.42792308977E+03  0.43670235244E+03  0.81645047183E+02 0.  0.
        -13    1    5    5    0    0 -0.68585135443E+01  0.37357587755E+02  0.13894749210E+03  0.14404525030E+03  0.00000000000E+00 0.  1.
         14    1    5    5    0    0  0.36088662465E+02 -0.28963629471E+02  0.28897559767E+03  0.29265710215E+03  0.00000000000E+00 0. -1.
         11    1    3    3    0    0 -0.19252539728E+03 -0.22060055333E+03 -0.94882183500E+02  0.30778768895E+03  0.00000000000E+00 0. -1.
        -12    1    3    3    0    0 -0.47557447279E+01  0.72022120983E+01 -0.23312698665E+01  0.89400104148E+01  0.00000000000E+00 0.  1.
          5    1    4    4  501    0  0.13994492546E+03  0.16494524775E+03  0.20409888190E+02  0.21731441014E+03  0.41800000000E+01 0. -1.
         -5    1    4    4    0  501  0.28106067630E+02  0.40059135194E+02  0.77448595957E+02  0.91708466162E+02  0.41800000000E+01 0. -1.
</event>
<event>
11    1  0.8453735E-009  0.1712762E+03  0.7561462E-02  0.1076926E+00
         22   -1    0    0    0    0  0.00000000000E+00  0.00000000000E+00  0.12929906997E+04  0.12929906997E+04  0.00000000000E+00 0.  1.
         22   -1    0    0    0    0 -0.00000000000E+00 -0.00000000000E+00 -0.35662040485E+03  0.35662040485E+03  0.00000000000E+00 0.  1.
         24    2    1    2    0    0  0.10392437030E+03  0.58031669465E+02 -0.23679624881E+03  0.27817171324E+03  0.84493131061E+02 0.  0.
         25    2    1    2    0    0 -0.11712530575E+03 -0.10467476031E+02 -0.21588847919E+02  0.17304667737E+03  0.12510463178E+03 0.  0.
        -24    2    1    2    0    0  0.13200935455E+02 -0.47564193434E+02  0.11947553916E+04  0.11983927139E+04  0.79170915851E+02 0.  0.
        -13    1    3    3    0    0  0.71651057518E+02  0.33278285319E+02 -0.22072734626E+03  0.23443950116E+03  0.00000000000E+00 0.  1.
         14    1    3    3    0    0  0.32273312779E+02  0.24753384146E+02 -0.16068902545E+02  0.43732212080E+02  0.00000000000E+00 0. -1.
         13    1    5    5    0    0 -0.17984654527E+02  0.14333855396E+02  0.22840131673E+03  0.22955624299E+03  0.00000000000E+00 0. -1.
        -14    1    5    5    0    0  0.31185589982E+02 -0.61898048830E+02  0.96635407485E+03  0.96883647095E+03  0.00000000000E+00 0.  1.
          5    1    4    4  501    0 -0.10478332252E+03 -0.58916442225E+02 -0.24646864378E+02  0.12278286594E+03  0.41800000000E+01 0.  1.
         -5    1    4    4    0  501 -0.12341983228E+02  0.48448966194E+02  0.30580164593E+01  0.50263811435E+02  0.41800000000E+01 0.  1.
</event>
<event>
11    1  0.8453735E-009  0.2134683E+03  0.7561462E-02  0.1045388E+00
         22   -1    0    0    0    0  0.00000000000E+00  0.00000000000E+00  0.89195606801E+03  0.89195606801E+03  0.00000000000E+00 0.  1.
         22   -1    0    0    0    0 -0.00000000000E+00 -0.00000000000E+00 -0.15867829999E+03  0.15867829999E+03  0.00000000000E+00 0.  1.
        -24    2    1    2    0    0  0.76401637766E+02  0.13722118955E+03 -0.10320967648E+02  0.17905747893E+03  0.85370915857E+02 0.  0.
         25    2    1    2    0    0 -0.51436017326E+02 -0.25039499217E+03  0.33962569501E+03  0.44309886218E+03  0.12509065903E+03 0.  0.
         24    2    1    2    0    0 -0.24965620441E+02  0.11317380262E+03  0.40397304066E+03  0.42847802689E+03  0.83472211813E+02 0.  0.
        -13    1    5    5    0    0 -0.32405433005E+02  0.11621733475E+03  0.40264258990E+03  0.42033038932E+03  0.00000000000E+00 0.  1.
         14    1    5    5    0    0  0.74398125637E+01 -0.30435321295E+01  0.13304507630E+01  0.81476375741E+01  0.00000000000E+00 0. -1.
         11    1    3    3    0    0 -0.78983443574E+01 -0.41576312410E+01 -0.11363954456E+02  0.14450231901E+02  0.00000000000E+00 0. -1.
        -12    1    3    3    0    0  0.84299982124E+02  0.14137882079E+03  0.10429868083E+01  0.16460724703E+03  0.00000000000E+00 0.  1.
          5    1    4    4  501    0  0.88365568978E+01  0.10428953135E+02  0.33453243968E+02  0.36379111222E+02  0.41800000000E+01 0.  1.
         -5    1    4    4    0  501 -0.60272574224E+02 -0.26082394530E+03  0.30617245104E+03  0.40671975096E+03  0.41800000000E+01 0.  1.
</event>
<event>
11    1  0.8453735E-009  0.1732367E+03  0.7561462E-02  0.1075249E+00
         22   -1    0    0    0    0  0.00000000000E+00  0.00000000000E+00  0.62256474549E+03  0.62256474549E+03  0.00000000000E+00 0.  1.
         22   -1    0    0    0    0 -0.00000000000E+00 -0.00000000000E+00 -0.69310231984E+03  0.69310231984E+03  0.00000000000E+00 0. -1.
        -24    2    1    2    0    0  0.79723794568E+01 -0.10623848199E+03 -0.35392790055E+03  0.37838716472E+03  0.81004405760E+02 0.  0.
         25    2    1    2    0    0  0.50948283134E+01  0.15333329334E+03 -0.29288356312E+03  0.35350291025E+03  0.12508585008E+03 0.  0.
         24    2    1    2    0    0 -0.13067207770E+02 -0.47094811353E+02  0.57627388932E+03  0.58377699035E+03  0.79468898172E+02 0.  0.
        -11    1    5    5    0    0  0.53992101360E+01 -0.64144527590E+02  0.32968348523E+03  0.33590902387E+03  0.00000000000E+00 0.  1.
         12    1    5    5    0    0 -0.18466417906E+02  0.17049716237E+02  0.24659040409E+03  0.24786796647E+03  0.00000000000E+00 0. -1.
         13    1    3    3    0    0  0.22600755387E+02 -0.71943417383E+02 -0.12158622221E+03  0.14307291456E+03  0.00000000000E+00 0. -1.
        -14    1    3    3    0    0 -0.14628375931E+02 -0.34295064605E+02 -0.23234167833E+03  0.23531425016E+03  0.00000000000E+00 0.  1.
          5    1    4    4  501    0  0.49153186175E+02  0.14338054987E+03 -0.23932646358E+03  0.28331721861E+03  0.41800000000E+01 0.  1.
         -5    1    4    4    0  501 -0.44058357862E+02  0.99527434717E+01 -0.53557099539E+02  0.70185691641E+02  0.41800000000E+01 0.  1.
</event>
<event>
11    1  0.8453735E-009  0.1659191E+03  0.7561462E-02  0.1081639E+00
         22   -1    0    0    0    0  0.00000000000E+00  0.00000000000E+00  0.66882675009E+03  0.66882675009E+03  0.00000000000E+00 0. -1.
         22   -1    0    0    0    0 -0.00000000000E+00 -0.00000000000E+00 -0.17640645979E+03  0.17640645979E+03  0.00000000000E+00 0. -1.
        -24    2    1    2    0    0 -0.11528491316E+02  0.53858127808E+02 -0.10838657048E+03  0.14641412700E+03  0.81583355426E+02 0.  0.
         25    2    1    2    0    0  0.10809181039E+03  0.30096742843E+01  0.13697682220E+03  0.21471602608E+03  0.12508966553E+03 0.  0.
         24    2    1    2    0    0 -0.96563319073E+02 -0.56867802092E+02  0.46383003857E+03  0.48410305681E+03  0.81602962083E+02 0.  0.
        -11    1    5    5    0    0 -0.66438124954E+02 -0.11883610103E+02  0.13593112051E+03  0.15176466703E+03  0.00000000000E+00 0.  1.
         12    1    5    5    0    0 -0.30125194119E+02 -0.44984191989E+02  0.32789891807E+03  0.33233838978E+03  0.00000000000E+00 0. -1.
         13    1    3    3    0    0 -0.38746363210E+02  0.31474726876E+02 -0.97491602062E+02  0.10952877050E+03  0.00000000000E+00 0. -1.
        -14    1    3    3    0    0  0.27217871894E+02  0.22383400931E+02 -0.10894968416E+02  0.36885356504E+02  0.00000000000E+00 0.  1.
          5    1    4    4  501    0  0.29840030861E+02  0.60488106265E+02  0.65171903572E+02  0.93883373696E+02  0.41800000000E+01 0. -1.
         -5    1    4    4    0  501  0.78251779528E+02 -0.57478431980E+02  0.71804918629E+02  0.12083265238E+03  0.41800000000E+01 0. -1.
</event>
<event>
11    1  0.8453735E-009  0.1560371E+03  0.7561462E-02  0.1090865E+00
         22   -1    0    0    0    0  0.00000000000E+00  0.00000000000E+00  0.17137514280E+03  0.17137514280E+03  0.00000000000E+00 0. -1.
         22   -1    0    0    0    0 -0.00000000000E+00 -0.00000000000E+00 -0.44140675344E+04  0.44140675344E+04  0.00000000000E+00 0.  1.
        -24    2    1    2    0    0 -0.45100316228E+02  0.86721526993E+02 -0.39393954915E+04  0.39413853644E+04  0.78275736263E+02 0.  0.
         25    2    1    2    0    0  0.40129735625E+02 -0.33295027326E+02 -0.44810268257E+03  0.46814712581E+03  0.12508702073E+03 0.  0.
         24    2    1    2    0    0  0.49705806027E+01 -0.53426499667E+02  0.14480578244E+03  0.17591018697E+03  0.84241211492E+02 0.  0.
        -13    1    5    5    0    0  0.40636956261E+00  0.18703286765E+02  0.67658269240E+02  0.70197004698E+02  0.00000000000E+00 0.  1.
         14    1    5    5    0    0  0.45642110401E+01 -0.72129786432E+02  0.77147513196E+02  0.10571318227E+03  0.00000000000E+00 0. -1.
         13    1    3    3    0    0  0.59626600415E+01  0.67383153095E+02 -0.17450866833E+04  0.17463973130E+04  0.00000000000E+00 0. -1.
        -14    1    3    3    0    0 -0.51062976270E+02  0.19338373898E+02 -0.21943088082E+04  0.21949880514E+04  0.00000000000E+00 0.  1.
          5    1    4    4  501    0  0.72435011312E+02 -0.42276920936E+02 -0.18855188036E+03  0.20640603890E+03  0.41800000000E+01 0. -1.
         -5    1    4    4    0  501 -0.32305275687E+02  0.89818936100E+01 -0.25955080221E+03  0.26174108691E+03  0.41800000000E+01 0. -1.
</event>
<event>
11    1  0.1905589E-008  0.1648218E+03  0.7561462E-02  0.1082628E+00
         22   -1    0    0    0    0  0.00000000000E+00  0.00000000000E+00  0.12007099974E+04  0.12007099974E+04  0.00000000000E+00 0.  1.
         22   -1    0    0    0    0 -0.00000000000E+00 -0.00000000000E+00 -0.34192169176E+03  0.34192169176E+03  0.00000000000E+00 0.  1.
        -24    2    1    2    0    0 -0.74080004932E+00  0.34123751622E+02 -0.19900515532E+03  0.21738795624E+03  0.80557386171E+02 0.  0.
         25    2    1    2    0    0 -0.26370217091E+02 -0.13684157055E+03 -0.61450967572E+02  0.19708880370E+03  0.12508705508E+03 0.  0.
         24    2    1    2    0    0  0.27111017140E+02  0.10271781893E+03  0.11192444285E+04  0.11281549292E+04  0.93485271219E+02 0.  0.
        -11    1    5    5    0    0  0.68095872559E+01  0.14436154708E+02  0.65283785306E+03  0.65303295126E+03  0.00000000000E+00 0.  1.
         12    1    5    5    0    0  0.20301429884E+02  0.88281664222E+02  0.46640657546E+03  0.47512197794E+03  0.00000000000E+00 0. -1.
         11    1    3    3    0    0  0.18782606600E+01 -0.11730986000E+01  0.75264751102E+01  0.78454987742E+01  0.00000000000E+00 0. -1.
        -12    1    3    3    0    0 -0.26190607093E+01  0.35296850222E+02 -0.20653163043E+03  0.20954245747E+03  0.00000000000E+00 0.  1.
          5    1    4    4  501    0 -0.21977262554E+02 -0.68224763518E+02  0.33947713057E+02  0.79420010377E+02  0.41800000000E+01 0. -1.
         -5    1    4    4    0  501 -0.43929545367E+01 -0.68616807034E+02 -0.95398680629E+02  0.11766879333E+03  0.41800000000E+01 0. -1.
</event>
<event>
11    1  0.8453735E-009  0.1831275E+03  0.7561462E-02  0.1067141E+00
         22   -1    0    0    0    0  0.00000000000E+00  0.00000000000E+00  0.23493846388E+03  0.23493846388E+03  0.00000000000E+00 0. -1.
         22   -1    0    0    0    0 -0.00000000000E+00 -0.00000000000E+00 -0.11068899110E+04  0.11068899110E+04  0.00000000000E+00 0.  1.
         24    2    1    2    0    0  0.62759019528E+02  0.36562574741E+02 -0.84378273162E+03  0.85091506496E+03  0.82532618907E+02 0.  0.
         25    2    1    2    0    0  0.63774332282E+02  0.29324678620E+02 -0.20506750559E+03  0.25025335733E+03  0.12508780425E+03 0.  0.
        -24    2    1    2    0    0 -0.12653335181E+03 -0.65887253361E+02  0.17689879014E+03  0.24065995256E+03  0.79197295013E+02 0.  0.
        -11    1    3    3    0    0  0.45120848037E+02  0.99048215765E+01 -0.75740848660E+03  0.75881592761E+03  0.00000000000E+00 0.  1.
         12    1    3    3    0    0  0.17638171492E+02  0.26657753165E+02 -0.86374245025E+02  0.92099137352E+02  0.00000000000E+00 0. -1.
         13    1    5    5    0    0 -0.10259303949E+03 -0.60288656026E+02  0.18010516550E+03  0.21586552397E+03  0.00000000000E+00 0. -1.
        -14    1    5    5    0    0 -0.23940312317E+02 -0.55985973354E+01 -0.32063753674E+01  0.24794428587E+02  0.00000000000E+00 0.  1.
          5    1    4    4  501    0  0.47123509000E+02 -0.28602116843E+02 -0.25663171628E+02  0.60948970184E+02  0.41800000000E+01 0. -1.
         -5    1    4    4    0  501  0.16650823281E+02  0.57926795463E+02 -0.17940433397E+03  0.18930438715E+03  0.41800000000E+01 0. -1.
</event>
<event>
11    1  0.8453735E-009  0.1717655E+03  0.7561462E-02  0.1076505E+00
         22   -1    0    0    0    0  0.00000000000E+00  0.00000000000E+00  0.32768591409E+03  0.32768591409E+03  0.00000000000E+00 0.  1.
         22   -1    0    0    0    0 -0.00000000000E+00 -0.00000000000E+00 -0.25903679005E+03  0.25903679005E+03  0.00000000000E+00 0.  1.
         24    2    1    2    0    0  0.89682106851E+02 -0.63232752158E+02 -0.13040208486E+03  0.18762143952E+03  0.78459158765E+02 0.  0.
         25    2    1    2    0    0 -0.10564165693E+03  0.10513964018E+03  0.18165115598E+02  0.19542829627E+03  0.12509094269E+03 0.  0.
        -24    2    1    2    0    0  0.15959550076E+02 -0.41906888018E+02  0.18088609330E+03  0.20367296836E+03  0.82170583461E+02 0.  0.
        -13    1    3    3    0    0  0.73726270223E+02 -0.54710773201E+02 -0.13978910502E+03  0.16724181746E+03  0.00000000000E+00 0.  1.
         14    1    3    3    0    0  0.15955836627E+02 -0.85219789569E+01  0.93870201530E+01  0.20379622057E+02  0.00000000000E+00 0. -1.
         11    1    5    5    0    0  0.88797572499E+01  0.22673722405E+02  0.80464329951E+02  0.84068163837E+02  0.00000000000E+00 0. -1.
        -12    1    5    5    0    0  0.70797928262E+01 -0.64580610423E+02  0.10042176335E+03  0.11960480452E+03  0.00000000000E+00 0.  1.
          5    1    4    4  501    0 -0.73115708232E+02  0.35728543251E+02 -0.47576223776E+02  0.94357856387E+02  0.41800000000E+01 0. -1.
         -5    1    4    4    0  501 -0.32525948695E+02  0.69411096925E+02  0.65741339374E+02  0.10107043988E+03  0.41800000000E+01 0. -1.
</event>
<event>
11    1  0.8453735E-009  0.1534454E+03  0.7561462E-02  0.1093409E+00
         22   -1    0    0    0    0  0.00000000000E+00  0.00000000000E+00  0.29503625219E+03  0.29503625219E+03  0.00000000000E+00 0. -1.
         22   -1    0    0    0    0 -0.00000000000E+00 -0.00000000000E+00 -0.74643244008E+03  0.74643244008E+03  0.00000000000E+00 0.  1.
         24    2    1    2    0    0  0.38330698386E+02 -0.80716062790E+01 -0.61199938069E+03  0.61849061578E+03  0.80330607982E+02 0.  0.
         25    2    1    2    0    0 -0.75506789902E+00  0.89594361201E+02 -0.64937725311E+02  0.16701208725E+03  0.12509360268E+03 0.  0.
        -24    2    1    2    0    0 -0.37575630487E+02 -0.81522754922E+02  0.22554091811E+03  0.25596598923E+03  0.81191097577E+02 0.  0.
        -13    1    3    3    0    0  0.52146018026E+02  0.12836834914E+02 -0.53085755295E+03  0.53356699022E+03  0.00000000000E+00 0.  1.
         14    1    3    3    0    0 -0.13815319641E+02 -0.20908441193E+02 -0.81141827743E+02  0.84923625567E+02  0.00000000000E+00 0. -1.
         11    1    5    5    0    0 -0.46258098680E+02 -0.78670426738E+02  0.22874743256E+03  0.24628080648E+03  0.00000000000E+00 0. -1.
        -12    1    5    5    0    0  0.86824681936E+01 -0.28523281845E+01 -0.32065144535E+01  0.96851827523E+01  0.00000000000E+00 0.  1.
          5    1    4    4  501    0 -0.25264331556E+02  0.10890214038E+03 -0.74146676046E+02  0.13421313124E+03  0.41800000000E+01 0. -1.
         -5    1    4    4    0  501  0.24509263657E+02 -0.19307779178E+02  0.92089507345E+01  0.32798956011E+02  0.41800000000E+01 0. -1.
</event>
<event>
11    1  0.8453735E-009  0.1764014E+03  0.7561462E-02  0.1072591E+00
         22   -1    0    0    0    0  0.00000000000E+00  0.00000000000E+00  0.86065814930E+03  0.86065814930E+03  0.00000000000E+00 0.  1.
         22   -1    0    0    0    0 -0.00000000000E+00 -0.00000000000E+00 -0.83783264561E+03  0.83783264561E+03  0.00000000000E+00 0.  1.
         24    2    1    2    0    0  0.98040759217E+02  0.74563056785E+02 -0.78447657079E+03  0.79816962229E+03  0.80620195502E+02 0.  0.
         25    2    1    2    0    0 -0.19170502299E+03 -0.57267974518E+02  0.32225433462E+03  0.39940828850E+03  0.12509471611E+03 0.  0.
        -24    2    1    2    0    0  0.93664263773E+02 -0.17295082267E+02  0.48504773986E+03  0.50091288412E+03  0.81057346059E+02 0.  0.
        -11    1    3    3    0    0  0.62440188220E+02  0.83096165170E+02 -0.45797249747E+03  0.46961958883E+03  0.00000000000E+00 0.  1.
         12    1    3    3    0    0  0.35600570997E+02 -0.85331083851E+01 -0.32650407332E+03  0.32855003346E+03  0.00000000000E+00 0. -1.
         11    1    5    5    0    0  0.24995306585E+02 -0.43270243284E+02  0.15746613693E+03  0.16520491392E+03  0.00000000000E+00 0. -1.
        -12    1    5    5    0    0  0.68668957188E+02  0.25975161016E+02  0.32758160293E+03  0.33570797019E+03  0.00000000000E+00 0.  1.
          5    1    4    4  501    0 -0.10579128850E+03 -0.94490890600E+02  0.20435809757E+03  0.24879716552E+03  0.41800000000E+01 0.  1.
         -5    1    4    4    0  501 -0.85913734493E+02  0.37222916082E+02  0.11789623705E+03  0.15061112299E+03  0.41800000000E+01 0.  1.
</event>
<event>
11    1  0.8453735E-009  0.1441566E+03  0.7561462E-02  0.1103004E+00
         22   -1    0    0    0    0  0.00000000000E+00  0.00000000000E+00  0.11810206188E+04  0.11810206188E+04  0.00000000000E+00 0. -1.
         22   -1    0    0    0    0 -0.00000000000E+00 -0.00000000000E+00 -0.72829189621E+03  0.72829189621E+03  0.00000000000E+00 0.  1.
        -24    2    1    2    0    0 -0.48518130604E+02  0.12789033375E+02 -0.66854756869E+03  0.67525121146E+03  0.80565368566E+02 0.  0.
         25    2    1    2    0    0 -0.25351614184E+02 -0.91250092654E+01  0.22458243620E+02  0.12991759233E+03  0.12509291729E+03 0.  0.
         24    2    1    2    0    0  0.73869744788E+02 -0.36640241096E+01  0.10988180476E+04  0.11041437112E+04  0.79133235008E+02 0.  0.
        -13    1    5    5    0    0 -0.13955132791E+01 -0.29055763690E+01  0.51464260581E+00  0.32641520124E+01  0.00000000000E+00 0.  1.
         14    1    5    5    0    0  0.75265258067E+02 -0.75844774065E+00  0.10983034050E+04  0.11008795592E+04  0.00000000000E+00 0. -1.
         13    1    3    3    0    0 -0.50425733418E+01  0.30099872790E+02 -0.94644693834E+02  0.99443692403E+02  0.00000000000E+00 0. -1.
        -14    1    3    3    0    0 -0.43475557262E+02 -0.17310839415E+02 -0.57390287486E+03  0.57580751906E+03  0.00000000000E+00 0.  1.
          5    1    4    4  501    0 -0.76111165834E+02 -0.13943944007E+00  0.14443457298E+02  0.77582310269E+02  0.41800000000E+01 0. -1.
         -5    1    4    4    0  501  0.50759551650E+02 -0.89855698253E+01  0.80147863222E+01  0.52335282063E+02  0.41800000000E+01 0. -1.
</event>
<event>
11    1  0.8453735E-009  0.1354900E+03  0.7561462E-02  0.1112702E+00
         22   -1    0    0    0    0  0.00000000000E+00  0.00000000000E+00  0.49652035380E+03  0.49652035380E+03  0.00000000000E+00 0. -1.
         22   -1    0    0    0    0 -0.00000000000E+00 -0.00000000000E+00 -0.11461811579E+04  0.11461811579E+04  0.00000000000E+00 0.  1.
         24    2    1    2    0    0  0.18934624992E+02  0.50093087868E+02 -0.10508431818E+04  0.10553929087E+04  0.81944869054E+02 0.  0.
         25    2    1    2    0    0 -0.25607884847E+02 -0.13221154260E+02 -0.42228918736E+02  0.13513378497E+03  0.12508915051E+03 0.  0.
        -24    2    1    2    0    0  0.66732598548E+01 -0.36871933608E+02  0.44341129642E+03  0.45217481804E+03  0.80277122500E+02 0.  0.
        -11    1    3    3    0    0  0.38401272576E+02  0.22370277061E+00 -0.62821654510E+03  0.62938917636E+03  0.00000000000E+00 0.  1.
         12    1    3    3    0    0 -0.19466647584E+02  0.49869385098E+02 -0.42262663668E+03  0.42600373234E+03  0.00000000000E+00 0. -1.
         11    1    5    5    0    0  0.36946300940E+02 -0.11446446030E+02  0.32599833048E+03  0.32828487896E+03  0.00000000000E+00 0. -1.
        -12    1    5    5    0    0 -0.30273041086E+02 -0.25425487578E+02  0.11741296594E+03  0.12388993908E+03  0.00000000000E+00 0.  1.
          5    1    4    4  501    0 -0.49624343066E+02  0.42892299276E+02 -0.11694803731E+02  0.66757513407E+02  0.41800000000E+01 0.  1.
         -5    1    4    4    0  501  0.24016458220E+02 -0.56113453536E+02 -0.30534115005E+02  0.68376271559E+02  0.41800000000E+01 0.  1.
</event>
<event>
11    1  0.8453735E-009  0.2329588E+03  0.7561462E-02  0.1033390E+00
         22   -1    0    0    0    0  0.00000000000E+00  0.00000000000E+00  0.11838087601E+03  0.11838087601E+03  0.00000000000E+00 0. -1.
         22   -1    0    0    0    0 -0.00000000000E+00 -0.00000000000E+00 -0.15259276781E+04  0.15259276781E+04  0.00000000000E+00 0. -1.
        -24    2    1    2    0    0  0.17134528298E+03 -0.36358288986E+01 -0.58228798908E+03  0.61192363566E+03  0.77580979639E+02 0.  0.
         25    2    1    2    0    0 -0.22275948803E+03 -0.14051940386E+03 -0.80765476694E+03  0.85867322533E+03  0.12508394363E+03 0.  0.
         24    2    1    2    0    0  0.51414205051E+02  0.14415523276E+03 -0.17604046047E+02  0.17371169310E+03  0.80260191060E+02 0.  0.
        -11    1    5    5    0    0  0.16466124874E+02 -0.34190916005E+01  0.99971818831E+01  0.19564434603E+02  0.00000000000E+00 0.  1.
         12    1    5    5    0    0  0.34948080176E+02  0.14757432436E+03 -0.27601227930E+02  0.15414725849E+03  0.00000000000E+00 0. -1.
         11    1    3    3    0    0  0.12700821425E+03  0.10010436762E+00 -0.29455218958E+03  0.32076796737E+03  0.00000000000E+00 0. -1.
        -12    1    3    3    0    0  0.44337068735E+02 -0.37359332662E+01 -0.28773579950E+03  0.29115566829E+03  0.00000000000E+00 0.  1.
          5    1    4    4  501    0 -0.20402119484E+03 -0.14332877453E+03 -0.79974175406E+03  0.83771840802E+03  0.41800000000E+01 0.  1.
         -5    1    4    4    0  501 -0.18738293195E+02  0.28093706672E+01 -0.79130128859E+01  0.20954817307E+02  0.41800000000E+01 0.  1.
</event>
<event>
11    1  0.8453735E-009  0.1464395E+03  0.7561462E-02  0.1100573E+00
         22   -1    0    0    0    0  0.00000000000E+00  0.00000000000E+00  0.42129753625E+03  0.42129753625E+03  0.00000000000E+00 0. -1.
         22   -1    0    0    0    0 -0.00000000000E+00 -0.00000000000E+00 -0.36474294500E+03  0.36474294500E+03  0.00000000000E+00 0.  1.
        -24    2    1    2    0    0  0.42669169711E+02  0.63576776947E+02 -0.26030354227E+03  0.28313043277E+03  0.80884134628E+02 0.  0.
         25    2    1    2    0    0 -0.28354272524E+02 -0.69620592462E+02 -0.27012506855E+02  0.14841893990E+03  0.12509002570E+03 0.  0.
         24    2    1    2    0    0 -0.14314897187E+02  0.60438155157E+01  0.34387064038E+03  0.35449110857E+03  0.84708233122E+02 0.  0.
        -11    1    5    5    0    0 -0.10218794720E+02  0.22348499651E+02  0.24576211405E+02  0.34754415104E+02  0.00000000000E+00 0.  1.
         12    1    5    5    0    0 -0.40961024666E+01 -0.16304684135E+02  0.31929442897E+03  0.31973669347E+03  0.00000000000E+00 0. -1.
         11    1    3    3    0    0  0.31620105323E+02  0.69293893570E+01 -0.25134585483E+02  0.40982860867E+02  0.00000000000E+00 0. -1.
        -12    1    3    3    0    0  0.11049064388E+02  0.56647387590E+02 -0.23516895679E+03  0.24214757191E+03  0.00000000000E+00 0.  1.
          5    1    4    4  501    0 -0.23372116092E+02  0.93902979775E+01  0.38076183465E+02  0.45844319757E+02  0.41800000000E+01 0. -1.
         -5    1    4    4    0  501 -0.49821564315E+01 -0.79010890440E+02 -0.65088690319E+02  0.10257462015E+03  0.41800000000E+01 0. -1.
</event>
<event>
11    1  0.8453735E-009  0.1381178E+03  0.7561462E-02  0.1109679E+00
         22   -1    0    0    0    0  0.00000000000E+00  0.00000000000E+00  0.36309906761E+03  0.36309906761E+03  0.00000000000E+00 0. -1.
         22   -1    0    0    0    0 -0.00000000000E+00 -0.00000000000E+00 -0.13613022546E+04  0.13613022546E+04  0.00000000000E+00 0.  1.
        -24    2    1    2    0    0  0.61153091497E+02 -0.64912541183E+01 -0.97592682441E+03  0.98120553472E+03  0.80927731890E+02 0.  0.
         25    2    1    2    0    0 -0.46151251530E+02 -0.17010244101E+02 -0.36536529893E+03  0.38931591258E+03  0.12512310619E+03 0.  0.
         24    2    1    2    0    0 -0.15001839967E+02  0.23501498220E+02  0.34308893634E+03  0.35387987492E+03  0.82119254844E+02 0.  0.
        -11    1    5    5    0    0  0.13056904280E+02  0.26235247032E+01  0.53779515734E+01  0.14362729350E+02  0.00000000000E+00 0.  1.
         12    1    5    5    0    0 -0.28058744246E+02  0.20877973516E+02  0.33771098476E+03  0.33951714557E+03  0.00000000000E+00 0. -1.
         11    1    3    3    0    0  0.57593987247E+02 -0.18699820722E+02 -0.35350270659E+03  0.35865152200E+03  0.00000000000E+00 0. -1.
        -12    1    3    3    0    0  0.35591042500E+01  0.12208566603E+02 -0.62242411782E+03  0.62255401273E+03  0.00000000000E+00 0.  1.
          5    1    4    4  501    0  0.32111243451E+02 -0.34625345245E+02 -0.19904447109E+03  0.20461236610E+03  0.41800000000E+01 0. -1.
         -5    1    4    4    0  501 -0.78262494982E+02  0.17615101144E+02 -0.16632082784E+03  0.18470354648E+03  0.41800000000E+01 0. -1.
</event>
<event>
11    1  0.8453735E-009  0.1691634E+03  0.7561462E-02  0.1078762E+00
         22   -1    0    0    0    0  0.00000000000E+00  0.00000000000E+00  0.17319567821E+03  0.17319567821E+03  0.00000000000E+00 0.  1.
         22   -1    0    0    0    0 -0.00000000000E+00 -0.00000000000E+00 -0.93439978882E+03  0.93439978882E+03  0.00000000000E+00 0. -1.
         24    2    1    2    0    0  0.81264122851E+01 -0.51215913391E+02 -0.51343063355E+03  0.52258372529E+03  0.82423456048E+02 0.  0.
         25    2    1    2    0    0 -0.76962388841E+02 -0.43381029979E+02 -0.36510626377E+03  0.39592362594E+03  0.12509120943E+03 0.  0.
        -24    2    1    2    0    0  0.68835976556E+02  0.94596943370E+02  0.11733278671E+03  0.18908811579E+03  0.91106307867E+02 0.  0.
        -13    1    3    3    0    0 -0.26779735037E+02 -0.53367589395E+02 -0.37919021659E+03  0.38386257197E+03  0.00000000000E+00 0.  1.
         14    1    3    3    0    0  0.34906147323E+02  0.21516760038E+01 -0.13424041696E+03  0.13872115331E+03  0.00000000000E+00 0. -1.
         13    1    5    5    0    0 -0.10433052955E+02 -0.10451075163E+02  0.37159167102E+01  0.15227659144E+02  0.00000000000E+00 0. -1.
        -14    1    5    5    0    0  0.79269029510E+02  0.10504801853E+03  0.11361687000E+03  0.17386045665E+03  0.00000000000E+00 0.  1.
          5    1    4    4  501    0 -0.10200198159E+03 -0.37641630542E+01 -0.28814761861E+03  0.30572061704E+03  0.41800000000E+01 0.  1.
         -5    1    4    4    0  501  0.25039592751E+02 -0.39616866925E+02 -0.76958645164E+02  0.90203008905E+02  0.41800000000E+01 0.  1.
</event>
<event>
11    1  0.8453735E-009  0.1326777E+03  0.7561462E-02  0.1116022E+00
         22   -1    0    0    0    0  0.00000000000E+00  0.00000000000E+00  0.13927552943E+04  0.13927552943E+04  0.00000000000E+00 0.  1.
         22   -1    0    0    0    0 -0.00000000000E+00 -0.00000000000E+00 -0.99997437382E+03  0.99997437382E+03  0.00000000000E+00 0. -1.
        -24    2    1    2    0    0 -0.45061428765E+02 -0.10273482529E+00 -0.93240607610E+03  0.93757389488E+03  0.87368041622E+02 0.  0.
         25    2    1    2    0    0  0.20665614666E+02  0.42318309695E+02  0.71286439955E+01  0.13385077656E+03  0.12508919160E+03 0.  0.
         24    2    1    2    0    0  0.24395814099E+02 -0.42215574869E+02  0.13180583525E+04  0.13213049966E+04  0.78687755766E+02 0.  0.
        -11    1    5    5    0    0 -0.51104636625E+01 -0.46605387612E+02  0.11230430267E+04  0.11240212715E+04  0.00000000000E+00 0.  1.
         12    1    5    5    0    0  0.29506277761E+02  0.43898127422E+01  0.19501532588E+03  0.19728372516E+03  0.00000000000E+00 0. -1.
         13    1    3    3    0    0 -0.60715746967E+02 -0.26939566916E+02 -0.68857412041E+03  0.69177052662E+03  0.00000000000E+00 0. -1.
        -14    1    3    3    0    0  0.15654318201E+02  0.26836832090E+02 -0.24383195569E+03  0.24580336826E+03  0.00000000000E+00 0.  1.
          5    1    4    4  501    0 -0.40768106016E+01  0.28521762949E+02 -0.56786221882E+02  0.63814251873E+02  0.41800000000E+01 0. -1.
         -5    1    4    4    0  501  0.24742425268E+02  0.13796546745E+02  0.63914865878E+02  0.70036524688E+02  0.41800000000E+01 0. -1.
</event>
<event>
11    1  0.8453735E-009  0.1428246E+03  0.7561462E-02  0.1104445E+00
         22   -1    0    0    0    0  0.00000000000E+00  0.00000000000E+00  0.42763595131E+03  0.42763595131E+03  0.00000000000E+00 0. -1.
         22   -1    0    0    0    0 -0.00000000000E+00 -0.00000000000E+00 -0.13506155167E+04  0.13506155167E+04  0.00000000000E+00 0.  1.
        -24    2    1    2    0    0  0.21459414260E+02 -0.29622343860E+02 -0.10928930455E+04  0.10964301599E+04  0.80036847626E+02 0.  0.
         25    2    1    2    0    0  0.37351156286E+02  0.65746812366E+02 -0.22766526403E+03  0.27054344967E+03  0.12507810958E+03 0.  0.
         24    2    1    2    0    0 -0.58810570546E+02 -0.36124468506E+02  0.39757874412E+03  0.41127785845E+03  0.79479296926E+02 0.  0.
        -13    1    5    5    0    0 -0.79637293763E+01  0.67372731754E+01  0.26143038278E+01  0.10753902544E+02  0.00000000000E+00 0.  1.
         14    1    5    5    0    0 -0.50846841170E+02 -0.42861741681E+02  0.39496444029E+03  0.40052395590E+03  0.00000000000E+00 0. -1.
         11    1    3    3    0    0  0.17809920917E+02 -0.29726704693E+02 -0.16833452449E+03  0.17186443027E+03  0.00000000000E+00 0. -1.
        -12    1    3    3    0    0  0.36494933432E+01  0.10436083266E+00 -0.92455852100E+03  0.92456572965E+03  0.00000000000E+00 0.  1.
          5    1    4    4  501    0 -0.31299861157E+02 -0.59074510569E+01 -0.14241661348E+02  0.35140811095E+02  0.41800000000E+01 0. -1.
         -5    1    4    4    0  501  0.68651017443E+02  0.71654263423E+02 -0.21342360269E+03  0.23540263857E+03  0.41800000000E+01 0. -1.
</event>
<event>
11    1  0.8453735E-009  0.1510836E+03  0.7561462E-02  0.1095777E+00
         22   -1    0    0    0    0  0.00000000000E+00  0.00000000000E+00  0.49464467927E+03  0.49464467927E+03  0.00000000000E+00 0.  1.
         22   -1    0    0    0    0 -0.00000000000E+00 -0.00000000000E+00 -0.22365797439E+04  0.22365797439E+04  0.00000000000E+00 0.  1.
        -24    2    1    2    0    0 -0.52691478749E+02 -0.22965297223E+02 -0.21697475785E+04  0.21720641664E+04  0.82185108615E+02 0.  0.
         25    2    1    2    0    0  0.12027527833E+03 -0.20190405489E+02  0.77297029751E+02  0.19104100935E+03  0.12509213162E+03 0.  0.
         24    2    1    2    0    0 -0.67583799577E+02  0.43155702712E+02  0.35051548407E+03  0.36811924740E+03  0.78871357835E+02 0.  0.
        -11    1    5    5    0    0 -0.56725379446E+02  0.41074073430E+02  0.13290825384E+03  0.15023132870E+03  0.00000000000E+00 0.  1.
         12    1    5    5    0    0 -0.10858420131E+02  0.20816292824E+01  0.21760723023E+03  0.21788791870E+03  0.00000000000E+00 0. -1.
         11    1    3    3    0    0  0.85569469629E+00  0.25508105259E+02 -0.37752755820E+03  0.37838928744E+03  0.00000000000E+00 0. -1.
        -12    1    3    3    0    0 -0.53547173445E+02 -0.48473402482E+02 -0.17922200203E+04  0.17936748790E+04  0.00000000000E+00 0.  1.
          5    1    4    4  501    0  0.85670007249E+01  0.61207831814E+01 -0.31114194791E+02  0.33112278775E+02  0.41800000000E+01 0. -1.
         -5    1    4    4    0  501  0.11170827760E+03 -0.26311188671E+02  0.10841122454E+03  0.15792873057E+03  0.41800000000E+01 0. -1.
</event>
<event>
11    1  0.8453735E-009  0.1379569E+03  0.7561462E-02  0.1109861E+00
         22   -1    0    0    0    0  0.00000000000E+00  0.00000000000E+00  0.14944432427E+04  0.14944432427E+04  0.00000000000E+00 0. -1.
         22   -1    0    0    0    0 -0.00000000000E+00 -0.00000000000E+00 -0.64984923052E+02  0.64984923052E+02  0.00000000000E+00 0.  1.
         24    2    1    2    0    0  0.39032899917E+02 -0.23861012810E+02 -0.10991577615E+02  0.93838824997E+02  0.81191102285E+02 0.  0.
         25    2    1    2    0    0 -0.71312186002E+02 -0.22979008468E+02  0.52308774259E+03  0.54303053750E+03  0.12509162844E+03 0.  0.
        -24    2    1    2    0    0  0.32279286085E+02  0.46840021278E+02  0.91736215467E+03  0.92255880325E+03  0.79532903498E+02 0.  0.
        -13    1    3    3    0    0  0.39224100975E+02 -0.51942520129E+02 -0.67445739787E+01  0.65437334701E+02  0.00000000000E+00 0.  1.
         14    1    3    3    0    0 -0.19120105761E+00  0.28081507319E+02 -0.42470036359E+01  0.28401490296E+02  0.00000000000E+00 0. -1.
         13    1    5    5    0    0  0.48166853806E+02  0.22095012608E+02  0.31088681346E+03  0.31537096596E+03  0.00000000000E+00 0. -1.
        -14    1    5    5    0    0 -0.15887567721E+02  0.24745008670E+02  0.60647534121E+03  0.60718783729E+03  0.00000000000E+00 0.  1.
          5    1    4    4  501    0 -0.92972898817E+02 -0.32817200213E+02  0.24842397517E+03  0.26730670097E+03  0.41800000000E+01 0.  1.
         -5    1    4    4    0  501  0.21660712815E+02  0.98381917450E+01  0.27466376742E+03  0.27572383652E+03  0.41800000000E+01 0.  1.
</event>
<event>
11    1  0.8453735E-009  0.1596674E+03  0.7561462E-02  0.1087391E+00
         22   -1    0    0    0    0  0.00000000000E+00  0.00000000000E+00  0.44467163318E+03  0.44467163318E+03  0.00000000000E+00 0. -1.
         22   -1    0    0    0    0 -0.00000000000E+00 -0.00000000000E+00 -0.46241774566E+03  0.46241774566E+03  0.00000000000E+00 0.  1.
         24    2    1    2    0    0 -0.87990897861E+02  0.44008368847E+02 -0.35667652216E+03  0.37849186835E+03  0.79742199071E+02 0.  0.
         25    2    1    2    0    0  0.11287447564E+03 -0.74486062573E+01 -0.88464488099E+01  0.16888307673E+03  0.12508838860E+03 0.  0.
        -24    2    1    2    0    0 -0.24883577780E+02 -0.36559762590E+02  0.34777685849E+03  0.35971443376E+03  0.80560051346E+02 0.  0.
        -11    1    3    3    0    0 -0.65143054643E+02  0.67335746089E+02 -0.25270148376E+03  0.26951022275E+03  0.00000000000E+00 0.  1.
         12    1    3    3    0    0 -0.22847843218E+02 -0.23327377242E+02 -0.10397503840E+03  0.10898164560E+03  0.00000000000E+00 0. -1.
         13    1    5    5    0    0 -0.13068490728E+02 -0.55850861506E+02  0.31310332745E+03  0.31831399253E+03  0.00000000000E+00 0. -1.
        -14    1    5    5    0    0 -0.11815087053E+02  0.19291098916E+02  0.34673531040E+02  0.41400441233E+02  0.00000000000E+00 0.  1.
          5    1    4    4  501    0  0.52011353793E+02 -0.38893754419E+02  0.47100391667E+02  0.80335697864E+02  0.41800000000E+01 0. -1.
         -5    1    4    4    0  501  0.60863121849E+02  0.31445148161E+02 -0.55946840477E+02  0.88547378862E+02  0.41800000000E+01 0. -1.
</event>
<event>
11    1  0.8453735E-009  0.2735396E+03  0.7561462E-02  0.1012056E+00
         22   -1    0    0    0    0  0.00000000000E+00  0.00000000000E+00  0.12943280044E+04  0.12943280044E+04  0.00000000000E+00 0.  1.
         22   -1    0    0    0    0 -0.00000000000E+00 -0.00000000000E+00 -0.64047234404E+03  0.64047234404E+03  0.00000000000E+00 0. -1.
         24    2    1    2    0    0  0.24709111028E+03  0.44015754270E+02 -0.38697535043E+03  0.46832693430E+03  0.81171375141E+02 0.  0.
         25    2    1    2    0    0 -0.22399430957E+03 -0.42773250408E+02 -0.13038658592E+03  0.29094812040E+03  0.12508854987E+03 0.  0.
        -24    2    1    2    0    0 -0.23096800707E+02 -0.12425038621E+01  0.11712175967E+04  0.11755252938E+04  0.97847081628E+02 0.  0.
        -11    1    3    3    0    0  0.25233357377E+02  0.67315190479E+01 -0.74889914578E+01  0.27168376217E+02  0.00000000000E+00 0.  1.
         12    1    3    3    0    0  0.22185775290E+03  0.37284235222E+02 -0.37948635897E+03  0.44115855808E+03  0.00000000000E+00 0. -1.
         13    1    5    5    0    0  0.17879093898E+02 -0.16889487855E+01  0.43471559364E+02  0.47034997822E+02  0.00000000000E+00 0. -1.
        -14    1    5    5    0    0 -0.40975894605E+02  0.44644492334E+00  0.11277460374E+04  0.11284902959E+04  0.00000000000E+00 0.  1.
          5    1    4    4  501    0 -0.15520531438E+03 -0.29548913729E+02 -0.15019603058E+03  0.21803244693E+03  0.41800000000E+01 0. -1.
         -5    1    4    4    0  501 -0.68788995193E+02 -0.13224336678E+02  0.19809444660E+02  0.72915673473E+02  0.41800000000E+01 0. -1.
</event>
<event>
11    1  0.8453735E-009  0.1599003E+03  0.7561462E-02  0.1087171E+00
         22   -1    0    0    0    0  0.00000000000E+00  0.00000000000E+00  0.17253000860E+03  0.17253000860E+03  0.00000000000E+00 0.  1.
         22   -1    0    0    0    0 -0.00000000000E+00 -0.00000000000E+00 -0.79506717721E+03  0.79506717721E+03  0.00000000000E+00 0. -1.
         24    2    1    2    0    0 -0.28540168271E+01 -0.27122592367E+02 -0.63637671050E+03  0.64213776428E+03  0.81374505933E+02 0.  0.
         25    2    1    2    0    0  0.38968789078E+02  0.11342511425E+03 -0.57197223561E+02  0.18249162855E+03  0.12509136279E+03 0.  0.
        -24    2    1    2    0    0 -0.36114772251E+02 -0.86302521880E+02  0.71036765449E+02  0.14296779297E+03  0.81493347731E+02 0.  0.
        -11    1    3    3    0    0 -0.17705033652E+02  0.23439882757E+02 -0.32582822009E+03  0.32714969865E+03  0.00000000000E+00 0.  1.
         12    1    3    3    0    0  0.14851016825E+02 -0.50562475124E+02 -0.31054849041E+03  0.31498806563E+03  0.00000000000E+00 0. -1.
         13    1    5    5    0    0 -0.13771558166E+02  0.65586884308E+01 -0.95539780532E+01  0.17998630640E+02  0.00000000000E+00 0. -1.
        -14    1    5    5    0    0 -0.22343214085E+02 -0.92861210311E+02  0.80590743502E+02  0.12496916233E+03  0.00000000000E+00 0.  1.
          5    1    4    4  501    0  0.17471137466E+02  0.13029789206E+03 -0.15470185594E+02  0.13243708077E+03  0.41800000000E+01 0.  1.
         -5    1    4    4    0  501  0.21497651613E+02 -0.16872777817E+02 -0.41727037968E+02  0.50054547782E+02  0.41800000000E+01 0.  1.
</event>
<event>
11    1  0.8453735E-009  0.1290594E+03  0.7561462E-02  0.1120430E+00
         22   -1    0    0    0    0  0.00000000000E+00  0.00000000000E+00  0.59777260323E+03  0.59777260323E+03  0.00000000000E+00 0.  1.
         22   -1    0    0    0    0 -0.00000000000E+00 -0.00000000000E+00 -0.15338477078E+03  0.15338477078E+03  0.00000000000E+00 0. -1.
         24    2    1    2    0    0  0.89944915832E+01  0.35951732877E+02 -0.11486556506E+03  0.14389627806E+03  0.78349300097E+02 0.  0.
         25    2    1    2    0    0 -0.71839713908E+01  0.36415977352E+01  0.19042438103E+03  0.22797734046E+03  0.12508937682E+03 0.  0.
        -24    2    1    2    0    0 -0.18105201924E+01 -0.39593330612E+02  0.36882901649E+03  0.37928375549E+03  0.79059559594E+02 0.  0.
        -11    1    3    3    0    0  0.37209249184E+01  0.48478725494E+02 -0.28274147318E+02  0.56244639872E+02  0.00000000000E+00 0.  1.
         12    1    3    3    0    0  0.52735666648E+01 -0.12526992618E+02 -0.86591417743E+02  0.87651638183E+02  0.00000000000E+00 0. -1.
         11    1    5    5    0    0 -0.37791194630E+02 -0.28398137943E+02  0.25601943906E+03  0.26034704109E+03  0.00000000000E+00 0. -1.
        -12    1    5    5    0    0  0.35980674437E+02 -0.11195192669E+02  0.11280957743E+03  0.11893671440E+03  0.00000000000E+00 0.  1.
          5    1    4    4  501    0 -0.44722590279E+02  0.16873959031E+02  0.18046554409E+03  0.18673544275E+03  0.41800000000E+01 0. -1.
         -5    1    4    4    0  501  0.37538618888E+02 -0.13232361296E+02  0.99588369365E+01  0.41241897709E+02  0.41800000000E+01 0. -1.
</event>
<event>
11    1  0.1221233E-008  0.1656977E+03  0.7561462E-02  0.1081838E+00
         22   -1    0    0    0    0  0.00000000000E+00  0.00000000000E+00  0.10798744055E+04  0.10798744055E+04  0.00000000000E+00 0. -1.
         22   -1    0    0    0    0 -0.00000000000E+00 -0.00000000000E+00 -0.13556015680E+04  0.13556015680E+04  0.00000000000E+00 0. -1.
        -24    2    1    2    0    0 -0.77685595761E+02  0.70676481289E+02 -0.12048151391E+04  0.12140723401E+04  0.10659226406E+03 0.  0.
         25    2    1    2    0    0  0.94484693049E+02 -0.15399215924E+03 -0.58305112020E+02  0.22737548838E+03  0.12513666249E+03 0.  0.
         24    2    1    2    0    0 -0.16799097287E+02  0.83315677952E+02  0.98739308865E+03  0.99402814507E+03  0.76961872529E+02 0.  0.
        -11    1    5    5    0    0 -0.10832672230E+02  0.25551330618E+02  0.78133058940E+02  0.82915572622E+02  0.00000000000E+00 0.  1.
         12    1    5    5    0    0 -0.59664250575E+01  0.57764347334E+02  0.90926002971E+03  0.91111257245E+03  0.00000000000E+00 0. -1.
         11    1    3    3    0    0 -0.96659154176E+01  0.76415511748E+02 -0.78178030702E+03  0.78556553438E+03  0.00000000000E+00 0. -1.
        -12    1    3    3    0    0 -0.68019680344E+02 -0.57390304593E+01 -0.42303483209E+03  0.42850680572E+03  0.00000000000E+00 0.  1.
          5    1    4    4  501    0  0.89721776598E+02 -0.10930708983E+03 -0.93980014910E+02  0.16984626191E+03  0.41800000000E+01 0.  1.
         -5    1    4    4    0  501  0.47629164510E+01 -0.44685069416E+02  0.35674902891E+02  0.57529226468E+02  0.41800000000E+01 0.  1.
</event>
<event>
11    1  0.8727183E-009  0.1611577E+03  0.7561462E-02  0.1085993E+00
         22   -1    0    0    0    0  0.00000000000E+00  0.00000000000E+00  0.78742331815E+03  0.78742331815E+03  0.00000000000E+00 0. -1.
         22   -1    0    0    0    0 -0.00000000000E+00 -0.00000000000E+00 -0.52470025912E+03  0.52470025912E+03  0.00000000000E+00 0. -1.
         24    2    1    2    0    0  0.86559429126E+02 -0.73793111589E+02 -0.40753755010E+03  0.43071373862E+03  0.80557506232E+02 0.  0.
         25    2    1    2    0    0 -0.33777404945E+02  0.42848778861E+02 -0.56431840073E+02  0.14770577711E+03  0.12512199281E+03 0.  0.
        -24    2    1    2    0    0 -0.52782024181E+02  0.30944332728E+02  0.72669244920E+03  0.73370406153E+03  0.80599257908E+02 0.  0.
        -11    1    3    3    0    0  0.17545071215E+01 -0.39617896673E+01  0.32973565096E+01  0.54448721342E+01  0.00000000000E+00 0.  1.
         12    1    3    3    0    0  0.84804922004E+02 -0.69831321921E+02 -0.41083490661E+03  0.42526886649E+03  0.00000000000E+00 0. -1.
         13    1    5    5    0    0 -0.44369970097E+02  0.55596917448E+02  0.42724938437E+03  0.43313017434E+03  0.00000000000E+00 0. -1.
        -14    1    5    5    0    0 -0.84120540837E+01 -0.24652584720E+02  0.29944306483E+03  0.30057388720E+03  0.00000000000E+00 0.  1.
          5    1    4    4  501    0 -0.68316573657E+02 -0.99703158117E+01 -0.47320879941E+02  0.83805128197E+02  0.41800000000E+01 0.  1.
         -5    1    4    4    0  501  0.34539168712E+02  0.52819094673E+02 -0.91109601318E+01  0.63900648916E+02  0.41800000000E+01 0.  1.
</event>
<event>
11    1  0.8453735E-009  0.1647605E+03  0.7561462E-02  0.1082683E+00
         22   -1    0    0    0    0  0.00000000000E+00  0.00000000000E+00  0.47428121425E+03  0.47428121425E+03  0.00000000000E+00 0.  1.
         22   -1    0    0    0    0 -0.00000000000E+00 -0.00000000000E+00 -0.40332062295E+03  0.40332062295E+03  0.00000000000E+00 0.  1.
         24    2    1    2    0    0 -0.10757418466E+03 -0.41617191163E+02 -0.32704127637E+03  0.35612368242E+03  0.81017806242E+02 0.  0.
         25    2    1    2    0    0  0.57034320620E+02  0.14598323379E+02  0.32650369562E+02  0.14205525626E+03  0.12509046496E+03 0.  0.
        -24    2    1    2    0    0  0.50539864044E+02  0.27018867784E+02  0.36535149810E+03  0.37942289852E+03  0.84827599782E+02 0.  0.
        -13    1    3    3    0    0 -0.90182560311E+02 -0.11018688382E+02 -0.29447831601E+03  0.30817492480E+03  0.00000000000E+00 0.  1.
         14    1    3    3    0    0 -0.17391624353E+02 -0.30598502781E+02 -0.32562960360E+02  0.47948757621E+02  0.00000000000E+00 0. -1.
         11    1    5    5    0    0 -0.21423383421E+02  0.20242840842E+02  0.87870704502E+02  0.92682224144E+02  0.00000000000E+00 0. -1.
        -12    1    5    5    0    0  0.71963247465E+02  0.67760269418E+01  0.27748079360E+03  0.28674067438E+03  0.00000000000E+00 0.  1.
          5    1    4    4  501    0  0.66197130824E+02  0.49552935032E+02  0.54965755761E+02  0.99379375154E+02  0.41800000000E+01 0.  1.
         -5    1    4    4    0  501 -0.91628102046E+01 -0.34954611653E+02 -0.22315386199E+02  0.42675881102E+02  0.41800000000E+01 0.  1.
</event>
<event>
11    1  0.8453735E-009  0.1321259E+03  0.7561462E-02  0.1116684E+00
         22   -1    0    0    0    0  0.00000000000E+00  0.00000000000E+00  0.21428517791E+03  0.21428517791E+03  0.00000000000E+00 0.  1.
         22   -1    0    0    0    0 -0.00000000000E+00 -0.00000000000E+00 -0.64488056160E+03  0.64488056160E+03  0.00000000000E+00 0.  1.
        -24    2    1    2    0    0  0.11267283169E+02 -0.28219732073E+02 -0.29350859220E+03  0.30568662196E+03  0.79835532218E+02 0.  0.
         25    2    1    2    0    0  0.80519290356E+01  0.65428206735E+02 -0.31991395975E+03  0.34976993026E+03  0.12509347974E+03 0.  0.
         24    2    1    2    0    0 -0.19319212204E+02 -0.37208474662E+02  0.18282716826E+03  0.20370918729E+03  0.79460411433E+02 0.  0.
        -13    1    5    5    0    0 -0.10432835020E+01 -0.17001999499E+02  0.17434330611E+03  0.17517347063E+03  0.00000000000E+00 0.  1.
         14    1    5    5    0    0 -0.18275928702E+02 -0.20206475163E+02  0.84838621559E+01  0.28535716664E+02  0.00000000000E+00 0. -1.
         13    1    3    3    0    0 -0.32132332314E+02 -0.30568388649E+01 -0.77971066672E+02  0.84387903646E+02  0.00000000000E+00 0. -1.
        -14    1    3    3    0    0  0.43399615483E+02 -0.25162893208E+02 -0.21553752552E+03  0.22129871832E+03  0.00000000000E+00 0.  1.
          5    1    4    4  501    0  0.57581838140E+02  0.31971214393E+02 -0.86570171104E+02  0.10885629774E+03  0.41800000000E+01 0. -1.
         -5    1    4    4    0  501 -0.49529909105E+02  0.33456992342E+02 -0.23334378864E+03  0.24091363251E+03  0.41800000000E+01 0. -1.
</event>
<event>
11    1  0.8453735E-009  0.1778257E+03  0.7561462E-02  0.1071415E+00
         22   -1    0    0    0    0  0.00000000000E+00  0.00000000000E+00  0.10094435506E+04  0.10094435506E+04  0.00000000000E+00 0. -1.
         22   -1    0    0    0    0 -0.00000000000E+00 -0.00000000000E+00 -0.11825867806E+03  0.11825867806E+03  0.00000000000E+00 0. -1.
        -24    2    1    2    0    0 -0.51577255408E+02 -0.11633060518E+03 -0.39588527427E+02  0.14855555774E+03  0.65639007127E+02 0.  0.
         25    2    1    2    0    0  0.27678476078E+02  0.11944327507E+03  0.33857289502E+03  0.38119844745E+03  0.12509139498E+03 0.  0.
         24    2    1    2    0    0  0.23898779330E+02 -0.31126698886E+01  0.59220050494E+03  0.59794822346E+03  0.79118894806E+02 0.  0.
        -11    1    5    5    0    0  0.15036529057E+02  0.13907766063E+02  0.36016011082E+02  0.41432791569E+02  0.00000000000E+00 0.  1.
         12    1    5    5    0    0  0.88622502723E+01 -0.17020435951E+02  0.55618449386E+03  0.55651543189E+03  0.00000000000E+00 0. -1.
         11    1    3    3    0    0 -0.13536203050E+02 -0.81105082489E+02 -0.49206301892E+02  0.95825483794E+02  0.00000000000E+00 0. -1.
        -12    1    3    3    0    0 -0.38041052358E+02 -0.35225522688E+02  0.96177744648E+01  0.52730073950E+02  0.00000000000E+00 0.  1.
          5    1    4    4  501    0 -0.30069626387E+02  0.90458280767E+02  0.12042510070E+03  0.15364426533E+03  0.41800000000E+01 0.  1.
         -5    1    4    4    0  501  0.57748102465E+02  0.28984994299E+02  0.21814779432E+03  0.22755418212E+03  0.41800000000E+01 0.  1.
</event>
<event>
11    1  0.8453735E-009  0.1442649E+03  0.7561462E-02  0.1102887E+00
         22   -1    0    0    0    0  0.00000000000E+00  0.00000000000E+00  0.39039873988E+03  0.39039873988E+03  0.00000000000E+00 0. -1.
         22   -1    0    0    0    0 -0.00000000000E+00 -0.00000000000E+00 -0.42219132212E+03  0.42219132212E+03  0.00000000000E+00 0. -1.
         24    2    1    2    0    0 -0.30216885833E+02  0.28206639073E+01 -0.36953234607E+03  0.37954864440E+03  0.81129540515E+02 0.  0.
         25    2    1    2    0    0  0.39319625324E+02 -0.71717299661E+02  0.12852680727E+03  0.19711886132E+03  0.12508917337E+03 0.  0.
        -24    2    1    2    0    0 -0.91027394909E+01  0.68896635754E+02  0.20921295655E+03  0.23592255627E+03  0.84022527237E+02 0.  0.
        -13    1    3    3    0    0 -0.10933810726E+02  0.58418960378E+00 -0.15546033664E+01  0.11059217247E+02  0.00000000000E+00 0.  1.
         14    1    3    3    0    0 -0.19283075107E+02  0.22364743035E+01 -0.36797774270E+03  0.36848942716E+03  0.00000000000E+00 0. -1.
         11    1    5    5    0    0  0.28431059913E+02  0.12650765804E+02  0.12005778694E+03  0.12402515571E+03  0.00000000000E+00 0. -1.
        -12    1    5    5    0    0 -0.37533799404E+02  0.56245869950E+02  0.89155169607E+02  0.11189740056E+03  0.00000000000E+00 0.  1.
          5    1    4    4  501    0 -0.20226909363E+02 -0.14084673086E+02  0.10906358978E+03  0.11189211274E+03  0.41800000000E+01 0. -1.
         -5    1    4    4    0  501  0.59546534687E+02 -0.57632626575E+02  0.19463217499E+02  0.85226748586E+02  0.41800000000E+01 0. -1.
</event>
<event>
11    1  0.8453735E-009  0.2350794E+03  0.7561462E-02  0.1032162E+00
         22   -1    0    0    0    0  0.00000000000E+00  0.00000000000E+00  0.14742639191E+04  0.14742639191E+04  0.00000000000E+00 0. -1.
         22   -1    0    0    0    0 -0.00000000000E+00 -0.00000000000E+00 -0.90592585380E+03  0.90592585380E+03  0.00000000000E+00 0. -1.
         24    2    1    2    0    0 -0.83671558614E+02 -0.56180109466E+02 -0.82888175344E+03  0.83862945938E+03  0.78085046805E+02 0.  0.
         25    2    1    2    0    0  0.19130271565E+03  0.20855254755E+03  0.31941415312E+03  0.44470617892E+03  0.12508912925E+03 0.  0.
        -24    2    1    2    0    0 -0.10763115704E+03 -0.15237243808E+03  0.10778056656E+04  0.10968541346E+04  0.81376371763E+02 0.  0.
        -11    1    3    3    0    0 -0.35345170050E+02 -0.55634984148E+02 -0.28129956049E+03  0.28891863083E+03  0.00000000000E+00 0.  1.
         12    1    3    3    0    0 -0.48326388564E+02 -0.54512531793E+00 -0.54758219295E+03  0.54971082855E+03  0.00000000000E+00 0. -1.
         11    1    5    5    0    0 -0.83265396330E+02 -0.14328767230E+03  0.10212166733E+04  0.10345762307E+04  0.00000000000E+00 0. -1.
        -12    1    5    5    0    0 -0.24365760707E+02 -0.90847657824E+01  0.56588992300E+02  0.62277903896E+02  0.00000000000E+00 0.  1.
          5    1    4    4  501    0  0.19308194317E+03  0.13590215515E+03  0.23346930615E+03  0.33207743354E+03  0.41800000000E+01 0.  1.
         -5    1    4    4    0  501 -0.17792275174E+01  0.72650392396E+02  0.85944846975E+02  0.11262874539E+03  0.41800000000E+01 0.  1.
</event>
<event>
11    1  0.8453735E-009  0.1373149E+03  0.7561462E-02  0.1110594E+00
         22   -1    0    0    0    0  0.00000000000E+00  0.00000000000E+00  0.74322387834E+03  0.74322387834E+03  0.00000000000E+00 0.  1.
         22   -1    0    0    0    0 -0.00000000000E+00 -0.00000000000E+00 -0.16745060527E+03  0.16745060527E+03  0.00000000000E+00 0. -1.
        -24    2    1    2    0    0  0.75102505247E+01 -0.96952413258E+01 -0.13733129852E+03  0.15907718651E+03  0.79342700655E+02 0.  0.
         25    2    1    2    0    0  0.16985714015E+02 -0.46520061766E+02  0.37485236726E+03  0.39825922301E+03  0.12507390153E+03 0.  0.
         24    2    1    2    0    0 -0.24495964540E+02  0.56215303092E+02  0.33825220433E+03  0.35333807408E+03  0.81688605591E+02 0.  0.
        -11    1    5    5    0    0  0.17386312006E+02  0.54043874282E+02  0.23779761889E+03  0.24448053448E+03  0.00000000000E+00 0.  1.
         12    1    5    5    0    0 -0.41882276546E+02  0.21714288099E+01  0.10045458544E+03  0.10885753960E+03  0.00000000000E+00 0. -1.
         11    1    3    3    0    0  0.22223965622E+02 -0.99435860618E+01 -0.14166070738E+03  0.14373773188E+03  0.00000000000E+00 0. -1.
        -12    1    3    3    0    0 -0.14713715098E+02  0.24834473598E+00  0.43294088612E+01  0.15339454624E+02  0.00000000000E+00 0.  1.
          5    1    4    4  501    0  0.72157149323E+01 -0.21320044376E+02  0.48888253950E+00  0.22898083770E+02  0.41800000000E+01 0.  1.
         -5    1    4    4    0  501  0.97699990830E+01 -0.25200017390E+02  0.37436348472E+03  0.37536113924E+03  0.41800000000E+01 0.  1.
</event>
<event>
11    1  0.8453735E-009  0.1336265E+03  0.7561462E-02  0.1114892E+00
         22   -1    0    0    0    0  0.00000000000E+00  0.00000000000E+00  0.17843259776E+04  0.17843259776E+04  0.00000000000E+00 0.  1.
         22   -1    0    0    0    0 -0.00000000000E+00 -0.00000000000E+00 -0.12023709265E+04  0.12023709265E+04  0.00000000000E+00 0.  1.
         24    2    1    2    0    0 -0.41285024645E+02 -0.21966393569E+02 -0.11706550359E+04  0.11745588022E+04  0.83475691648E+02 0.  0.
         25    2    1    2    0    0  0.59625958986E+02  0.31631627845E+02  0.14721445265E+03  0.20463537237E+03  0.12509086973E+03 0.  0.
        -24    2    1    2    0    0 -0.18340934342E+02 -0.96652342766E+01  0.16053956344E+04  0.16075027295E+04  0.79624593340E+02 0.  0.
        -11    1    3    3    0    0 -0.55263430928E+02 -0.22857295605E+02 -0.11295654002E+04  0.11311474245E+04  0.00000000000E+00 0.  1.
         12    1    3    3    0    0  0.13978406283E+02  0.89090203621E+00 -0.41089635700E+02  0.43411377663E+02  0.00000000000E+00 0. -1.
         11    1    5    5    0    0  0.23207369990E+02  0.82622630790E+01  0.10425514573E+04  0.10428424560E+04  0.00000000000E+00 0. -1.
        -12    1    5    5    0    0 -0.41548304332E+02 -0.17927497356E+02  0.56284417712E+03  0.56466027350E+03  0.00000000000E+00 0.  1.
          5    1    4    4  501    0 -0.80140533952E+01  0.21727009100E+01 -0.19871479108E+02  0.21938408398E+02  0.41800000000E+01 0. -1.
         -5    1    4    4    0  501  0.67640012381E+02  0.29458926935E+02  0.16708593176E+03  0.18269696397E+03  0.41800000000E+01 0. -1.
</event>
<event>
11    1  0.8453735E-009  0.1372597E+03  0.7561462E-02  0.1110658E+00
         22   -1    0    0    0    0  0.00000000000E+00  0.00000000000E+00  0.27356524913E+03  0.27356524913E+03  0.00000000000E+00 0. -1.
         22   -1    0    0    0    0 -0.00000000000E+00 -0.00000000000E+00 -0.61886826417E+03  0.61886826417E+03  0.00000000000E+00 0. -1.
        -24    2    1    2    0    0  0.43209315046E+02  0.31244822388E+02 -0.52669430887E+03  0.53545780855E+03  0.80404514192E+02 0.  0.
         25    2    1    2    0    0 -0.86746649346E+02 -0.50631877826E+02  0.15194571937E+02  0.16114551315E+03  0.12509369755E+03 0.  0.
         24    2    1    2    0    0  0.43537334301E+02  0.19387055438E+02  0.16619672189E+03  0.19583019160E+03  0.91960622978E+02 0.  0.
        -13    1    5    5    0    0 -0.25069627823E+02 -0.24173979874E+01  0.17636676583E+02  0.30747071619E+02  0.00000000000E+00 0.  1.
         14    1    5    5    0    0  0.68606962124E+02  0.21804453425E+02  0.14856004531E+03  0.16508311998E+03  0.00000000000E+00 0. -1.
         11    1    3    3    0    0  0.57145667839E+02  0.75954372452E+01 -0.21624486129E+03  0.22379713594E+03  0.00000000000E+00 0. -1.
        -12    1    3    3    0    0 -0.13936352793E+02  0.23649385143E+02 -0.31044944758E+03  0.31166067261E+03  0.00000000000E+00 0.  1.
          5    1    4    4  501    0 -0.64553318090E+02 -0.56323785037E+02 -0.44815164705E+02  0.96774847067E+02  0.41800000000E+01 0.  1.
         -5    1    4    4    0  501 -0.22193331256E+02  0.56919072115E+01  0.60009736642E+02  0.64370666082E+02  0.41800000000E+01 0.  1.
</event>
<event>
11    1  0.8453735E-009  0.1591069E+03  0.7561462E-02  0.1087920E+00
         22   -1    0    0    0    0  0.00000000000E+00  0.00000000000E+00  0.18140420143E+03  0.18140420143E+03  0.00000000000E+00 0. -1.
         22   -1    0    0    0    0 -0.00000000000E+00 -0.00000000000E+00 -0.40764622032E+04  0.40764622032E+04  0.00000000000E+00 0. -1.
        -24    2    1    2    0    0  0.96697297525E+02  0.18804903175E+02 -0.38654436294E+04  0.38676605410E+04  0.86253211168E+02 0.  0.
         25    2    1    2    0    0 -0.92548291810E+02 -0.12445526535E+02 -0.16882423000E+03  0.22993284808E+03  0.12508963403E+03 0.  0.
         24    2    1    2    0    0 -0.41490057149E+01 -0.63593766399E+01  0.13920985770E+03  0.16027301551E+03  0.79059465593E+02 0.  0.
        -11    1    5    5    0    0 -0.10416159829E+02 -0.13824384044E+02 -0.31383871665E+01  0.17591459683E+02  0.00000000000E+00 0.  1.
         12    1    5    5    0    0  0.62671541145E+01  0.74650074040E+01  0.14234824487E+03  0.14268155583E+03  0.00000000000E+00 0. -1.
         11    1    3    3    0    0  0.41636649331E+02  0.47365172577E+02 -0.25185502781E+04  0.25193397098E+04  0.00000000000E+00 0. -1.
        -12    1    3    3    0    0  0.55060648194E+02 -0.28560269402E+02 -0.13468933514E+04  0.13483208312E+04  0.00000000000E+00 0.  1.
          5    1    4    4  501    0 -0.11944614580E+03  0.65175773395E+01 -0.11086808285E+03  0.16315350059E+03  0.41800000000E+01 0.  1.
         -5    1    4    4    0  501  0.26897853990E+02 -0.18963103874E+02 -0.57956147150E+02  0.66779347483E+02  0.41800000000E+01 0.  1.
</event>
<event>
11    1  0.8453735E-009  0.1566195E+03  0.7561462E-02  0.1090301E+00
         22   -1    0    0    0    0  0.00000000000E+00  0.00000000000E+00  0.10732125394E+04  0.10732125394E+04  0.00000000000E+00 0.  1.
         22   -1    0    0    0    0 -0.00000000000E+00 -0.00000000000E+00 -0.10450548870E+03  0.10450548870E+03  0.00000000000E+00 0. -1.
        -24    2    1    2    0    0  0.72253181009E+02 -0.23437293410E+02  0.29419053936E+02  0.11379818614E+03  0.79465197067E+02 0.  0.
         25    2    1    2    0    0 -0.10348322583E+03  0.91509572937E+02  0.88923098389E+02  0.20648622861E+03  0.12508583137E+03 0.  0.
         24    2    1    2    0    0  0.31230044823E+02 -0.68072279527E+02  0.85036489835E+03  0.85743361334E+03  0.80391479619E+02 0.  0.
        -11    1    5    5    0    0 -0.11644790789E+02 -0.53692951447E+02  0.28395427686E+03  0.28922061741E+03  0.00000000000E+00 0.  1.
         12    1    5    5    0    0  0.42874835612E+02 -0.14379328080E+02  0.56641062149E+03  0.56821299593E+03  0.00000000000E+00 0. -1.
         11    1    3    3    0    0 -0.10747024601E+01 -0.25638043587E+02 -0.13303294214E+02  0.28904011855E+02  0.00000000000E+00 0. -1.
        -12    1    3    3    0    0  0.73327883469E+02  0.22007501773E+01  0.42722348150E+02  0.84894174281E+02  0.00000000000E+00 0.  1.
          5    1    4    4  501    0 -0.11080336303E+03  0.11406462602E+03  0.62979935909E+02  0.17109082060E+03  0.41800000000E+01 0.  1.
         -5    1    4    4    0  501  0.73201372021E+01 -0.22555053081E+02  0.25943162480E+02  0.35395408001E+02  0.41800000000E+01 0.  1.
</event>
<event>
11    1  0.8453735E-009  0.1290150E+03  0.7561462E-02  0.1120485E+00
         22   -1    0    0    0    0  0.00000000000E+00  0.00000000000E+00  0.13154486238E+04  0.13154486238E+04  0.00000000000E+00 0.  1.
         22   -1    0    0    0    0 -0.00000000000E+00 -0.00000000000E+00 -0.31136744233E+04  0.31136744233E+04  0.00000000000E+00 0. -1.
        -24    2    1    2    0    0 -0.49385048369E+01  0.86993427496E+01 -0.24489640775E+04  0.24503619870E+04  0.82150756593E+02 0.  0.
         25    2    1    2    0    0  0.27615618730E+02  0.13304366534E+02 -0.65628839460E+03  0.66880556167E+03  0.12508714506E+03 0.  0.
         24    2    1    2    0    0 -0.22677113893E+02 -0.22003709283E+02  0.13070266726E+04  0.13099554984E+04  0.81647229272E+02 0.  0.
        -11    1    5    5    0    0 -0.39188103534E+02  0.46128010248E+01  0.10864262986E+04  0.10871426253E+04  0.00000000000E+00 0.  1.
         12    1    5    5    0    0  0.16510989641E+02 -0.26616510308E+02  0.22060037402E+03  0.22281287310E+03  0.00000000000E+00 0. -1.
         13    1    3    3    0    0  0.16839507007E+02  0.82903007861E+01 -0.22699509094E+04  0.22700285085E+04  0.00000000000E+00 0. -1.
        -14    1    3    3    0    0 -0.21778011844E+02  0.40904196355E+00 -0.17901316813E+03  0.18033347853E+03  0.00000000000E+00 0.  1.
          5    1    4    4  501    0  0.60644423277E+02  0.27386179707E+02 -0.19460725482E+03  0.20571146040E+03  0.41800000000E+01 0. -1.
         -5    1    4    4    0  501 -0.33028804547E+02 -0.14081813174E+02 -0.46168113979E+03  0.46309410127E+03  0.41800000000E+01 0. -1.
</event>
<event>
11    1  0.8453735E-009  0.1463954E+03  0.7561462E-02  0.1100620E+00
         22   -1    0    0    0    0  0.00000000000E+00  0.00000000000E+00  0.19667646685E+04  0.19667646685E+04  0.00000000000E+00 0. -1.
         22   -1    0    0    0    0 -0.00000000000E+00 -0.00000000000E+00 -0.20596472011E+03  0.20596472011E+03  0.00000000000E+00 0. -1.
        -24    2    1    2    0    0 -0.58784256920E+02  0.40358238129E+02 -0.15209896302E+03  0.18919282547E+03  0.87037086412E+02 0.  0.
         25    2    1    2    0    0  0.12308365382E+03 -0.75290646093E+02  0.23729096866E+03  0.30460726035E+03  0.12514116839E+03 0.  0.
         24    2    1    2    0    0 -0.64299396904E+02  0.34932407964E+02  0.16756079427E+04  0.16789293028E+04  0.76071942003E+02 0.  0.
        -11    1    5    5    0    0 -0.18702363912E+02  0.39663602961E+02  0.38189647785E+03  0.38440590475E+03  0.00000000000E+00 0.  1.
         12    1    5    5    0    0 -0.45597032992E+02 -0.47311949967E+01  0.12937114649E+04  0.12945233980E+04  0.00000000000E+00 0. -1.
         11    1    3    3    0    0 -0.76265496008E+02  0.49128318950E+02 -0.13773449437E+03  0.16492667626E+03  0.00000000000E+00 0. -1.
        -12    1    3    3    0    0  0.17481239089E+02 -0.87700808212E+01 -0.14364468652E+02  0.24266149207E+02  0.00000000000E+00 0.  1.
          5    1    4    4  501    0  0.10407733003E+03 -0.14727175338E+02  0.21101017080E+03  0.23577901710E+03  0.41800000000E+01 0.  1.
         -5    1    4    4    0  501  0.19006323789E+02 -0.60563470756E+02  0.26280797855E+02  0.68828243257E+02  0.41800000000E+01 0.  1.
</event>
<event>
11    1  0.8453735E-009  0.1524094E+03  0.7561462E-02  0.1094442E+00
         22   -1    0    0    0    0  0.00000000000E+00  0.00000000000E+00  0.76599860401E+03  0.76599860401E+03  0.00000000000E+00 0. -1.
         22   -1    0    0    0    0 -0.00000000000E+00 -0.00000000000E+00 -0.13958682502E+03  0.13958682502E+03  0.00000000000E+00 0.  1.
        -24    2    1    2    0    0 -0.19547078953E+01 -0.11668068407E+02 -0.10360614955E+03  0.12568166734E+03  0.70154704600E+02 0.  0.
         25    2    1    2    0    0  0.82686612719E+02 -0.24217258215E+02  0.44711851292E+03  0.47221444377E+03  0.12509182541E+03 0.  0.
         24    2    1    2    0    0 -0.80731904824E+02  0.35885326623E+02  0.28289941562E+03  0.30768931793E+03  0.82675509586E+02 0.  0.
        -11    1    5    5    0    0 -0.28775930546E+02 -0.17062521971E+02  0.16527427954E+03  0.16862612880E+03  0.00000000000E+00 0.  1.
         12    1    5    5    0    0 -0.51955974278E+02  0.52947848593E+02  0.11762513608E+03  0.13906318913E+03  0.00000000000E+00 0. -1.
         13    1    3    3    0    0  0.31775629529E+02 -0.43500070432E+01 -0.28019761862E+02  0.42587794590E+02  0.00000000000E+00 0. -1.
        -14    1    3    3    0    0 -0.33730337424E+02 -0.73180613642E+01 -0.75586387692E+02  0.83093872754E+02  0.00000000000E+00 0.  1.
          5    1    4    4  501    0  0.11418007187E+03 -0.13520235729E+02  0.38234401975E+03  0.39927973580E+03  0.41800000000E+01 0. -1.
         -5    1    4    4    0  501 -0.31493459153E+02 -0.10697022486E+02  0.64774493176E+02  0.72934707963E+02  0.41800000000E+01 0. -1.
</event>
<event>
11    1  0.8453735E-009  0.1321117E+03  0.7561462E-02  0.1116701E+00
         22   -1    0    0    0    0  0.00000000000E+00  0.00000000000E+00  0.35269210307E+03  0.35269210307E+03  0.00000000000E+00 0.  1.
         22   -1    0    0    0    0 -0.00000000000E+00 -0.00000000000E+00 -0.27702177977E+03  0.27702177977E+03  0.00000000000E+00 0. -1.
         24    2    1    2    0    0  0.93819281847E+01  0.39685910162E+02 -0.18046879825E+03  0.20063931624E+03  0.77615436857E+02 0.  0.
         25    2    1    2    0    0 -0.25690914448E+02 -0.47179327401E+02 -0.23037389363E+02  0.13807825614E+03  0.12509584922E+03 0.  0.
        -24    2    1    2    0    0  0.16308986263E+02  0.74934172388E+01  0.27917651091E+03  0.29099631046E+03  0.80107391189E+02 0.  0.
        -13    1    3    3    0    0 -0.95835292039E+01  0.49188285817E+02 -0.59351387926E+02  0.77678302906E+02  0.00000000000E+00 0.  1.
         14    1    3    3    0    0  0.18965457389E+02 -0.95023756556E+01 -0.12111741032E+03  0.12296101333E+03  0.00000000000E+00 0. -1.
         11    1    5    5    0    0 -0.64297857272E+01 -0.24165422747E+02  0.31245049422E+02  0.40019531662E+02  0.00000000000E+00 0. -1.
        -12    1    5    5    0    0  0.22738771990E+02  0.31658839986E+02  0.24793146149E+03  0.25097677880E+03  0.00000000000E+00 0.  1.
          5    1    4    4  501    0  0.44916384268E+02  0.31566611648E+00  0.10834389838E+02  0.46394370607E+02  0.41800000000E+01 0.  1.
         -5    1    4    4    0  501 -0.70607298716E+02 -0.47494993517E+02 -0.33871779200E+02  0.91683885538E+02  0.41800000000E+01 0.  1.
</event>
<event>
11    1  0.8453735E-009  0.1486560E+03  0.7561462E-02  0.1098260E+00
         22   -1    0    0    0    0  0.00000000000E+00  0.00000000000E+00  0.30889289536E+03  0.30889289536E+03  0.00000000000E+00 0.  1.
         22   -1    0    0    0    0 -0.00000000000E+00 -0.00000000000E+00 -0.22484602251E+03  0.22484602251E+03  0.00000000000E+00 0. -1.
        -24    2    1    2    0    0  0.55089129051E+02 -0.56489268232E+02 -0.11747349752E+03  0.16289226820E+03  0.80672292969E+02 0.  0.
         25    2    1    2    0    0 -0.85809482440E+02  0.32622398919E+02  0.48002873002E+01  0.15523267679E+03  0.12508658200E+03 0.  0.
         24    2    1    2    0    0  0.30720353389E+02  0.23866869313E+02  0.19672008307E+03  0.21561397288E+03  0.79228950867E+02 0.  0.
        -13    1    5    5    0    0  0.35053294531E+02  0.49690106335E+02  0.15315405070E+03  0.16478471825E+03  0.00000000000E+00 0.  1.
         14    1    5    5    0    0 -0.43329411421E+01 -0.25823237023E+02  0.43566032372E+02  0.50829254626E+02  0.00000000000E+00 0. -1.
         13    1    3    3    0    0  0.72932070722E+02 -0.60125202239E+02 -0.10111701245E+03  0.13841523432E+03  0.00000000000E+00 0. -1.
        -14    1    3    3    0    0 -0.17842941672E+02  0.36359340074E+01 -0.16356485073E+02  0.24477033880E+02  0.00000000000E+00 0.  1.
          5    1    4    4  501    0  0.13626873013E+02  0.23573470085E+02  0.40613417354E+02  0.49074659745E+02  0.41800000000E+01 0.  1.
         -5    1    4    4    0  501 -0.99436355453E+02  0.90489288347E+01 -0.35813130054E+02  0.10615801705E+03  0.41800000000E+01 0.  1.
</event>
<event>
11    1  0.8453735E-009  0.1854926E+03  0.7561462E-02  0.1065285E+00
         22   -1    0    0    0    0  0.00000000000E+00  0.00000000000E+00  0.20981204399E+03  0.20981204399E+03  0.00000000000E+00 0.  1.
         22   -1    0    0    0    0 -0.00000000000E+00 -0.00000000000E+00 -0.12487802237E+04  0.12487802237E+04  0.00000000000E+00 0. -1.
        -24    2    1    2    0    0  0.19325129041E+02 -0.29888468070E+02 -0.10138416523E+04  0.10176937827E+04  0.80987396530E+02 0.  0.
         25    2    1    2    0    0 -0.15306597659E+03  0.23140843891E+02 -0.14329584050E+03  0.24524758380E+03  0.12509191663E+03 0.  0.
         24    2    1    2    0    0  0.13374084755E+03  0.67476241795E+01  0.11816931307E+03  0.19565090116E+03  0.79894579509E+02 0.  0.
        -13    1    5    5    0    0  0.11585879552E+03  0.94075086214E+01  0.52513815618E+02  0.12755180339E+03  0.00000000000E+00 0.  1.
         14    1    5    5    0    0  0.17882052032E+02 -0.26598844419E+01  0.65655497456E+02  0.68099097764E+02  0.00000000000E+00 0. -1.
         11    1    3    3    0    0  0.29141076170E+02 -0.92088562855E+01 -0.93740490367E+03  0.93790295808E+03  0.00000000000E+00 0. -1.
        -12    1    3    3    0    0 -0.98159471288E+01 -0.20679611785E+02 -0.76436748583E+02  0.79790824632E+02  0.00000000000E+00 0.  1.
          5    1    4    4  501    0 -0.17378799507E+03  0.17261720437E+02 -0.11381776670E+03  0.20849985764E+03  0.41800000000E+01 0. -1.
         -5    1    4    4    0  501  0.20722018472E+02  0.58791234533E+01 -0.29478073806E+02  0.36747726154E+02  0.41800000000E+01 0. -1.
</event>
<event>
11    1  0.8453735E-009  0.1404126E+03  0.7561462E-02  0.1107099E+00
         22   -1    0    0    0    0  0.00000000000E+00  0.00000000000E+00  0.15364048876E+04  0.15364048876E+04  0.00000000000E+00 0.  1.
         22   -1    0    0    0    0 -0.00000000000E+00 -0.00000000000E+00 -0.14291724017E+03  0.14291724017E+03  0.00000000000E+00 0. -1.
        -24    2    1    2    0    0 -0.19768630009E+02 -0.57952138950E+02 -0.82815027346E+02  0.13048353758E+03  0.80114765701E+02 0.  0.
         25    2    1    2    0    0 -0.59948794365E+01  0.87341227677E+02  0.13368744804E+03  0.20293728336E+03  0.12508708399E+03 0.  0.
         24    2    1    2    0    0  0.25763509445E+02 -0.29389088727E+02  0.13426152267E+04  0.13459013068E+04  0.85482183644E+02 0.  0.
        -11    1    5    5    0    0  0.39034417951E+02 -0.44600539668E+02  0.12342250015E+04  0.12356472992E+04  0.00000000000E+00 0.  1.
         12    1    5    5    0    0 -0.13270908506E+02  0.15211450941E+02  0.10839022528E+03  0.11025400758E+03  0.00000000000E+00 0. -1.
         11    1    3    3    0    0 -0.90995198164E+01 -0.75180912723E+02 -0.46412515997E+02  0.88820563722E+02  0.00000000000E+00 0. -1.
        -12    1    3    3    0    0 -0.10669110192E+02  0.17228773773E+02 -0.36402511349E+02  0.41662973856E+02  0.00000000000E+00 0.  1.
          5    1    4    4  501    0 -0.25409243353E+02 -0.14616978140E+02  0.81455047105E+02  0.86669964789E+02  0.41800000000E+01 0.  1.
         -5    1    4    4    0  501  0.19414363917E+02  0.10195820582E+03  0.52232400931E+02  0.11626731857E+03  0.41800000000E+01 0.  1.
</event>
<event>
11    1  0.8453735E-009  0.1356210E+03  0.7561462E-02  0.1112549E+00
         22   -1    0    0    0    0  0.00000000000E+00  0.00000000000E+00  0.23509046614E+03  0.23509046614E+03  0.00000000000E+00 0. -1.
         22   -1    0    0    0    0 -0.00000000000E+00 -0.00000000000E+00 -0.50895666452E+03  0.50895666452E+03  0.00000000000E+00 0.  1.
        -24    2    1    2    0    0  0.31466976153E+02 -0.33178951928E+02 -0.32921728180E+03  0.34259704436E+03  0.83052409541E+02 0.  0.
         25    2    1    2    0    0 -0.66390874265E+02  0.58248684644E+02 -0.12827168026E+03  0.19975371908E+03  0.12508903582E+03 0.  0.
         24    2    1    2    0    0  0.34923898112E+02 -0.25069732716E+02  0.18362276369E+03  0.20169636721E+03  0.71525764890E+02 0.  0.
        -13    1    5    5    0    0 -0.11274778634E+02 -0.25004413123E+02  0.27337122361E+02  0.38725438253E+02  0.00000000000E+00 0.  1.
         14    1    5    5    0    0  0.46198676746E+02 -0.65319592366E-01  0.15628564133E+03  0.16297092896E+03  0.00000000000E+00 0. -1.
         13    1    3    3    0    0 -0.66020241111E+00 -0.40640659526E+02 -0.67377569124E+02  0.78688219544E+02  0.00000000000E+00 0. -1.
        -14    1    3    3    0    0  0.32127178564E+02  0.74617075974E+01 -0.26183971268E+03  0.26390882482E+03  0.00000000000E+00 0.  1.
          5    1    4    4  501    0 -0.96921163555E+02  0.38563383995E+02 -0.55310061643E+02  0.11814195634E+03  0.41800000000E+01 0. -1.
         -5    1    4    4    0  501  0.30530289290E+02  0.19685300649E+02 -0.72961618618E+02  0.81611762738E+02  0.41800000000E+01 0. -1.
</event>
<event>
11    1  0.8453735E-009  0.1607109E+03  0.7561462E-02  0.1086411E+00
         22   -1    0    0    0    0  0.00000000000E+00  0.00000000000E+00  0.95466383445E+03  0.95466383445E+03  0.00000000000E+00 0. -1.
         22   -1    0    0    0    0 -0.00000000000E+00 -0.00000000000E+00 -0.70469987662E+02  0.70469987662E+02  0.00000000000E+00 0. -1.
         24    2    1    2    0    0  0.25525774427E+02 -0.51634997363E+01  0.28823302800E+02  0.89928702449E+02  0.81105868161E+02 0.  0.
         25    2    1    2    0    0  0.14190999753E+02  0.98694919665E+02  0.15429784852E+03  0.22225062964E+03  0.12508175197E+03 0.  0.
        -24    2    1    2    0    0 -0.39716774180E+02 -0.93531419929E+02  0.70107269547E+03  0.71295449002E+03  0.80471310694E+02 0.  0.
        -11    1    3    3    0    0  0.45101000010E+02  0.20630996753E+02  0.29184565275E+02  0.57545434912E+02  0.00000000000E+00 0.  1.
         12    1    3    3    0    0 -0.19575225583E+02 -0.25794496490E+02 -0.36126247548E+00  0.32383267537E+02  0.00000000000E+00 0. -1.
         13    1    5    5    0    0  0.59408623338E+01 -0.36930463156E+02  0.88496546715E+02  0.96077009397E+02  0.00000000000E+00 0. -1.
        -14    1    5    5    0    0 -0.45657636514E+02 -0.56600956772E+02  0.61257614875E+03  0.61687748062E+03  0.00000000000E+00 0.  1.
          5    1    4    4  501    0  0.92454382731E+01 -0.24604990497E+02  0.63914302338E+02  0.69234342125E+02  0.41800000000E+01 0. -1.
         -5    1    4    4    0  501  0.49455614802E+01  0.12329991016E+03  0.90383546179E+02  0.15301628751E+03  0.41800000000E+01 0. -1.
</event>
<event>
11    1  0.8453735E-009  0.1343023E+03  0.7561462E-02  0.1114093E+00
         22   -1    0    0    0    0  0.00000000000E+00  0.00000000000E+00  0.19935132645E+03  0.19935132645E+03  0.00000000000E+00 0. -1.
         22   -1    0    0    0    0 -0.00000000000E+00 -0.00000000000E+00 -0.21387600935E+04  0.21387600935E+04  0.00000000000E+00 0. -1.
         24    2    1    2    0    0  0.11342768278E+01  0.16097075224E+02 -0.17676491592E+04  0.17695613270E+04  0.80643274654E+02 0.  0.
         25    2    1    2    0    0 -0.44108006330E+02 -0.38806062594E+02 -0.34478102912E+03  0.37144691892E+03  0.12508968308E+03 0.  0.
        -24    2    1    2    0    0  0.42973729502E+02  0.22708987371E+02  0.17302142123E+03  0.19710317403E+03  0.80937071079E+02 0.  0.
        -13    1    3    3    0    0 -0.16194715676E+02 -0.28993817691E+02 -0.60773493959E+03  0.60864165736E+03  0.00000000000E+00 0.  1.
         14    1    3    3    0    0  0.17328992503E+02  0.45090892914E+02 -0.11599142196E+04  0.11609196696E+04  0.00000000000E+00 0. -1.
         11    1    5    5    0    0  0.27897550271E+02  0.53381739890E+02  0.11008216608E+03  0.12548293411E+03  0.00000000000E+00 0. -1.
        -12    1    5    5    0    0  0.15076179231E+02 -0.30672752520E+02  0.62939255149E+02  0.71620239919E+02  0.00000000000E+00 0.  1.
          5    1    4    4  501    0  0.43668233222E+02 -0.16420202047E+02 -0.10056806118E+03  0.11094117792E+03  0.41800000000E+01 0.  1.
         -5    1    4    4    0  501 -0.87776239552E+02 -0.22385860547E+02 -0.24421296794E+03  0.26050574100E+03  0.41800000000E+01 0.  1.
</event>
<event>
11    1  0.8453735E-009  0.1656687E+03  0.7561462E-02  0.1081864E+00
         22   -1    0    0    0    0  0.00000000000E+00  0.00000000000E+00  0.18048046614E+04  0.18048046614E+04  0.00000000000E+00 0.  1.
         22   -1    0    0    0    0 -0.00000000000E+00 -0.00000000000E+00 -0.11004688222E+03  0.11004688222E+03  0.00000000000E+00 0. -1.
         24    2    1    2    0    0  0.10061706534E+03  0.20796072459E+02 -0.20503391603E+02  0.13215330396E+03  0.80547105555E+02 0.  0.
         25    2    1    2    0    0 -0.13277807407E+03 -0.31328365842E+02  0.23151728689E+03  0.29641257457E+03  0.12509467123E+03 0.  0.
        -24    2    1    2    0    0  0.32161008723E+02  0.10532293383E+02  0.14837438839E+04  0.14862856651E+04  0.80024406224E+02 0.  0.
        -11    1    3    3    0    0  0.24468563879E+02  0.12997287219E+02  0.29696256288E+02  0.40614132157E+02  0.00000000000E+00 0.  1.
         12    1    3    3    0    0  0.76148501465E+02  0.77987852396E+01 -0.50199647892E+02  0.91539171807E+02  0.00000000000E+00 0. -1.
         13    1    5    5    0    0 -0.12722129242E+02 -0.14943524814E+02  0.12235978400E+03  0.12392367912E+03  0.00000000000E+00 0. -1.
        -14    1    5    5    0    0  0.44883137965E+02  0.25475818197E+02  0.13613840999E+04  0.13623619860E+04  0.00000000000E+00 0.  1.
          5    1    4    4  501    0 -0.39962498617E+02 -0.21373651235E+02 -0.13141453021E+01  0.45530579183E+02  0.41800000000E+01 0.  1.
         -5    1    4    4    0  501 -0.92815575450E+02 -0.99547146069E+01  0.23283143219E+03  0.25088199538E+03  0.41800000000E+01 0.  1.
</event>
<event>
11    1  0.8453735E-009  0.1450380E+03  0.7561462E-02  0.1102060E+00
         22   -1    0    0    0    0  0.00000000000E+00  0.00000000000E+00  0.49314293198E+02  0.49314293198E+02  0.00000000000E+00 0. -1.
         22   -1    0    0    0    0 -0.00000000000E+00 -0.00000000000E+00 -0.21488168793E+04  0.21488168793E+04  0.00000000000E+00 0.  1.
        -24    2    1    2    0    0 -0.29125234829E+01 -0.10235328184E+02 -0.16440281403E+04  0.16460467473E+04  0.80796803140E+02 0.  0.
         25    2    1    2    0    0  0.48166799441E+02 -0.48893879815E+02 -0.40856668491E+03  0.43276126233E+03  0.12507966303E+03 0.  0.
         24    2    1    2    0    0 -0.45254275958E+02  0.59129207999E+02 -0.46907760920E+02  0.11932316292E+03  0.80582047893E+02 0.  0.
        -13    1    5    5    0    0  0.17959301099E+02  0.37203273758E+02 -0.27607437526E+02  0.49686926661E+02  0.00000000000E+00 0.  1.
         14    1    5    5    0    0 -0.63213577057E+02  0.21925934241E+02 -0.19300323394E+02  0.69636236255E+02  0.00000000000E+00 0. -1.
         13    1    3    3    0    0 -0.13191439583E+02  0.28091680441E+02 -0.11530801052E+04  0.11534976747E+04  0.00000000000E+00 0. -1.
        -14    1    3    3    0    0  0.10278916100E+02 -0.38327008625E+02 -0.49094803508E+03  0.49254907253E+03  0.00000000000E+00 0.  1.
          5    1    4    4  501    0  0.35986740644E+02 -0.22034450588E+02 -0.39933025698E+03  0.40157525952E+03  0.41800000000E+01 0. -1.
         -5    1    4    4    0  501  0.12180058797E+02 -0.26859429227E+02 -0.92364279310E+01  0.31186002816E+02  0.41800000000E+01 0. -1.
</event>
<event>
11    1  0.8453735E-009  0.1275337E+03  0.7561462E-02  0.1122337E+00
         22   -1    0    0    0    0  0.00000000000E+00  0.00000000000E+00  0.26771519205E+03  0.26771519205E+03  0.00000000000E+00 0. -1.
         22   -1    0    0    0    0 -0.00000000000E+00 -0.00000000000E+00 -0.34563234421E+03  0.34563234421E+03  0.00000000000E+00 0. -1.
        -24    2    1    2    0    0  0.15446074030E+02 -0.22174270616E+02 -0.26516242992E+03  0.27642742467E+03  0.73285246726E+02 0.  0.
         25    2    1    2    0    0 -0.38277716845E+02  0.22902935081E+02  0.39329279093E+00  0.13280870744E+03  0.12509304557E+03 0.  0.
         24    2    1    2    0    0  0.22831642815E+02 -0.72866446550E+00  0.18685198498E+03  0.20411140416E+03  0.78904918434E+02 0.  0.
        -13    1    5    5    0    0  0.38281182113E+02 -0.27302941399E+02  0.78705825630E+02  0.91681549404E+02  0.00000000000E+00 0.  1.
         14    1    5    5    0    0 -0.15449539298E+02  0.26574276934E+02  0.10814615935E+03  0.11242985476E+03  0.00000000000E+00 0. -1.
         11    1    3    3    0    0  0.17455792583E+02 -0.44769537763E+02 -0.22701488405E+03  0.23204476677E+03  0.00000000000E+00 0. -1.
        -12    1    3    3    0    0 -0.20097185524E+01  0.22595267147E+02 -0.38147545876E+02  0.44382657902E+02  0.00000000000E+00 0.  1.
          5    1    4    4  501    0 -0.63530236047E+02 -0.11536780167E+02  0.38609301553E+02  0.75348117131E+02  0.41800000000E+01 0. -1.
         -5    1    4    4    0  501  0.25252519202E+02  0.34439715248E+02 -0.38216008762E+02  0.57460590304E+02  0.41800000000E+01 0. -1.
</event>
<event>
11    1  0.8453735E-009  0.1633287E+03  0.7561462E-02  0.1083988E+00
         22   -1    0    0    0    0  0.00000000000E+00  0.00000000000E+00  0.43289921451E+03  0.43289921451E+03  0.00000000000E+00 0. -1.
         22   -1    0    0    0    0 -0.00000000000E+00 -0.00000000000E+00 -0.12606467429E+04  0.12606467429E+04  0.00000000000E+00 0.  1.
         24    2    1    2    0    0  0.40172559581E+02 -0.93115868790E+02 -0.10988624032E+04  0.11064445074E+04  0.80227596659E+02 0.  0.
         25    2    1    2    0    0 -0.44966165404E+02  0.18965349241E+03 -0.54688134502E+02  0.23796810301E+03  0.12509045840E+03 0.  0.
        -24    2    1    2    0    0  0.47936058236E+01 -0.96537623616E+02  0.32580300929E+03  0.34913334700E+03  0.80025006677E+02 0.  0.
        -13    1    3    3    0    0  0.63561709742E+02 -0.77950935249E+02 -0.80383913134E+03  0.81010726964E+03  0.00000000000E+00 0.  1.
         14    1    3    3    0    0 -0.23389150161E+02 -0.15164933541E+02 -0.29502327184E+03  0.29633723776E+03  0.00000000000E+00 0. -1.
         11    1    5    5    0    0  0.24031965896E+02 -0.68064419941E+02  0.29251918505E+03  0.30129350187E+03  0.00000000000E+00 0. -1.
        -12    1    5    5    0    0 -0.19238360073E+02 -0.28473203675E+02  0.33283824236E+02  0.47839845125E+02  0.00000000000E+00 0.  1.
          5    1    4    4  501    0 -0.62375997509E+01  0.11504581139E+02  0.32909587804E+02  0.35661974248E+02  0.41800000000E+01 0. -1.
         -5    1    4    4    0  501 -0.38728565653E+02  0.17814891127E+03 -0.87597722306E+02  0.20230612877E+03  0.41800000000E+01 0. -1.
</event>
<event>
11    1  0.8453735E-009  0.2161235E+03  0.7561462E-02  0.1043673E+00
         22   -1    0    0    0    0  0.00000000000E+00  0.00000000000E+00  0.67983031123E+03  0.67983031123E+03  0.00000000000E+00 0.  1.
         22   -1    0    0    0    0 -0.00000000000E+00 -0.00000000000E+00 -0.10911937829E+04  0.10911937829E+04  0.00000000000E+00 0.  1.
        -24    2    1    2    0    0  0.19536677670E+03 -0.38617343048E+02 -0.76213685193E+03  0.79183735616E+03  0.80587473691E+02 0.  0.
         25    2    1    2    0    0 -0.10834239393E+03  0.96548163482E+02 -0.27724479935E+03  0.33700595197E+03  0.12509480685E+03 0.  0.
         24    2    1    2    0    0 -0.87024382767E+02 -0.57930820434E+02  0.62801817959E+03  0.64218078603E+03  0.84024430393E+02 0.  0.
        -13    1    5    5    0    0 -0.92531857410E+02 -0.27607799342E+02  0.54780915458E+03  0.55625462251E+03  0.00000000000E+00 0.  1.
         14    1    5    5    0    0  0.55074746427E+01 -0.30323021092E+02  0.80209025008E+02  0.85926163523E+02  0.00000000000E+00 0. -1.
         11    1    3    3    0    0  0.10232844587E+03 -0.13227402937E+01 -0.25274297422E+03  0.27267539583E+03  0.00000000000E+00 0. -1.
        -12    1    3    3    0    0  0.93038330828E+02 -0.37294602754E+02 -0.50939387771E+03  0.51916196032E+03  0.00000000000E+00 0.  1.
          5    1    4    4  501    0 -0.63448443375E+02  0.10974881424E+03 -0.12661132108E+03  0.17921608806E+03  0.41800000000E+01 0. -1.
         -5    1    4    4    0  501 -0.44893950556E+02 -0.13200650754E+02 -0.15063347827E+03  0.15778986391E+03  0.41800000000E+01 0. -1.
</event>
<event>
11    1  0.8453735E-009  0.2176720E+04  0.7561462E-02  0.7998171E-01
         22   -1    0    0    0    0  0.00000000000E+00  0.00000000000E+00  0.78847817718E+03  0.78847817718E+03  0.00000000000E+00 0. -1.
         22   -1    0    0    0    0 -0.00000000000E+00 -0.00000000000E+00 -0.15022963340E+04  0.15022963340E+04  0.00000000000E+00 0. -1.
         24    2    1    2    0    0  0.16954863915E+03  0.51059050823E+02 -0.11441876709E+02  0.19472699309E+03  0.80211704813E+02 0.  0.
         25    2    1    2    0    0 -0.87725536619E+03 -0.40032685988E+02 -0.98885434891E+03  0.13284051354E+04  0.12509071436E+03 0.  0.
        -24    2    1    2    0    0  0.70770672704E+03 -0.11026364834E+02  0.28647806881E+03  0.76764238271E+03  0.78960443308E+02 0.  0.
        -13    1    3    3    0    0  0.94715502917E+02  0.34674022413E+02  0.33048126296E+02  0.10613902663E+03  0.00000000000E+00 0.  1.
         14    1    3    3    0    0  0.74833136232E+02  0.16385028410E+02 -0.44490003005E+02  0.88587966461E+02  0.00000000000E+00 0. -1.
         13    1    5    5    0    0  0.28001023461E+03  0.26127940841E+02  0.13906234376E+03  0.31373035593E+03  0.00000000000E+00 0. -1.
        -14    1    5    5    0    0  0.42769649243E+03 -0.37154305675E+02  0.14741572505E+03  0.45391202679E+03  0.00000000000E+00 0.  1.
          5    1    4    4  501    0 -0.33670902386E+03  0.27364265540E+02 -0.44422075211E+03  0.55809615550E+03  0.41800000000E+01 0. -1.
         -5    1    4    4    0  501 -0.54054634233E+03 -0.67396951528E+02 -0.54463359681E+03  0.77030897986E+03  0.41800000000E+01 0. -1.
</event>
<event>
11    1  0.8453735E-009  0.1336415E+03  0.7561462E-02  0.1114874E+00
         22   -1    0    0    0    0  0.00000000000E+00  0.00000000000E+00  0.88051892976E+03  0.88051892976E+03  0.00000000000E+00 0.  1.
         22   -1    0    0    0    0 -0.00000000000E+00 -0.00000000000E+00 -0.25656623081E+04  0.25656623081E+04  0.00000000000E+00 0.  1.
        -24    2    1    2    0    0  0.25588309429E+02 -0.17116299145E+02 -0.23563834760E+04  0.23579867758E+04  0.81306946933E+02 0.  0.
         25    2    1    2    0    0 -0.64224694176E+02 -0.94937545476E+01 -0.18208178445E+03  0.23025196657E+03  0.12508896498E+03 0.  0.
         24    2    1    2    0    0  0.38636384747E+02  0.26610053693E+02  0.85332188204E+03  0.85794249557E+03  0.75539566826E+02 0.  0.
        -13    1    5    5    0    0 -0.16093111650E+02 -0.52203040168E+01  0.38360355714E+03  0.38397646916E+03  0.00000000000E+00 0.  1.
         14    1    5    5    0    0  0.54729496398E+02  0.31830357709E+02  0.46971832490E+03  0.47396602641E+03  0.00000000000E+00 0. -1.
         13    1    3    3    0    0  0.55279404417E+02 -0.80472672718E+01 -0.14834473115E+04  0.14844987360E+04  0.00000000000E+00 0. -1.
        -14    1    3    3    0    0 -0.29691094988E+02 -0.90690318731E+01 -0.87293616441E+03  0.87348803976E+03  0.00000000000E+00 0.  1.
          5    1    4    4  501    0 -0.50031692839E+02 -0.57200936227E+01 -0.20024554483E+03  0.20652273576E+03  0.41800000000E+01 0. -1.
         -5    1    4    4    0  501 -0.14193001337E+02 -0.37736609249E+01  0.18163760378E+02  0.23729230809E+02  0.41800000000E+01 0. -1.
</event>
<event>
11    1  0.8453735E-009  0.1771461E+03  0.7561462E-02  0.1071975E+00
         22   -1    0    0    0    0  0.00000000000E+00  0.00000000000E+00  0.97715322569E+02  0.97715322569E+02  0.00000000000E+00 0.  1.
         22   -1    0    0    0    0 -0.00000000000E+00 -0.00000000000E+00 -0.78260238630E+03  0.78260238630E+03  0.00000000000E+00 0. -1.
        -24    2    1    2    0    0 -0.38088343019E+02  0.15970719267E+02 -0.41315919123E+03  0.42314644232E+03  0.81526735483E+02 0.  0.
         25    2    1    2    0    0  0.14599133990E+03  0.32723773914E+02 -0.24139321228E+03  0.31032364327E+03  0.12508302814E+03 0.  0.
         24    2    1    2    0    0 -0.10790299688E+03 -0.48694493181E+02 -0.30334660215E+02  0.14684762329E+03  0.81423721679E+02 0.  0.
        -11    1    5    5    0    0 -0.41517971306E+02 -0.10246212068E+02  0.27440117869E+02  0.50810302812E+02  0.00000000000E+00 0.  1.
         12    1    5    5    0    0 -0.66385025575E+02 -0.38448281113E+02 -0.57774778084E+02  0.96037320474E+02  0.00000000000E+00 0. -1.
         11    1    3    3    0    0 -0.39662654208E+01 -0.20681757977E+02 -0.28147935693E+03  0.28226599999E+03  0.00000000000E+00 0. -1.
        -12    1    3    3    0    0 -0.34122077599E+02  0.36652477244E+02 -0.13167983430E+03  0.14088044233E+03  0.00000000000E+00 0.  1.
          5    1    4    4  501    0  0.26780942490E+02 -0.22982230793E+02 -0.13920031565E+03  0.14366489512E+03  0.41800000000E+01 0. -1.
         -5    1    4    4    0  501  0.11921039741E+03  0.55706004707E+02 -0.10219289663E+03  0.16665874815E+03  0.41800000000E+01 0. -1.
</event>
<event>
11    1  0.8453735E-009  0.1544152E+03  0.7561462E-02  0.1092451E+00
         22   -1    0    0    0    0  0.00000000000E+00  0.00000000000E+00  0.19184496858E+03  0.19184496858E+03  0.00000000000E+00 0. -1.
         22   -1    0    0    0    0 -0.00000000000E+00 -0.00000000000E+00 -0.80273060001E+03  0.80273060001E+03  0.00000000000E+00 0. -1.
        -24    2    1    2    0    0  0.33576150098E+02 -0.29938485476E+02 -0.65914750611E+03  0.66549664679E+03  0.79916714869E+02 0.  0.
         25    2    1    2    0    0 -0.39390375155E+02  0.11371263890E+03 -0.45914604595E+02  0.17954975217E+03  0.12509115351E+03 0.  0.
         24    2    1    2    0    0  0.58142250571E+01 -0.83774153426E+02  0.94176479271E+02  0.14952916962E+03  0.80236209565E+02 0.  0.
        -13    1    5    5    0    0 -0.18323823969E+02 -0.86786481661E+02  0.58158344747E+02  0.10606624811E+03  0.00000000000E+00 0.  1.
         14    1    5    5    0    0  0.24138049026E+02  0.30123282348E+01  0.36018134524E+02  0.43462921517E+02  0.00000000000E+00 0. -1.
         13    1    3    3    0    0  0.51276109884E+02 -0.45135332443E+02 -0.47995735683E+03  0.48479428839E+03  0.00000000000E+00 0. -1.
        -14    1    3    3    0    0 -0.17699959786E+02  0.15196846967E+02 -0.17919014928E+03  0.18070235840E+03  0.00000000000E+00 0.  1.
          5    1    4    4  501    0 -0.55962735239E+02  0.56008817043E+02 -0.78108625094E+02  0.11129800104E+03  0.41800000000E+01 0. -1.
         -5    1    4    4    0  501  0.16572360084E+02  0.57703821859E+02  0.32194020498E+02  0.68251751126E+02  0.41800000000E+01 0. -1.
</event>
<event>
11    1  0.8453735E-009  0.2211589E+03  0.7561462E-02  0.1040494E+00
         22   -1    0    0    0    0  0.00000000000E+00  0.00000000000E+00  0.11703932933E+04  0.11703932933E+04  0.00000000000E+00 0. -1.
         22   -1    0    0    0    0 -0.00000000000E+00 -0.00000000000E+00 -0.25479313632E+03  0.25479313632E+03  0.00000000000E+00 0.  1.
         24    2    1    2    0    0 -0.82329630633E+02  0.10597315572E+02 -0.19118755590E+03  0.22398713376E+03  0.82018798942E+02 0.  0.
         25    2    1    2    0    0  0.13196200166E+03 -0.17551375641E+03  0.42666827009E+03  0.49589581875E+03  0.12509117390E+03 0.  0.
        -24    2    1    2    0    0 -0.49632371023E+02  0.16491644083E+03  0.68011944283E+03  0.70530347714E+03  0.72316897361E+02 0.  0.
        -13    1    3    3    0    0 -0.88582835044E+02  0.10393892925E+02 -0.19649043562E+03  0.21578564124E+03  0.00000000000E+00 0.  1.
         14    1    3    3    0    0  0.62532044118E+01  0.20342264642E+00  0.53028797198E+01  0.82014925173E+01  0.00000000000E+00 0. -1.
         11    1    5    5    0    0 -0.67228799073E+02  0.13762189341E+03  0.52860554845E+03  0.55034836497E+03  0.00000000000E+00 0. -1.
        -12    1    5    5    0    0  0.17596428050E+02  0.27294547429E+02  0.15151389438E+03  0.15495511217E+03  0.00000000000E+00 0.  1.
          5    1    4    4  501    0  0.62399531208E+02 -0.16176110201E+03  0.35442143994E+03  0.39457874387E+03  0.41800000000E+01 0. -1.
         -5    1    4    4    0  501  0.69562470447E+02 -0.13752654395E+02  0.72246830145E+02  0.10131707489E+03  0.41800000000E+01 0. -1.
</event>
<event>
11    1  0.8453735E-009  0.4211222E+03  0.7561462E-02  0.9589413E-01
         22   -1    0    0    0    0  0.00000000000E+00  0.00000000000E+00  0.13477423262E+04  0.13477423262E+04  0.00000000000E+00 0. -1.
         22   -1    0    0    0    0 -0.00000000000E+00 -0.00000000000E+00 -0.57106747663E+03  0.57106747663E+03  0.00000000000E+00 0. -1.
         24    2    1    2    0    0  0.39609620976E+02 -0.40959001995E+02 -0.77243897670E+02  0.12679513989E+03  0.82848209715E+02 0.  0.
         25    2    1    2    0    0 -0.17042074578E+03 -0.34127656586E+03 -0.34195838681E+03  0.52734762629E+03  0.12508819145E+03 0.  0.
        -24    2    1    2    0    0  0.13081112481E+03  0.38223556786E+03  0.11958771341E+04  0.12646670367E+04  0.77749688879E+02 0.  0.
        -13    1    3    3    0    0  0.73597834877E+01  0.19126774384E+02 -0.48760323601E+02  0.52892051094E+02  0.00000000000E+00 0.  1.
         14    1    3    3    0    0  0.32249837488E+02 -0.60085776379E+02 -0.28483574069E+02  0.73903088791E+02  0.00000000000E+00 0. -1.
         13    1    5    5    0    0  0.20887529500E+02  0.14914301251E+03  0.36859813784E+03  0.39817648636E+03  0.00000000000E+00 0. -1.
        -14    1    5    5    0    0  0.10992359531E+03  0.23309255535E+03  0.82727899623E+03  0.86649055031E+03  0.00000000000E+00 0.  1.
          5    1    4    4  501    0 -0.59020582087E+02 -0.21586368672E+03 -0.25166665151E+03  0.33679984595E+03  0.41800000000E+01 0.  1.
         -5    1    4    4    0  501 -0.11140016370E+03 -0.12541287914E+03 -0.90291735309E+02  0.19054778034E+03  0.41800000000E+01 0.  1.
</event>
<event>
11    1  0.8453735E-009  0.1416972E+03  0.7561462E-02  0.1105678E+00
         22   -1    0    0    0    0  0.00000000000E+00  0.00000000000E+00  0.16055792996E+04  0.16055792996E+04  0.00000000000E+00 0.  1.
         22   -1    0    0    0    0 -0.00000000000E+00 -0.00000000000E+00 -0.28247972530E+03  0.28247972530E+03  0.00000000000E+00 0. -1.
         24    2    1    2    0    0  0.20722148663E+02 -0.64877143908E+00 -0.26241563970E+03  0.27561352325E+03  0.81676299458E+02 0.  0.
         25    2    1    2    0    0 -0.60750682431E+02 -0.49592646399E+02  0.48350824766E+03  0.50554749272E+03  0.12509182965E+03 0.  0.
        -24    2    1    2    0    0  0.40028533769E+02  0.50241417838E+02  0.11020069663E+04  0.11068980089E+04  0.81715143727E+02 0.  0.
        -11    1    3    3    0    0  0.98743084109E+01 -0.41043589863E+02 -0.12172944426E+03  0.12884151441E+03  0.00000000000E+00 0.  1.
         12    1    3    3    0    0  0.10847840252E+02  0.40394818424E+02 -0.14068619544E+03  0.14677200885E+03  0.00000000000E+00 0. -1.
         13    1    5    5    0    0 -0.20062027575E+02 -0.28901344937E+01  0.35953602646E+03  0.36010691766E+03  0.00000000000E+00 0. -1.
        -14    1    5    5    0    0  0.60090561344E+02  0.53131552331E+02  0.74247093986E+03  0.74679109123E+03  0.00000000000E+00 0.  1.
          5    1    4    4  501    0 -0.11240497095E+02  0.41833626688E+02  0.14965540018E+03  0.15585445871E+03  0.41800000000E+01 0. -1.
         -5    1    4    4    0  501 -0.49510185336E+02 -0.91426273087E+02  0.33385284748E+03  0.34969303401E+03  0.41800000000E+01 0. -1.
</event>
<event>
11    1  0.8453735E-009  0.1453592E+03  0.7561462E-02  0.1101717E+00
         22   -1    0    0    0    0  0.00000000000E+00  0.00000000000E+00  0.14635963859E+03  0.14635963859E+03  0.00000000000E+00 0. -1.
         22   -1    0    0    0    0 -0.00000000000E+00 -0.00000000000E+00 -0.30855002084E+04  0.30855002084E+04  0.00000000000E+00 0. -1.
         24    2    1    2    0    0 -0.34919420302E+02 -0.62478039273E+02 -0.23747264920E+04  0.23772189362E+04  0.81982240826E+02 0.  0.
         25    2    1    2    0    0  0.88934467544E+02  0.54495965944E+02 -0.68284554501E+03  0.70200041719E+03  0.12508955823E+03 0.  0.
        -24    2    1    2    0    0 -0.54015047242E+02  0.79820733293E+01  0.11843146719E+03  0.15264049354E+03  0.79320672109E+02 0.  0.
        -13    1    3    3    0    0  0.21090728130E+02 -0.23508205639E+00 -0.26784282979E+03  0.26867202226E+03  0.00000000000E+00 0.  1.
         14    1    3    3    0    0 -0.56010148432E+02 -0.62242957217E+02 -0.21068836622E+04  0.21085469140E+04  0.00000000000E+00 0. -1.
         13    1    5    5    0    0  0.52194012828E+01  0.24593014299E+02  0.69896827392E+02  0.74280717427E+02  0.00000000000E+00 0. -1.
        -14    1    5    5    0    0 -0.59234448525E+02 -0.16610940969E+02  0.48534639797E+02  0.78359776111E+02  0.00000000000E+00 0.  1.
          5    1    4    4  501    0  0.77540191337E+02  0.89737384351E+02 -0.59251641115E+03  0.60428341803E+03  0.41800000000E+01 0.  1.
         -5    1    4    4    0  501  0.11394276207E+02 -0.35241418408E+02 -0.90329133857E+02  0.97716999161E+02  0.41800000000E+01 0.  1.
</event>
<event>
11    1  0.8453735E-009  0.1448948E+03  0.7561462E-02  0.1102212E+00
         22   -1    0    0    0    0  0.00000000000E+00  0.00000000000E+00  0.11697634971E+04  0.11697634971E+04  0.00000000000E+00 0. -1.
         22   -1    0    0    0    0 -0.00000000000E+00 -0.00000000000E+00 -0.18515575470E+03  0.18515575470E+03  0.00000000000E+00 0.  1.
         24    2    1    2    0    0 -0.51645391079E+02 -0.48973133612E+02 -0.95770227987E+02  0.14409282333E+03  0.80778653932E+02 0.  0.
         25    2    1    2    0    0  0.30889593264E+02  0.81484556908E+02  0.28473471605E+02  0.15508738287E+03  0.12508979876E+03 0.  0.
        -24    2    1    2    0    0  0.20755797815E+02 -0.32511423296E+02  0.10519044988E+04  0.10557390456E+04  0.81203830208E+02 0.  0.
        -11    1    3    3    0    0  0.17945605464E+02 -0.27580951140E+02 -0.43140441541E+02  0.54257269721E+02  0.00000000000E+00 0.  1.
         12    1    3    3    0    0 -0.69590996543E+02 -0.21392182473E+02 -0.52629786446E+02  0.89835553609E+02  0.00000000000E+00 0. -1.
         13    1    5    5    0    0 -0.21605271877E+02 -0.17709772642E+02  0.74979500755E+03  0.75031525185E+03  0.00000000000E+00 0. -1.
        -14    1    5    5    0    0  0.42361069692E+02 -0.14801650654E+02  0.30210949123E+03  0.30542379374E+03  0.00000000000E+00 0.  1.
          5    1    4    4  501    0  0.75422143677E+01  0.38811461256E+02  0.76744370341E+02  0.86431390718E+02  0.41800000000E+01 0. -1.
         -5    1    4    4    0  501  0.23347378897E+02  0.42673095652E+02 -0.48270898736E+02  0.68655992154E+02  0.41800000000E+01 0. -1.
</event>
<event>
11    1  0.8453735E-009  0.1525357E+03  0.7561462E-02  0.1094316E+00
         22   -1    0    0    0    0  0.00000000000E+00  0.00000000000E+00  0.72946005694E+03  0.72946005694E+03  0.00000000000E+00 0.  1.
         22   -1    0    0    0    0 -0.00000000000E+00 -0.00000000000E+00 -0.12104020538E+04  0.12104020538E+04  0.00000000000E+00 0.  1.
         24    2    1    2    0    0  0.18966788112E+02 -0.85779914604E+02 -0.11828782714E+04  0.11888579908E+04  0.80401395128E+02 0.  0.
         25    2    1    2    0    0  0.13175152925E+02  0.53016873824E+02  0.20877635156E+03  0.24941716024E+03  0.12504791597E+03 0.  0.
        -24    2    1    2    0    0 -0.32141941037E+02  0.32763040780E+02  0.49315992308E+03  0.50158695969E+03  0.79222769372E+02 0.  0.
        -13    1    3    3    0    0  0.43021378659E+02 -0.76480598385E+02 -0.10379775225E+04  0.10416801131E+04  0.00000000000E+00 0.  1.
         14    1    3    3    0    0 -0.24054590547E+02 -0.92993162191E+01 -0.14490074898E+03  0.14717787762E+03  0.00000000000E+00 0. -1.
         13    1    5    5    0    0 -0.28504632364E+02  0.34910932493E+02  0.11666021705E+03  0.12506355790E+03  0.00000000000E+00 0. -1.
        -14    1    5    5    0    0 -0.36373086736E+01 -0.21478917132E+01  0.37649970603E+03  0.37652340179E+03  0.00000000000E+00 0.  1.
          5    1    4    4  501    0  0.57055960334E+01 -0.16925527899E+01 -0.16183294940E+02  0.17742322175E+02  0.41800000000E+01 0.  1.
         -5    1    4    4    0  501  0.74695568918E+01  0.54709426614E+02  0.22495964649E+03  0.23167483806E+03  0.41800000000E+01 0.  1.
</event>
<event>
11    1  0.8453735E-009  0.1296257E+03  0.7561462E-02  0.1119730E+00
         22   -1    0    0    0    0  0.00000000000E+00  0.00000000000E+00  0.21087084657E+03  0.21087084657E+03  0.00000000000E+00 0.  1.
         22   -1    0    0    0    0 -0.00000000000E+00 -0.00000000000E+00 -0.30066093746E+04  0.30066093746E+04  0.00000000000E+00 0. -1.
         24    2    1    2    0    0  0.34030850291E+02  0.29045980416E+01 -0.29381290552E+04  0.29394712814E+04  0.81991055415E+02 0.  0.
         25    2    1    2    0    0 -0.14797469825E+02 -0.18984071007E+02  0.19180970956E+02  0.12881937731E+03  0.12508861762E+03 0.  0.
        -24    2    1    2    0    0 -0.19233380465E+02  0.16079472966E+02  0.12320955625E+03  0.14918956252E+03  0.80302294105E+02 0.  0.
        -13    1    3    3    0    0  0.43757397043E+02  0.74939050397E+01 -0.74825662686E+03  0.74957244350E+03  0.00000000000E+00 0.  1.
         14    1    3    3    0    0 -0.97265467519E+01 -0.45893069980E+01 -0.21898724284E+04  0.21898988379E+04  0.00000000000E+00 0. -1.
         11    1    5    5    0    0 -0.87227515791E+01 -0.18716323049E+02 -0.84296986451E-01  0.20649315959E+02  0.00000000000E+00 0. -1.
        -12    1    5    5    0    0 -0.10510628886E+02  0.34795796015E+02  0.12329385324E+03  0.12854024656E+03  0.00000000000E+00 0.  1.
          5    1    4    4  501    0  0.44578688998E+02  0.23745494978E+01 -0.25319547871E+02  0.51492231477E+02  0.41800000000E+01 0. -1.
         -5    1    4    4    0  501 -0.59376158823E+02 -0.21358620505E+02  0.44500518827E+02  0.77327145831E+02  0.41800000000E+01 0. -1.
</event>
<event>
11    1  0.8453735E-009  0.1342199E+03  0.7561462E-02  0.1114190E+00
         22   -1    0    0    0    0  0.00000000000E+00  0.00000000000E+00  0.20611905538E+03  0.20611905538E+03  0.00000000000E+00 0. -1.
         22   -1    0    0    0    0 -0.00000000000E+00 -0.00000000000E+00 -0.63925836645E+03  0.63925836645E+03  0.00000000000E+00 0.  1.
         24    2    1    2    0    0 -0.19332054340E+02 -0.27730699608E+02 -0.48543348044E+03  0.49299585643E+03  0.79098233204E+02 0.  0.
         25    2    1    2    0    0 -0.27268679088E+01 -0.18993607892E+02 -0.10726873716E+03  0.16589114871E+03  0.12508036736E+03 0.  0.
        -24    2    1    2    0    0  0.22058922249E+02  0.46724307500E+02  0.15956290653E+03  0.18649041670E+03  0.81538931906E+02 0.  0.
        -11    1    3    3    0    0 -0.44710194566E+01 -0.53315242920E+02 -0.36916152823E+03  0.37301841652E+03  0.00000000000E+00 0.  1.
         12    1    3    3    0    0 -0.14861034884E+02  0.25584543313E+02 -0.11627195222E+03  0.11997743991E+03  0.00000000000E+00 0. -1.
         13    1    5    5    0    0  0.44010730597E+02  0.21158620881E+02  0.13824541063E+03  0.14661659253E+03  0.00000000000E+00 0. -1.
        -14    1    5    5    0    0 -0.21951808348E+02  0.25565686618E+02  0.21317495903E+02  0.39873824166E+02  0.00000000000E+00 0.  1.
          5    1    4    4  501    0  0.15957774947E+02 -0.61504615568E+02 -0.10021772348E+03  0.11873724276E+03  0.41800000000E+01 0. -1.
         -5    1    4    4    0  501 -0.18684642856E+02  0.42511007676E+02 -0.70510136709E+01  0.47153905947E+02  0.41800000000E+01 0. -1.
</event>
<event>
11    1  0.8453735E-009  0.1544481E+03  0.7561462E-02  0.1092418E+00
         22   -1    0    0    0    0  0.00000000000E+00  0.00000000000E+00  0.28798870073E+03  0.28798870073E+03  0.00000000000E+00 0. -1.
         22   -1    0    0    0    0 -0.00000000000E+00 -0.00000000000E+00 -0.13286621837E+04  0.13286621837E+04  0.00000000000E+00 0.  1.
        -24    2    1    2    0    0  0.93058550677E+02  0.19839811532E+02 -0.79852980524E+03  0.80817028968E+03  0.80223782528E+02 0.  0.
         25    2    1    2    0    0 -0.82342952641E+02  0.47553644301E+01 -0.50792756655E+03  0.52956695400E+03  0.12509104914E+03 0.  0.
         24    2    1    2    0    0 -0.10715598036E+02 -0.24595175962E+02  0.26578388878E+03  0.27891364079E+03  0.80199730447E+02 0.  0.
        -13    1    5    5    0    0  0.17610347807E+02  0.21524539366E+02  0.60013093553E+02  0.66143794438E+02  0.00000000000E+00 0.  1.
         14    1    5    5    0    0 -0.28325945843E+02 -0.46119715328E+02  0.20577079523E+03  0.21276984636E+03  0.00000000000E+00 0. -1.
         13    1    3    3    0    0  0.48244003366E+02  0.50679708590E+02 -0.46396897507E+03  0.46921543725E+03  0.00000000000E+00 0. -1.
        -14    1    3    3    0    0  0.44814547311E+02 -0.30839897058E+02 -0.33456083017E+03  0.33895485243E+03  0.00000000000E+00 0.  1.
          5    1    4    4  501    0 -0.10994302809E+02  0.54165341015E+02 -0.28430354507E+03  0.28965623936E+03  0.41800000000E+01 0. -1.
         -5    1    4    4    0  501 -0.71348649832E+02 -0.49409976585E+02 -0.22362402147E+03  0.23991071464E+03  0.41800000000E+01 0. -1.
</event>
<event>
11    1  0.8453735E-009  0.1349194E+03  0.7561462E-02  0.1113368E+00
         22   -1    0    0    0    0  0.00000000000E+00  0.00000000000E+00  0.27089382211E+03  0.27089382211E+03  0.00000000000E+00 0. -1.
         22   -1    0    0    0    0 -0.00000000000E+00 -0.00000000000E+00 -0.79122879210E+03  0.79122879210E+03  0.00000000000E+00 0.  1.
         24    2    1    2    0    0  0.19837284614E+02  0.39705981150E+02 -0.61103163944E+03  0.61805790601E+03  0.81644522065E+02 0.  0.
         25    2    1    2    0    0 -0.16242702404E+02 -0.88033579777E+02 -0.13166508562E+03  0.20247800116E+03  0.12509160497E+03 0.  0.
        -24    2    1    2    0    0 -0.35945822103E+01  0.48327598627E+02  0.22236175506E+03  0.24158670705E+03  0.81061144186E+02 0.  0.
        -11    1    3    3    0    0  0.14392096205E+02  0.48419029974E+02 -0.60274547985E+03  0.60485837051E+03  0.00000000000E+00 0.  1.
         12    1    3    3    0    0  0.54451884086E+01 -0.87130488243E+01 -0.82861595896E+01  0.13199535498E+02  0.00000000000E+00 0. -1.
         13    1    5    5    0    0 -0.42077839053E+02  0.30822234388E+02  0.12415884502E+03  0.13466986845E+03  0.00000000000E+00 0. -1.
        -14    1    5    5    0    0  0.38483256842E+02  0.17505364239E+02  0.98202910043E+02  0.10691683860E+03  0.00000000000E+00 0.  1.
          5    1    4    4  501    0  0.31550384201E+02 -0.99486656627E+02 -0.87097135912E+02  0.13600148924E+03  0.41800000000E+01 0. -1.
         -5    1    4    4    0  501 -0.47793086605E+02  0.11453076850E+02 -0.44567949704E+02  0.66476511922E+02  0.41800000000E+01 0. -1.
</event>
<event>
11    1  0.8453735E-009  0.1438240E+03  0.7561462E-02  0.1103362E+00
         22   -1    0    0    0    0  0.00000000000E+00  0.00000000000E+00  0.87796808303E+03  0.87796808303E+03  0.00000000000E+00 0.  1.
         22   -1    0    0    0    0 -0.00000000000E+00 -0.00000000000E+00 -0.41016146730E+03  0.41016146730E+03  0.00000000000E+00 0. -1.
         24    2    1    2    0    0 -0.45474315650E+02 -0.42556874518E+02 -0.33412514851E+03  0.34925009461E+03  0.80355539722E+02 0.  0.
         25    2    1    2    0    0  0.16658677227E+02  0.10617453488E+03  0.40143966651E+02  0.16973064338E+03  0.12508561012E+03 0.  0.
        -24    2    1    2    0    0  0.28815638423E+02 -0.63617660364E+02  0.76178779759E+03  0.76914881233E+03  0.79948103322E+02 0.  0.
        -11    1    3    3    0    0  0.93434364750E+01 -0.45656393508E+02 -0.16314707893E+03  0.16967255357E+03  0.00000000000E+00 0.  1.
         12    1    3    3    0    0 -0.54817752125E+02  0.30995189895E+01 -0.17097806959E+03  0.17957754104E+03  0.00000000000E+00 0. -1.
         13    1    5    5    0    0  0.39330682163E+02 -0.60342578370E+02  0.35610389263E+03  0.36331544376E+03  0.00000000000E+00 0. -1.
        -14    1    5    5    0    0 -0.10515043740E+02 -0.32750819942E+01  0.40568390496E+03  0.40583336858E+03  0.00000000000E+00 0.  1.
          5    1    4    4  501    0 -0.38515997428E+02 -0.20245543895E+00  0.30737394731E+02  0.49454857001E+02  0.41800000000E+01 0.  1.
         -5    1    4    4    0  501  0.55174674655E+02  0.10637699032E+03  0.94065719200E+01  0.12027578638E+03  0.41800000000E+01 0.  1.
</event>
<event>
11    1  0.8453735E-009  0.1339147E+03  0.7561462E-02  0.1114551E+00
         22   -1    0    0    0    0  0.00000000000E+00  0.00000000000E+00  0.15335453130E+04  0.15335453130E+04  0.00000000000E+00 0. -1.
         22   -1    0    0    0    0 -0.00000000000E+00 -0.00000000000E+00 -0.13526497318E+03  0.13526497318E+03  0.00000000000E+00 0.  1.
         24    2    1    2    0    0  0.15083981906E+02 -0.45885436402E+02 -0.80645878027E+02  0.12383947279E+03  0.80619213562E+02 0.  0.
         25    2    1    2    0    0 -0.85909312788E+01  0.90777642792E+02  0.16106363569E+03  0.22339039675E+03  0.12508952829E+03 0.  0.
        -24    2    1    2    0    0 -0.64930506270E+01 -0.44892206389E+02  0.13178625821E+04  0.13215804166E+04  0.88065556787E+02 0.  0.
        -11    1    3    3    0    0  0.15867616812E+02 -0.66626211198E+02 -0.76489738019E+02  0.10267187202E+03  0.00000000000E+00 0.  1.
         12    1    3    3    0    0 -0.78363490621E+00  0.20740774796E+02 -0.41561400084E+01  0.21167600775E+02  0.00000000000E+00 0. -1.
         13    1    5    5    0    0 -0.32214548265E+02 -0.46344635204E+02  0.47767131590E+03  0.48099427062E+03  0.00000000000E+00 0. -1.
        -14    1    5    5    0    0  0.25721497638E+02  0.14524288144E+01  0.84019126622E+03  0.84058614599E+03  0.00000000000E+00 0.  1.
          5    1    4    4  501    0  0.23278273550E+02 -0.15754760916E+02  0.98410071814E+00  0.28434685952E+02  0.41800000000E+01 0. -1.
         -5    1    4    4    0  501 -0.31869204829E+02  0.10653240371E+03  0.16007953497E+03  0.19495571080E+03  0.41800000000E+01 0. -1.
</event>
<event>
11    1  0.8453735E-009  0.1327573E+03  0.7561462E-02  0.1115927E+00
         22   -1    0    0    0    0  0.00000000000E+00  0.00000000000E+00  0.58452459997E+03  0.58452459997E+03  0.00000000000E+00 0.  1.
         22   -1    0    0    0    0 -0.00000000000E+00 -0.00000000000E+00 -0.99560915291E+03  0.99560915291E+03  0.00000000000E+00 0. -1.
         24    2    1    2    0    0 -0.68539813502E+01  0.40455885803E+02 -0.87841107163E+03  0.88312812708E+03  0.81397925794E+02 0.  0.
         25    2    1    2    0    0 -0.14757047597E+02  0.30343038336E-01 -0.75066577358E+02  0.14660682372E+03  0.12506317744E+03 0.  0.
        -24    2    1    2    0    0  0.21611028947E+02 -0.40486228841E+02  0.54239309605E+03  0.55039880207E+03  0.81500916423E+02 0.  0.
        -11    1    3    3    0    0  0.24473172005E+01  0.23546605341E+01  0.42029051324E+00  0.34220508217E+01  0.00000000000E+00 0.  1.
         12    1    3    3    0    0 -0.93012985507E+01  0.38101225269E+02 -0.87883136215E+03  0.87970607626E+03  0.00000000000E+00 0. -1.
         11    1    5    5    0    0 -0.67108578167E+01  0.10485543126E+02  0.13746164884E+02  0.18545599918E+02  0.00000000000E+00 0. -1.
        -12    1    5    5    0    0  0.28321886764E+02 -0.50971771967E+02  0.52864693116E+03  0.53185320215E+03  0.00000000000E+00 0.  1.
          5    1    4    4  501    0  0.41115995845E+02  0.39541268188E+02 -0.30311071649E+02  0.64732298498E+02  0.41800000000E+01 0.  1.
         -5    1    4    4    0  501 -0.55873043442E+02 -0.39510925149E+02 -0.44755505709E+02  0.81874525226E+02  0.41800000000E+01 0.  1.
</event>
<event>
11    1  0.8453735E-009  0.1481702E+03  0.7561462E-02  0.1098763E+00
         22   -1    0    0    0    0  0.00000000000E+00  0.00000000000E+00  0.59436303400E+03  0.59436303400E+03  0.00000000000E+00 0.  1.
         22   -1    0    0    0    0 -0.00000000000E+00 -0.00000000000E+00 -0.15381556885E+04  0.15381556885E+04  0.00000000000E+00 0. -1.
         24    2    1    2    0    0 -0.34197312440E+02 -0.69715679387E+01 -0.11577110687E+04  0.11607589403E+04  0.76474440336E+02 0.  0.
         25    2    1    2    0    0  0.71825446706E+02  0.76537492871E+02 -0.35528841447E+03  0.39101357492E+03  0.12507947754E+03 0.  0.
        -24    2    1    2    0    0 -0.37628134266E+02 -0.69565924932E+02  0.56920682864E+03  0.58074620729E+03  0.83752308102E+02 0.  0.
        -13    1    3    3    0    0 -0.21522373183E+02  0.32586526051E+02 -0.39747375839E+03  0.39938763481E+03  0.00000000000E+00 0.  1.
         14    1    3    3    0    0 -0.12674939257E+02 -0.39558093990E+02 -0.76023731032E+03  0.76137130554E+03  0.00000000000E+00 0. -1.
         11    1    5    5    0    0 -0.43889213050E+02 -0.50590980165E+02  0.19836808562E+03  0.20936954814E+03  0.00000000000E+00 0. -1.
        -12    1    5    5    0    0  0.62610787844E+01 -0.18974944766E+02  0.37083874302E+03  0.37137665915E+03  0.00000000000E+00 0.  1.
          5    1    4    4  501    0 -0.21623112820E+02 -0.19129051991E+02 -0.54727897246E+02  0.62016891047E+02  0.41800000000E+01 0.  1.
         -5    1    4    4    0  501  0.93448559525E+02  0.95666544861E+02 -0.30056051723E+03  0.32899668387E+03  0.41800000000E+01 0.  1.
</event>
<event>
11    1  0.8453735E-009  0.1780891E+03  0.7561462E-02  0.1071199E+00
         22   -1    0    0    0    0  0.00000000000E+00  0.00000000000E+00  0.71916046083E+03  0.71916046083E+03  0.00000000000E+00 0. -1.
         22   -1    0    0    0    0 -0.00000000000E+00 -0.00000000000E+00 -0.40004649104E+03  0.40004649104E+03  0.00000000000E+00 0. -1.
         24    2    1    2    0    0 -0.12036696584E+03  0.42022891280E+02 -0.32063562992E+03  0.35391852908E+03  0.78720951439E+02 0.  0.
         25    2    1    2    0    0  0.10089780910E+03 -0.75749484154E+02  0.74654043836E+02  0.19271644575E+03  0.12509216591E+03 0.  0.
        -24    2    1    2    0    0  0.19469156744E+02  0.33726592874E+02  0.56509555588E+03  0.57257197703E+03  0.83601139235E+02 0.  0.
        -13    1    3    3    0    0  0.82211413889E+01 -0.14979347311E+00 -0.56888826092E+02  0.57479980324E+02  0.00000000000E+00 0.  1.
         14    1    3    3    0    0 -0.12858810723E+03  0.42172684753E+02 -0.26374680383E+03  0.29643854876E+03  0.00000000000E+00 0. -1.
         13    1    5    5    0    0  0.22456476282E+02  0.78125352333E+00  0.48997787734E+03  0.49049283783E+03  0.00000000000E+00 0. -1.
        -14    1    5    5    0    0 -0.29873195376E+01  0.32945339351E+02  0.75117678537E+02  0.82079139200E+02  0.00000000000E+00 0.  1.
          5    1    4    4  501    0  0.10369672480E+03 -0.40984767793E+02  0.99652620325E+02  0.14960240327E+03  0.41800000000E+01 0. -1.
         -5    1    4    4    0  501 -0.27989157039E+01 -0.34764716361E+02 -0.24998576489E+02  0.43114042483E+02  0.41800000000E+01 0. -1.
</event>
<event>
11    1  0.8453735E-009  0.1636027E+03  0.7561462E-02  0.1083737E+00
         22   -1    0    0    0    0  0.00000000000E+00  0.00000000000E+00  0.16964334374E+04  0.16964334374E+04  0.00000000000E+00 0.  1.
         22   -1    0    0    0    0 -0.00000000000E+00 -0.00000000000E+00 -0.50697129252E+03  0.50697129252E+03  0.00000000000E+00 0.  1.
        -24    2    1    2    0    0 -0.26538653865E+02  0.10160146555E+03 -0.47778448909E+03  0.49567834972E+03  0.79949048882E+02 0.  0.
         25    2    1    2    0    0  0.89832034338E+02 -0.10990764826E+03  0.46834668127E+03  0.50511815296E+03  0.12508496731E+03 0.  0.
         24    2    1    2    0    0 -0.63293380473E+02  0.83061827149E+01  0.11988999527E+04  0.12026082273E+04  0.69501129257E+02 0.  0.
        -11    1    5    5    0    0 -0.43511888458E+02 -0.12603093109E+02  0.10485331837E+04  0.10495112957E+04  0.00000000000E+00 0.  1.
         12    1    5    5    0    0 -0.19781492015E+02  0.20909275824E+02  0.15036676904E+03  0.15309693162E+03  0.00000000000E+00 0. -1.
         11    1    3    3    0    0  0.19534866894E+02  0.11131119974E+01 -0.10663818946E+03  0.10841841862E+03  0.00000000000E+00 0. -1.
        -12    1    3    3    0    0 -0.46073520758E+02  0.10048835355E+03 -0.37114629963E+03  0.38725993111E+03  0.00000000000E+00 0.  1.
          5    1    4    4  501    0  0.79020777370E+02 -0.21193008141E+01  0.23094639484E+03  0.24413620048E+03  0.41800000000E+01 0.  1.
         -5    1    4    4    0  501  0.10811256968E+02 -0.10778834745E+03  0.23740028643E+03  0.26098195248E+03  0.41800000000E+01 0.  1.
</event>
<event>
11    1  0.8453735E-009  0.1439339E+03  0.7561462E-02  0.1103243E+00
         22   -1    0    0    0    0  0.00000000000E+00  0.00000000000E+00  0.44027277678E+03  0.44027277678E+03  0.00000000000E+00 0. -1.
         22   -1    0    0    0    0 -0.00000000000E+00 -0.00000000000E+00 -0.43581977337E+03  0.43581977337E+03  0.00000000000E+00 0. -1.
         24    2    1    2    0    0 -0.65506398723E+02 -0.21714177426E+02 -0.33800999594E+03  0.35387481727E+03  0.78829151788E+02 0.  0.
         25    2    1    2    0    0  0.89002852370E+02  0.19328975287E+02 -0.14517337506E+02  0.15541392434E+03  0.12509043838E+03 0.  0.
        -24    2    1    2    0    0 -0.23496453647E+02  0.23852021391E+01  0.35698033686E+03  0.36680380854E+03  0.80946281777E+02 0.  0.
        -13    1    3    3    0    0 -0.35618001512E+02  0.27502638034E+02 -0.11342562753E+03  0.12202626812E+03  0.00000000000E+00 0.  1.
         14    1    3    3    0    0 -0.29888397211E+02 -0.49216815460E+02 -0.22458436841E+03  0.23184854916E+03  0.00000000000E+00 0. -1.
         13    1    5    5    0    0 -0.40116635995E+02 -0.27987064346E+02  0.23306048127E+03  0.23813821235E+03  0.00000000000E+00 0. -1.
        -14    1    5    5    0    0  0.16620182348E+02  0.30372266485E+02  0.12391985559E+03  0.12866559619E+03  0.00000000000E+00 0.  1.
          5    1    4    4  501    0 -0.15349733031E+02 -0.15037744123E+02 -0.37190452466E+02  0.43154955764E+02  0.41800000000E+01 0. -1.
         -5    1    4    4    0  501  0.10435258540E+03  0.34366719410E+02  0.22673114960E+02  0.11225896857E+03  0.41800000000E+01 0. -1.
</event>
<event>
11    1  0.8453735E-009  0.3702301E+03  0.7561462E-02  0.9741924E-01
         22   -1    0    0    0    0  0.00000000000E+00  0.00000000000E+00  0.22299152858E+04  0.22299152858E+04  0.00000000000E+00 0.  1.
         22   -1    0    0    0    0 -0.00000000000E+00 -0.00000000000E+00 -0.15102131892E+03  0.15102131892E+03  0.00000000000E+00 0.  1.
        -24    2    1    2    0    0  0.31664853369E+03  0.13807912459E+03  0.14524306061E+03  0.38290617491E+03  0.78673080491E+02 0.  0.
         25    2    1    2    0    0 -0.36066612762E+03 -0.90373436782E+02  0.16426273785E+04  0.16888219499E+04  0.12508980912E+03 0.  0.
         24    2    1    2    0    0  0.44017593935E+02 -0.47705687805E+02  0.29102352781E+03  0.30920847990E+03  0.81864577660E+02 0.  0.
        -11    1    5    5    0    0  0.16956618711E+02 -0.66439112873E+02  0.15920688522E+03  0.17334507474E+03  0.00000000000E+00 0.  1.
         12    1    5    5    0    0  0.27060975224E+02  0.18733425067E+02  0.13181664260E+03  0.13586340516E+03  0.00000000000E+00 0. -1.
         11    1    3    3    0    0  0.17547658246E+02 -0.53733645088E+01  0.22889689269E+02  0.29338221332E+02  0.00000000000E+00 0. -1.
        -12    1    3    3    0    0  0.29910087544E+03  0.14345248910E+03  0.12235337134E+03  0.35356795358E+03  0.00000000000E+00 0.  1.
          5    1    4    4  501    0 -0.11586700691E+03  0.29551095270E+02  0.49372918288E+03  0.50802008715E+03  0.41800000000E+01 0.  1.
         -5    1    4    4    0  501 -0.24479912071E+03 -0.11992453205E+03  0.11488981956E+04  0.11808018628E+04  0.41800000000E+01 0.  1.
</event>
<event>
11    1  0.8453735E-009  0.1426708E+03  0.7561462E-02  0.1104612E+00
         22   -1    0    0    0    0  0.00000000000E+00  0.00000000000E+00  0.69043105243E+03  0.69043105243E+03  0.00000000000E+00 0. -1.
         22   -1    0    0    0    0 -0.00000000000E+00 -0.00000000000E+00 -0.78404653664E+03  0.78404653664E+03  0.00000000000E+00 0.  1.
        -24    2    1    2    0    0  0.61896257557E+02 -0.27926319420E+02 -0.72078988284E+03  0.72849021110E+03  0.80925314054E+02 0.  0.
         25    2    1    2    0    0 -0.74241290872E+02  0.47913936539E+02  0.47809299945E+02  0.16044364539E+03  0.12509564181E+03 0.  0.
         24    2    1    2    0    0  0.12345033315E+02 -0.19987617119E+02  0.57936509868E+03  0.58554373258E+03  0.81520798045E+02 0.  0.
        -13    1    5    5    0    0  0.19891869289E+02  0.29011023310E+02  0.22755155790E+03  0.23025428864E+03  0.00000000000E+00 0.  1.
         14    1    5    5    0    0 -0.75468359742E+01 -0.48998640429E+02  0.35181354078E+03  0.35528944394E+03  0.00000000000E+00 0. -1.
         11    1    3    3    0    0  0.53321803999E+02 -0.36403245325E+02 -0.27271936704E+03  0.28025749626E+03  0.00000000000E+00 0. -1.
        -12    1    3    3    0    0  0.85744535582E+01  0.84769259048E+01 -0.44807051580E+03  0.44823271484E+03  0.00000000000E+00 0.  1.
          5    1    4    4  501    0 -0.19869348935E+02 -0.37246523094E+02 -0.10515517063E+02  0.43705182860E+02  0.41800000000E+01 0. -1.
         -5    1    4    4    0  501 -0.54371941937E+02  0.85160459634E+02  0.58324817008E+02  0.11673846253E+03  0.41800000000E+01 0. -1.
</event>
<event>
11    1  0.1249870E-008  0.1576108E+03  0.7561462E-02  0.1089346E+00
         22   -1    0    0    0    0  0.00000000000E+00  0.00000000000E+00  0.24796161684E+03  0.24796161684E+03  0.00000000000E+00 0.  1.
         22   -1    0    0    0    0 -0.00000000000E+00 -0.00000000000E+00 -0.47785731495E+03  0.47785731495E+03  0.00000000000E+00 0.  1.
        -24    2    1    2    0    0 -0.23850446545E+02  0.27975771199E+02 -0.21669006157E+03  0.23416486921E+03  0.80790566354E+02 0.  0.
         25    2    1    2    0    0  0.92407728457E+02 -0.91196083874E+02 -0.19955461546E+03  0.26893263665E+03  0.12508718765E+03 0.  0.
         24    2    1    2    0    0 -0.68557281913E+02  0.63220312675E+02  0.18634897892E+03  0.22272142593E+03  0.78625586081E+02 0.  0.
        -11    1    5    5    0    0 -0.16579303436E+02  0.20729948858E+01  0.11226266725E+03  0.11349923819E+03  0.00000000000E+00 0.  1.
         12    1    5    5    0    0 -0.51977978477E+02  0.61147317789E+02  0.74086311667E+02  0.10922218774E+03  0.00000000000E+00 0. -1.
         13    1    3    3    0    0 -0.24644125074E+02  0.47263836649E+01 -0.11400776442E+02  0.27561736278E+02  0.00000000000E+00 0. -1.
        -14    1    3    3    0    0  0.79367852933E+00  0.23249387534E+02 -0.20528928513E+03  0.20660313293E+03  0.00000000000E+00 0.  1.
          5    1    4    4  501    0  0.11286456748E+03 -0.37401274741E+02 -0.15817697280E+03  0.19792597876E+03  0.41800000000E+01 0.  1.
         -5    1    4    4    0  501 -0.20456839025E+02 -0.53794809133E+02 -0.41377642660E+02  0.71006657889E+02  0.41800000000E+01 0.  1.
</event>
<event>
11    1  0.8453735E-009  0.1275645E+03  0.7561462E-02  0.1122298E+00
         22   -1    0    0    0    0  0.00000000000E+00  0.00000000000E+00  0.56421715259E+03  0.56421715259E+03  0.00000000000E+00 0. -1.
         22   -1    0    0    0    0 -0.00000000000E+00 -0.00000000000E+00 -0.95288604366E+03  0.95288604366E+03  0.00000000000E+00 0. -1.
        -24    2    1    2    0    0 -0.23027506813E+02  0.96492320361E+01 -0.92982836653E+03  0.93364141762E+03  0.80511686948E+02 0.  0.
         25    2    1    2    0    0  0.25500890646E+02 -0.20878303141E+02  0.25243219077E+03  0.28364626104E+03  0.12508793506E+03 0.  0.
         24    2    1    2    0    0 -0.24733838335E+01  0.11229071105E+02  0.28872728469E+03  0.29981551760E+03  0.79960552797E+02 0.  0.
        -13    1    5    5    0    0 -0.30909147835E+02 -0.20767552817E+02  0.11432419792E+03  0.12023597174E+03  0.00000000000E+00 0.  1.
         14    1    5    5    0    0  0.28435764002E+02  0.31996623922E+02  0.17440308677E+03  0.17957954586E+03  0.00000000000E+00 0. -1.
         13    1    3    3    0    0  0.22600837016E+02  0.13967816380E+02 -0.60640467747E+03  0.60698643361E+03  0.00000000000E+00 0. -1.
        -14    1    3    3    0    0 -0.45628343828E+02 -0.43185843436E+01 -0.32342368906E+03  0.32665498401E+03  0.00000000000E+00 0.  1.
          5    1    4    4  501    0 -0.38329117204E+02 -0.40273292305E+02  0.70881183884E+02  0.90181339131E+02  0.41800000000E+01 0. -1.
         -5    1    4    4    0  501  0.63830007850E+02  0.19394989164E+02  0.18155100689E+03  0.19346492191E+03  0.41800000000E+01 0. -1.
</event>
<event>
11    1  0.8453735E-009  0.1686624E+03  0.7561462E-02  0.1079202E+00
         22   -1    0    0    0    0  0.00000000000E+00  0.00000000000E+00  0.81944397465E+03  0.81944397465E+03  0.00000000000E+00 0. -1.
         22   -1    0    0    0    0 -0.00000000000E+00 -0.00000000000E+00 -0.52200885617E+03  0.52200885617E+03  0.00000000000E+00 0.  1.
         24    2    1    2    0    0  0.62320139223E+02 -0.49519350184E+02 -0.35964785130E+03  0.37703449449E+03  0.80451645691E+02 0.  0.
         25    2    1    2    0    0 -0.12387653029E+03  0.14064078687E+03 -0.61072309683E+02  0.23345910956E+03  0.12509237842E+03 0.  0.
        -24    2    1    2    0    0  0.61556391067E+02 -0.91121436687E+02  0.71815527946E+03  0.73095922677E+03  0.80387065332E+02 0.  0.
        -13    1    3    3    0    0  0.69821448436E+02 -0.15595553961E+02 -0.17348582547E+03  0.18765816690E+03  0.00000000000E+00 0.  1.
         14    1    3    3    0    0 -0.75013092126E+01 -0.33923796222E+02 -0.18616202584E+03  0.18937632760E+03  0.00000000000E+00 0. -1.
         11    1    5    5    0    0  0.63303316767E+02 -0.57649317999E+02  0.31549954732E+03  0.32691087186E+03  0.00000000000E+00 0. -1.
        -12    1    5    5    0    0 -0.17469257003E+01 -0.33472118687E+02  0.40265573214E+03  0.40404835491E+03  0.00000000000E+00 0.  1.
          5    1    4    4  501    0 -0.10485884542E+03  0.95659631190E+02 -0.97620901687E+02  0.17231789039E+03  0.41800000000E+01 0.  1.
         -5    1    4    4    0  501 -0.19017684866E+02  0.44981155680E+02  0.36548592004E+02  0.61141219169E+02  0.41800000000E+01 0.  1.
</event>
<event>
11    1  0.8453735E-009  0.1383241E+03  0.7561462E-02  0.1109444E+00
         22   -1    0    0    0    0  0.00000000000E+00  0.00000000000E+00  0.16735846181E+04  0.16735846181E+04  0.00000000000E+00 0.  1.
         22   -1    0    0    0    0 -0.00000000000E+00 -0.00000000000E+00 -0.38975609153E+03  0.38975609153E+03  0.00000000000E+00 0.  1.
        -24    2    1    2    0    0 -0.50181033958E+02  0.39238700744E+02 -0.22238821911E+03  0.24474453742E+03  0.79909678963E+02 0.  0.
         25    2    1    2    0    0  0.58991863894E+02  0.70669846500E+01 -0.12389334277E+03  0.18581802553E+03  0.12509514759E+03 0.  0.
         24    2    1    2    0    0 -0.88108299355E+01 -0.46305685394E+02  0.16301100884E+04  0.16327781466E+04  0.80521603124E+02 0.  0.
        -11    1    5    5    0    0  0.15171385549E+02 -0.52397413765E+02  0.14440502126E+04  0.14450801627E+04  0.00000000000E+00 0.  1.
         12    1    5    5    0    0 -0.23982215484E+02  0.60917283712E+01  0.18605987576E+03  0.18769798396E+03  0.00000000000E+00 0. -1.
         13    1    3    3    0    0 -0.72719499924E+01 -0.54566339643E+01  0.40717586929E+01  0.99616931174E+01  0.00000000000E+00 0. -1.
        -14    1    3    3    0    0 -0.42909083966E+02  0.44695334708E+02 -0.22645997781E+03  0.23478284430E+03  0.00000000000E+00 0.  1.
          5    1    4    4  501    0  0.27299508890E+02  0.34406979300E+02 -0.13523671442E+03  0.14225169502E+03  0.41800000000E+01 0.  1.
         -5    1    4    4    0  501  0.31692355004E+02 -0.27339994650E+02  0.11343371651E+02  0.43566330504E+02  0.41800000000E+01 0.  1.
</event>
<event>
11    1  0.1225151E-008  0.1740816E+03  0.7561462E-02  0.1074533E+00
         22   -1    0    0    0    0  0.00000000000E+00  0.00000000000E+00  0.50731620192E+03  0.50731620192E+03  0.00000000000E+00 0. -1.
         22   -1    0    0    0    0 -0.00000000000E+00 -0.00000000000E+00 -0.41253038428E+03  0.41253038428E+03  0.00000000000E+00 0.  1.
        -24    2    1    2    0    0 -0.82297089532E+02 -0.21533619854E+02 -0.28678314914E+03  0.30855952143E+03  0.75682864010E+02 0.  0.
         25    2    1    2    0    0  0.37286904977E+02 -0.96618252555E+02 -0.37009961624E+02  0.16656068538E+03  0.12508926671E+03 0.  0.
         24    2    1    2    0    0  0.45010184555E+02  0.11815187241E+03  0.41857892841E+03  0.44472637939E+03  0.81163116910E+02 0.  0.
        -11    1    5    5    0    0  0.42287419827E+02  0.57222187463E+02  0.11616697946E+03  0.13622544450E+03  0.00000000000E+00 0.  1.
         12    1    5    5    0    0  0.27227647283E+01  0.60929684946E+02  0.30241194895E+03  0.30850093489E+03  0.00000000000E+00 0. -1.
         13    1    3    3    0    0 -0.20185316857E+02 -0.61838208564E+01 -0.80765486391E+01  0.22603479708E+02  0.00000000000E+00 0. -1.
        -14    1    3    3    0    0 -0.62111772675E+02 -0.15349798998E+02 -0.27870660050E+03  0.28595604173E+03  0.00000000000E+00 0.  1.
          5    1    4    4  501    0  0.24306590001E+02 -0.11086193846E+03  0.11541880222E+02  0.11415720352E+03  0.41800000000E+01 0. -1.
         -5    1    4    4    0  501  0.12980314976E+02  0.14243685901E+02 -0.48551841846E+02  0.52403481865E+02  0.41800000000E+01 0. -1.
</event>
<event>
11    1  0.8453735E-009  0.2186958E+03  0.7561462E-02  0.1042038E+00
         22   -1    0    0    0    0  0.00000000000E+00  0.00000000000E+00  0.14605605988E+03  0.14605605988E+03  0.00000000000E+00 0.  1.
         22   -1    0    0    0    0 -0.00000000000E+00 -0.00000000000E+00 -0.61670496817E+03  0.61670496817E+03  0.00000000000E+00 0. -1.
        -24    2    1    2    0    0 -0.16855785713E+03 -0.25739723759E+02 -0.24342670848E+03  0.30756478711E+03  0.79153340346E+02 0.  0.
         25    2    1    2    0    0  0.20545214019E+03 -0.81184961556E+02 -0.12810955026E+03  0.28436961694E+03  0.12510972095E+03 0.  0.
         24    2    1    2    0    0 -0.36894283056E+02  0.10692468532E+03 -0.99112649550E+02  0.17082662401E+03  0.81020625260E+02 0.  0.
        -13    1    5    5    0    0 -0.24799986832E+01 -0.12305648619E+02 -0.20139872919E+02  0.23731705851E+02  0.00000000000E+00 0.  1.
         14    1    5    5    0    0 -0.34414284373E+02  0.11923033393E+03 -0.78972776631E+02  0.14709491816E+03  0.00000000000E+00 0. -1.
         13    1    3    3    0    0 -0.11081626344E+03  0.21839719109E+02 -0.15367369646E+03  0.19071660273E+03  0.00000000000E+00 0. -1.
        -14    1    3    3    0    0 -0.57741593693E+02 -0.47579442869E+02 -0.89753012017E+02  0.11684818438E+03  0.00000000000E+00 0.  1.
          5    1    4    4  501    0  0.15952255840E+03 -0.44930960885E+02 -0.27701434071E+02  0.16808057513E+03  0.41800000000E+01 0. -1.
         -5    1    4    4    0  501  0.45929581785E+02 -0.36254000672E+02 -0.10040811619E+03  0.11628904181E+03  0.41800000000E+01 0. -1.
</event>
<event>
11    1  0.8453735E-009  0.1317537E+03  0.7561462E-02  0.1117133E+00
         22   -1    0    0    0    0  0.00000000000E+00  0.00000000000E+00  0.54054177445E+03  0.54054177445E+03  0.00000000000E+00 0. -1.
         22   -1    0    0    0    0 -0.00000000000E+00 -0.00000000000E+00 -0.83069060761E+03  0.83069060761E+03  0.00000000000E+00 0.  1.
         24    2    1    2    0    0 -0.20197320980E+02  0.37196812248E+02 -0.72660810275E+03  0.73221879198E+03  0.79959300415E+02 0.  0.
         25    2    1    2    0    0  0.33396544106E+01 -0.28959581494E+02 -0.56116722085E+02  0.14016411143E+03  0.12508829276E+03 0.  0.
        -24    2    1    2    0    0  0.16857666569E+02 -0.82372307539E+01  0.49257599167E+03  0.49884947865E+03  0.76600665045E+02 0.  0.
        -13    1    3    3    0    0  0.78599076817E+01  0.13632457359E+02 -0.60514771331E+03  0.60535227509E+03  0.00000000000E+00 0.  1.
         14    1    3    3    0    0 -0.28057228662E+02  0.23564354889E+02 -0.12146038945E+03  0.12686651688E+03  0.00000000000E+00 0. -1.
         13    1    5    5    0    0  0.34060439992E+02  0.19712427052E+02  0.16475768652E+03  0.16939241016E+03  0.00000000000E+00 0. -1.
        -14    1    5    5    0    0 -0.17202773423E+02 -0.27949657805E+02  0.32781830515E+03  0.32945706849E+03  0.00000000000E+00 0.  1.
          5    1    4    4  501    0 -0.92206014407E+01 -0.69843047748E+02 -0.13963857234E+01  0.70586777110E+02  0.41800000000E+01 0. -1.
         -5    1    4    4    0  501  0.12560255851E+02  0.40883466254E+02 -0.54720336362E+02  0.69577334324E+02  0.41800000000E+01 0. -1.
</event>
<event>
11    1  0.8453735E-009  0.1546621E+03  0.7561462E-02  0.1092208E+00
         22   -1    0    0    0    0  0.00000000000E+00  0.00000000000E+00  0.21889020489E+03  0.21889020489E+03  0.00000000000E+00 0. -1.
         22   -1    0    0    0    0 -0.00000000000E+00 -0.00000000000E+00 -0.61603949713E+03  0.61603949713E+03  0.00000000000E+00 0.  1.
        -24    2    1    2    0    0 -0.79589664011E+02  0.49615942783E+02 -0.50795783148E+03  0.52294899563E+03  0.81598021249E+02 0.  0.
         25    2    1    2    0    0  0.51430136414E+02 -0.47274229388E+02 -0.28350514335E+02  0.14604878965E+03  0.12508631260E+03 0.  0.
         24    2    1    2    0    0  0.28159527597E+02 -0.23417133954E+01  0.13915905357E+03  0.16593191675E+03  0.85847051139E+02 0.  0.
        -13    1    5    5    0    0  0.24742803536E+02  0.70520503334E+01 -0.67895151710E+00  0.25737107761E+02  0.00000000000E+00 0.  1.
         14    1    5    5    0    0  0.34167240605E+01 -0.93937637288E+01  0.13983800509E+03  0.14019480899E+03  0.00000000000E+00 0. -1.
         11    1    3    3    0    0 -0.96226471136E+02  0.42014137739E+02 -0.40563528400E+03  0.41900442139E+03  0.00000000000E+00 0. -1.
        -12    1    3    3    0    0  0.16636807125E+02  0.76018050438E+01 -0.10232254748E+03  0.10394457424E+03  0.00000000000E+00 0.  1.
          5    1    4    4  501    0  0.49275135061E+02 -0.82718593971E+02  0.58759883039E+01  0.96552598942E+02  0.41800000000E+01 0.  1.
         -5    1    4    4    0  501  0.21550013532E+01  0.35444364584E+02 -0.34226502639E+02  0.49496190707E+02  0.41800000000E+01 0.  1.
</event>
<event>
11    1  0.8453735E-009  0.1777634E+03  0.7561462E-02  0.1071466E+00
         22   -1    0    0    0    0  0.00000000000E+00  0.00000000000E+00  0.27535334158E+03  0.27535334158E+03  0.00000000000E+00 0. -1.
         22   -1    0    0    0    0 -0.00000000000E+00 -0.00000000000E+00 -0.20071018747E+04  0.20071018747E+04  0.00000000000E+00 0. -1.
        -24    2    1    2    0    0 -0.35016386927E+02 -0.16854807548E+02 -0.15886296613E+04  0.15913830527E+04  0.85121019290E+02 0.  0.
         25    2    1    2    0    0 -0.55968841113E+02 -0.73563818957E+02 -0.37946972734E+03  0.41010596309E+03  0.12508189459E+03 0.  0.
         24    2    1    2    0    0  0.90985228040E+02  0.90418626505E+02  0.23635085552E+03  0.28096620045E+03  0.81402943122E+02 0.  0.
        -13    1    5    5    0    0  0.30884789401E+02  0.15240208412E+02  0.11381215943E+02  0.36272113877E+02  0.00000000000E+00 0.  1.
         14    1    5    5    0    0  0.60100438639E+02  0.75178418093E+02  0.22496963958E+03  0.24469408657E+03  0.00000000000E+00 0. -1.
         13    1    3    3    0    0 -0.30239383090E+02 -0.50663816361E+02 -0.93127651954E+03  0.93314371799E+03  0.00000000000E+00 0. -1.
        -14    1    3    3    0    0 -0.47770038373E+01  0.33809008813E+02 -0.65735314174E+03  0.65823933474E+03  0.00000000000E+00 0.  1.
          5    1    4    4  501    0  0.26016308953E+02 -0.28737765180E+02 -0.23355335659E+03  0.23678545194E+03  0.41800000000E+01 0. -1.
         -5    1    4    4    0  501 -0.81985150065E+02 -0.44826053777E+02 -0.14591637076E+03  0.17332051114E+03  0.41800000000E+01 0. -1.
</event>
<event>
11    1  0.8453735E-009  0.1538255E+03  0.7561462E-02  0.1093033E+00
         22   -1    0    0    0    0  0.00000000000E+00  0.00000000000E+00  0.18395864378E+04  0.18395864378E+04  0.00000000000E+00 0. -1.
         22   -1    0    0    0    0 -0.00000000000E+00 -0.00000000000E+00 -0.10034290345E+03  0.10034290345E+03  0.00000000000E+00 0.  1.
         24    2    1    2    0    0  0.80322920887E+01 -0.23808846680E+01 -0.67810621081E+02  0.10543522773E+03  0.80300190453E+02 0.  0.
         25    2    1    2    0    0  0.73478482913E+02 -0.38526387392E+02  0.50431867312E+03  0.52618278011E+03  0.12509046347E+03 0.  0.
        -24    2    1    2    0    0 -0.81510775001E+02  0.40907272060E+02  0.13027354823E+04  0.13083113334E+04  0.79002512065E+02 0.  0.
        -13    1    3    3    0    0 -0.28700341458E+02 -0.21256406140E+02 -0.47454062500E+02  0.59392191823E+02  0.00000000000E+00 0.  1.
         14    1    3    3    0    0  0.36732633547E+02  0.18875521472E+02 -0.20356558581E+02  0.46043035906E+02  0.00000000000E+00 0. -1.
         13    1    5    5    0    0  0.12845522663E+02 -0.40545460560E+01  0.26048527626E+03  0.26083332982E+03  0.00000000000E+00 0. -1.
        -14    1    5    5    0    0 -0.94356297664E+02  0.44961818116E+02  0.10422502060E+04  0.10474780036E+04  0.00000000000E+00 0.  1.
          5    1    4    4  501    0  0.10140490128E+03  0.41765395873E+00  0.36174325529E+03  0.37571103735E+03  0.41800000000E+01 0. -1.
         -5    1    4    4    0  501 -0.27926418372E+02 -0.38944041351E+02  0.14257541783E+03  0.15047174276E+03  0.41800000000E+01 0. -1.
</event>
<event>
11    1  0.8453735E-009  0.1519783E+03  0.7561462E-02  0.1094874E+00
         22   -1    0    0    0    0  0.00000000000E+00  0.00000000000E+00  0.25189042888E+03  0.25189042888E+03  0.00000000000E+00 0. -1.
         22   -1    0    0    0    0 -0.00000000000E+00 -0.00000000000E+00 -0.45348827210E+03  0.45348827210E+03  0.00000000000E+00 0.  1.
         24    2    1    2    0    0 -0.20904007670E+02 -0.19535391607E+02 -0.34795756908E+03  0.35871191597E+03  0.82347797307E+02 0.  0.
         25    2    1    2    0    0  0.83503555974E+02  0.69517864648E+02  0.92051202536E+01  0.16594603632E+03  0.12509106829E+03 0.  0.
        -24    2    1    2    0    0 -0.62599548304E+02 -0.49982473041E+02  0.13715460561E+03  0.18072074868E+03  0.86207030489E+02 0.  0.
        -11    1    3    3    0    0 -0.42432779962E+02  0.60133037283E+01 -0.27683904001E+03  0.28013667148E+03  0.00000000000E+00 0.  1.
         12    1    3    3    0    0  0.21528772293E+02 -0.25548695335E+02 -0.71118529071E+02  0.78575244492E+02  0.00000000000E+00 0. -1.
         11    1    5    5    0    0 -0.77964044174E+02 -0.21380479780E+02  0.11795982051E+03  0.14300362357E+03  0.00000000000E+00 0. -1.
        -12    1    5    5    0    0  0.15364495870E+02 -0.28601993261E+02  0.19194785102E+02  0.37717125115E+02  0.00000000000E+00 0.  1.
          5    1    4    4  501    0  0.24106859958E+02  0.56713637861E+02 -0.51154206740E+02  0.80198520458E+02  0.41800000000E+01 0.  1.
         -5    1    4    4    0  501  0.59396696015E+02  0.12804226787E+02  0.60359326993E+02  0.85747515861E+02  0.41800000000E+01 0.  1.
</event>
<event>
11    1  0.8453735E-009  0.2093603E+03  0.7561462E-02  0.1048095E+00
         22   -1    0    0    0    0  0.00000000000E+00  0.00000000000E+00  0.96312449331E+03  0.96312449331E+03  0.00000000000E+00 0. -1.
         22   -1    0    0    0    0 -0.00000000000E+00 -0.00000000000E+00 -0.39226492785E+03  0.39226492785E+03  0.00000000000E+00 0. -1.
         24    2    1    2    0    0 -0.22987421796E+02 -0.38907548181E+02 -0.27116648268E+03  0.28673066688E+03  0.81492301063E+02 0.  0.
         25    2    1    2    0    0 -0.11539106293E+03  0.13343458706E+03  0.10495877667E+02  0.21649575751E+03  0.12506143747E+03 0.  0.
        -24    2    1    2    0    0  0.13837848473E+03 -0.94527038878E+02  0.83153017048E+03  0.85216299677E+03  0.81580527887E+02 0.  0.
        -11    1    3    3    0    0 -0.82614369448E+01  0.15228321331E+02 -0.17138495236E+03  0.17225839604E+03  0.00000000000E+00 0.  1.
         12    1    3    3    0    0 -0.14725984851E+02 -0.54135869512E+02 -0.99781530325E+02  0.11447227084E+03  0.00000000000E+00 0. -1.
         13    1    5    5    0    0  0.97602366021E+02 -0.97786820435E+02  0.52334389490E+03  0.54127379064E+03  0.00000000000E+00 0. -1.
        -14    1    5    5    0    0  0.40776118706E+02  0.32597815573E+01  0.30818627558E+03  0.31088920613E+03  0.00000000000E+00 0.  1.
          5    1    4    4  501    0 -0.13999491839E+03  0.10679648715E+03 -0.64597155999E+01  0.17624774373E+03  0.41800000000E+01 0.  1.
         -5    1    4    4    0  501  0.24603855459E+02  0.26638099906E+02  0.16955593267E+02  0.40248013778E+02  0.41800000000E+01 0.  1.
</event>
<event>
11    1  0.8453735E-009  0.1617093E+03  0.7561462E-02  0.1085481E+00
         22   -1    0    0    0    0  0.00000000000E+00  0.00000000000E+00  0.28520996468E+02  0.28520996468E+02  0.00000000000E+00 0. -1.
         22   -1    0    0    0    0 -0.00000000000E+00 -0.00000000000E+00 -0.18935981089E+04  0.18935981089E+04  0.00000000000E+00 0. -1.
        -24    2    1    2    0    0 -0.67402921061E+01  0.10451249961E+03 -0.12290749752E+04  0.12362130646E+04  0.81419605786E+02 0.  0.
         25    2    1    2    0    0 -0.35655983505E+02 -0.94689562662E+02 -0.46572027953E+03  0.49272749989E+03  0.12509015925E+03 0.  0.
         24    2    1    2    0    0  0.42396275611E+02 -0.98229369468E+01 -0.17028185765E+03  0.19317854088E+03  0.80175453438E+02 0.  0.
        -11    1    5    5    0    0 -0.10126675178E+02 -0.45326439284E+01 -0.11921938461E+03  0.11973452333E+03  0.00000000000E+00 0.  1.
         12    1    5    5    0    0  0.52522950789E+02 -0.52902930185E+01 -0.51062473045E+02  0.73444017546E+02  0.00000000000E+00 0. -1.
         11    1    3    3    0    0 -0.31050595430E+02  0.84063682087E+02 -0.10841437854E+04  0.10878412520E+04  0.00000000000E+00 0. -1.
        -12    1    3    3    0    0  0.24310303324E+02  0.20448817522E+02 -0.14493118980E+03  0.14837181256E+03  0.00000000000E+00 0.  1.
          5    1    4    4  501    0 -0.23014556032E+02  0.23002930842E+02 -0.18744328896E+03  0.19029257366E+03  0.41800000000E+01 0. -1.
         -5    1    4    4    0  501 -0.12641427473E+02 -0.11769249350E+03 -0.27827699058E+03  0.30243492622E+03  0.41800000000E+01 0. -1.
</event>
<event>
11    1  0.8453735E-009  0.1865559E+03  0.7561462E-02  0.1064460E+00
         22   -1    0    0    0    0  0.00000000000E+00  0.00000000000E+00  0.14663495202E+04  0.14663495202E+04  0.00000000000E+00 0.  1.
         22   -1    0    0    0    0 -0.00000000000E+00 -0.00000000000E+00 -0.11992189159E+04  0.11992189159E+04  0.00000000000E+00 0.  1.
         24    2    1    2    0    0 -0.11398123681E+03 -0.77683512141E+02 -0.11098485475E+04  0.11212641597E+04  0.80268717636E+02 0.  0.
         25    2    1    2    0    0  0.10279387715E+03  0.11165408045E+03  0.34664517738E+02  0.19970487630E+03  0.12508874437E+03 0.  0.
        -24    2    1    2    0    0  0.11187359663E+02 -0.33970568308E+02  0.13423146341E+04  0.13445994000E+04  0.69712359934E+02 0.  0.
        -13    1    3    3    0    0 -0.58278530444E+02 -0.21281659014E+02 -0.24288010616E+03  0.25067916166E+03  0.00000000000E+00 0.  1.
         14    1    3    3    0    0 -0.55702706370E+02 -0.56401853127E+02 -0.86696844135E+03  0.87058499805E+03  0.00000000000E+00 0. -1.
         13    1    5    5    0    0 -0.31183455860E+01 -0.31159763234E+02  0.22281552396E+03  0.22500536136E+03  0.00000000000E+00 0. -1.
        -14    1    5    5    0    0  0.14305705249E+02 -0.28108050746E+01  0.11194991102E+04  0.11195940387E+04  0.00000000000E+00 0.  1.
          5    1    4    4  501    0  0.22549129479E+02 -0.27415628093E+02  0.19753244557E+01  0.35797405084E+02  0.41800000000E+01 0.  1.
         -5    1    4    4    0  501  0.80244747672E+02  0.13906970854E+03  0.32689193283E+02  0.16390747122E+03  0.41800000000E+01 0.  1.
</event>
<event>
11    1  0.8453735E-009  0.1604101E+03  0.7561462E-02  0.1086692E+00
         22   -1    0    0    0    0  0.00000000000E+00  0.00000000000E+00  0.15701660378E+04  0.15701660378E+04  0.00000000000E+00 0. -1.
         22   -1    0    0    0    0 -0.00000000000E+00 -0.00000000000E+00 -0.15255575559E+04  0.15255575559E+04  0.00000000000E+00 0. -1.
        -24    2    1    2    0    0  0.10077603861E+03 -0.73943177352E+01 -0.14656911438E+04  0.14713400694E+04  0.79878563308E+02 0.  0.
         25    2    1    2    0    0 -0.78874541450E+02  0.26878948845E+00  0.42066734833E+02  0.15374687366E+03  0.12508887018E+03 0.  0.
         24    2    1    2    0    0 -0.21901497160E+02  0.71255282467E+01  0.14682328908E+04  0.14706366507E+04  0.80832468558E+02 0.  0.
        -11    1    5    5    0    0 -0.18430565331E+02 -0.30707131024E+02  0.36571620574E+03  0.36746558584E+03  0.00000000000E+00 0.  1.
         12    1    5    5    0    0 -0.34709318296E+01  0.37832659271E+02  0.11025166851E+04  0.11031710648E+04  0.00000000000E+00 0. -1.
         13    1    3    3    0    0  0.83924683559E+02  0.24860170943E+02 -0.82855879180E+03  0.83316928177E+03  0.00000000000E+00 0. -1.
        -14    1    3    3    0    0  0.16851355051E+02 -0.32254488679E+02 -0.63713235197E+03  0.63817078759E+03  0.00000000000E+00 0.  1.
          5    1    4    4  501    0 -0.35711791639E+02  0.80780065518E+01  0.84740898990E+02  0.92407135079E+02  0.41800000000E+01 0.  1.
         -5    1    4    4    0  501 -0.43162749811E+02 -0.78092170633E+01 -0.42674164157E+02  0.61339738579E+02  0.41800000000E+01 0.  1.
</event>
<event>
11    1  0.8453735E-009  0.1365683E+03  0.7561462E-02  0.1111452E+00
         22   -1    0    0    0    0  0.00000000000E+00  0.00000000000E+00  0.15221192640E+03  0.15221192640E+03  0.00000000000E+00 0.  1.
         22   -1    0    0    0    0 -0.00000000000E+00 -0.00000000000E+00 -0.13163518059E+04  0.13163518059E+04  0.00000000000E+00 0. -1.
         24    2    1    2    0    0 -0.57192695220E+01  0.53396124177E+02 -0.81360270317E+03  0.81931983412E+03  0.80322947341E+02 0.  0.
         25    2    1    2    0    0  0.25909485879E+02 -0.55481087783E+02 -0.47812893237E+03  0.49799782627E+03  0.12508039990E+03 0.  0.
        -24    2    1    2    0    0 -0.20190216357E+02  0.20849636062E+01  0.12759175600E+03  0.15124607195E+03  0.78636671926E+02 0.  0.
        -11    1    3    3    0    0  0.85598797757E+01  0.39463654489E+02 -0.14776659925E+03  0.15318491904E+03  0.00000000000E+00 0.  1.
         12    1    3    3    0    0 -0.14279149298E+02  0.13932469688E+02 -0.66583610392E+03  0.66613491509E+03  0.00000000000E+00 0. -1.
         11    1    5    5    0    0 -0.26482974386E+02  0.26645084016E+01  0.33305081009E+01  0.26824239441E+02  0.00000000000E+00 0. -1.
        -12    1    5    5    0    0  0.62927580293E+01 -0.57954479538E+00  0.12426124790E+03  0.12442183251E+03  0.00000000000E+00 0.  1.
          5    1    4    4  501    0  0.74743558550E+02 -0.40375533581E+02 -0.34504085898E+03  0.35536945567E+03  0.41800000000E+01 0. -1.
         -5    1    4    4    0  501 -0.48834072671E+02 -0.15105554202E+02 -0.13308807339E+03  0.14262837060E+03  0.41800000000E+01 0. -1.
</event>
<event>
11    1  0.8453735E-009  0.1277207E+03  0.7561462E-02  0.1122102E+00
         22   -1    0    0    0    0  0.00000000000E+00  0.00000000000E+00  0.32939611251E+03  0.32939611251E+03  0.00000000000E+00 0. -1.
         22   -1    0    0    0    0 -0.00000000000E+00 -0.00000000000E+00 -0.35031627072E+03  0.35031627072E+03  0.00000000000E+00 0.  1.
         24    2    1    2    0    0 -0.16926288909E+02 -0.16905905949E+02 -0.28551564307E+03  0.29856694506E+03  0.83968621104E+02 0.  0.
         25    2    1    2    0    0  0.47426568282E+02  0.25935315606E+02  0.42310425415E+02  0.14268777845E+03  0.12509080720E+03 0.  0.
        -24    2    1    2    0    0 -0.30500279373E+02 -0.90294096570E+01  0.22228505945E+03  0.23845765972E+03  0.80247184038E+02 0.  0.
        -13    1    3    3    0    0 -0.20992974803E+02 -0.41532632840E+02 -0.25467192611E+03  0.25888888453E+03  0.00000000000E+00 0.  1.
         14    1    3    3    0    0  0.40666858946E+01  0.24626726892E+02 -0.30843716957E+02  0.39678060529E+02  0.00000000000E+00 0. -1.
         13    1    5    5    0    0 -0.51877999295E+02 -0.26915103839E+02  0.14941485471E+03  0.16043861266E+03  0.00000000000E+00 0. -1.
        -14    1    5    5    0    0  0.21377719922E+02  0.17885694182E+02  0.72870204744E+02  0.78019047064E+02  0.00000000000E+00 0.  1.
          5    1    4    4  501    0  0.88331223346E+02  0.22839854771E+02  0.13356439555E+02  0.92303471556E+02  0.41800000000E+01 0.  1.
         -5    1    4    4    0  501 -0.40904655064E+02  0.30954608347E+01  0.28953985860E+02  0.50384306891E+02  0.41800000000E+01 0.  1.
</event>
<event>
11    1  0.8453735E-009  0.1300929E+03  0.7561462E-02  0.1119155E+00
         22   -1    0    0    0    0  0.00000000000E+00  0.00000000000E+00  0.37569873633E+04  0.37569873633E+04  0.00000000000E+00 0. -1.
         22   -1    0    0    0    0 -0.00000000000E+00 -0.00000000000E+00 -0.56240021747E+02  0.56240021747E+02  0.00000000000E+00 0.  1.
        -24    2    1    2    0    0  0.23889545370E+02 -0.23588080537E+02 -0.33857245631E+01  0.87765253796E+02  0.81019557649E+02 0.  0.
         25    2    1    2    0    0 -0.47695276530E+02  0.37212331600E+02  0.46645206322E+03  0.48670774581E+03  0.12508919027E+03 0.  0.
         24    2    1    2    0    0  0.23805731160E+02 -0.13624251062E+02  0.32376810029E+04  0.32387543855E+04  0.78736012443E+02 0.  0.
        -11    1    5    5    0    0 -0.78998113840E+01 -0.34968547972E+01  0.41008660868E+02  0.41908773301E+02  0.00000000000E+00 0.  1.
         12    1    5    5    0    0  0.31705542544E+02 -0.10127396265E+02  0.31966723421E+04  0.31968456122E+04  0.00000000000E+00 0. -1.
         13    1    3    3    0    0 -0.28365548817E+02 -0.15191289531E+02  0.89951879091E+01  0.33410971892E+02  0.00000000000E+00 0. -1.
        -14    1    3    3    0    0  0.52255094186E+02 -0.83967910065E+01 -0.12380912472E+02  0.54354281904E+02  0.00000000000E+00 0.  1.
          5    1    4    4  501    0 -0.33815433260E+02 -0.40985054203E+01  0.23490547329E+02  0.41587972866E+02  0.41800000000E+01 0.  1.
         -5    1    4    4    0  501 -0.13879843270E+02  0.41310837020E+02  0.44296151589E+03  0.44511977294E+03  0.41800000000E+01 0.  1.
</event>
<event>
11    1  0.8453735E-009  0.2209456E+03  0.7561462E-02  0.1040627E+00
         22   -1    0    0    0    0  0.00000000000E+00  0.00000000000E+00  0.47772248911E+03  0.47772248911E+03  0.00000000000E+00 0.  1.
         22   -1    0    0    0    0 -0.00000000000E+00 -0.00000000000E+00 -0.98362786136E+03  0.98362786136E+03  0.00000000000E+00 0.  1.
         24    2    1    2    0    0 -0.28998062868E+02 -0.46658047091E+02 -0.85454264072E+03  0.85997931132E+03  0.79394143888E+02 0.  0.
         25    2    1    2    0    0  0.13126301432E+03 -0.10998474075E+03  0.17758571162E+02  0.21281239790E+03  0.12508847959E+03 0.  0.
        -24    2    1    2    0    0 -0.10226495145E+03  0.15664278784E+03  0.33087869730E+03  0.38855864126E+03  0.80635116970E+02 0.  0.
        -11    1    3    3    0    0 -0.43387414158E+02 -0.10416000837E+02 -0.66344662317E+03  0.66494539819E+03  0.00000000000E+00 0.  1.
         12    1    3    3    0    0  0.14389351290E+02 -0.36242046254E+02 -0.19109601755E+03  0.19503391313E+03  0.00000000000E+00 0. -1.
         11    1    5    5    0    0  0.13229253931E+02  0.17471239633E+02  0.25288685168E+02  0.33463038884E+02  0.00000000000E+00 0. -1.
        -12    1    5    5    0    0 -0.11549420538E+03  0.13917154820E+03  0.30559001214E+03  0.35509560237E+03  0.00000000000E+00 0.  1.
          5    1    4    4  501    0  0.17849017186E+02  0.14775771462E+02  0.36164045308E+02  0.43153463474E+02  0.41800000000E+01 0.  1.
         -5    1    4    4    0  501  0.11341399713E+03 -0.12476051221E+03 -0.18405474146E+02  0.16965893443E+03  0.41800000000E+01 0.  1.
</event>
<event>
11    1  0.8453735E-009  0.1631002E+03  0.7561462E-02  0.1084197E+00
         22   -1    0    0    0    0  0.00000000000E+00  0.00000000000E+00  0.31232393639E+03  0.31232393639E+03  0.00000000000E+00 0. -1.
         22   -1    0    0    0    0 -0.00000000000E+00 -0.00000000000E+00 -0.19906708661E+04  0.19906708661E+04  0.00000000000E+00 0. -1.
         24    2    1    2    0    0 -0.92405938496E+02 -0.49043114784E+02 -0.17770967124E+04  0.17819666119E+04  0.79926191360E+02 0.  0.
         25    2    1    2    0    0  0.10105460399E+03  0.34131658407E+02 -0.17167157207E+03  0.23768677848E+03  0.12508746105E+03 0.  0.
        -24    2    1    2    0    0 -0.86486654907E+01  0.14911456377E+02  0.27042135472E+03  0.28334141217E+03  0.82809998269E+02 0.  0.
        -13    1    3    3    0    0 -0.24732330611E+01  0.80647446811E+01 -0.20849907302E+02  0.22491678974E+02  0.00000000000E+00 0.  1.
         14    1    3    3    0    0 -0.89932705435E+02 -0.57107859465E+02 -0.17562468051E+04  0.17594749329E+04  0.00000000000E+00 0. -1.
         13    1    5    5    0    0 -0.39619973196E+02 -0.14189498620E+02  0.13570320678E+03  0.14207900787E+03  0.00000000000E+00 0. -1.
        -14    1    5    5    0    0  0.30971307705E+02  0.29100954998E+02  0.13471814795E+03  0.14126240430E+03  0.00000000000E+00 0.  1.
          5    1    4    4  501    0  0.12853376710E+03  0.34479474805E+02 -0.15827696281E+03  0.20683044463E+03  0.41800000000E+01 0.  1.
         -5    1    4    4    0  501 -0.27479163109E+02 -0.34781639833E+00 -0.13394609263E+02  0.30856333851E+02  0.41800000000E+01 0.  1.
</event>
<event>
11    1  0.8453735E-009  0.1494802E+03  0.7561462E-02  0.1097411E+00
         22   -1    0    0    0    0  0.00000000000E+00  0.00000000000E+00  0.27982500671E+03  0.27982500671E+03  0.00000000000E+00 0. -1.
         22   -1    0    0    0    0 -0.00000000000E+00 -0.00000000000E+00 -0.27695862080E+04  0.27695862080E+04  0.00000000000E+00 0. -1.
         24    2    1    2    0    0  0.56628584370E+02  0.67346577001E+02 -0.25847360774E+04  0.25872982490E+04  0.74224531720E+02 0.  0.
         25    2    1    2    0    0 -0.12302826107E+03 -0.21209003455E+02 -0.12210256380E+03  0.21480583137E+03  0.12508690681E+03 0.  0.
        -24    2    1    2    0    0  0.66399676696E+02 -0.46137573546E+02  0.21707743998E+03  0.24730713433E+03  0.86606067829E+02 0.  0.
        -11    1    3    3    0    0 -0.11355148149E+02  0.38028129297E+02 -0.71995280267E+03  0.72104584881E+03  0.00000000000E+00 0.  1.
         12    1    3    3    0    0  0.67983732519E+02  0.29318447704E+02 -0.18647832748E+04  0.18662524002E+04  0.00000000000E+00 0. -1.
         11    1    5    5    0    0  0.65019640749E+02 -0.64411167998E+02  0.13426553419E+03  0.16249180262E+03  0.00000000000E+00 0. -1.
        -12    1    5    5    0    0  0.13800359473E+01  0.18273594452E+02  0.82811905792E+02  0.84815331718E+02  0.00000000000E+00 0.  1.
          5    1    4    4  501    0 -0.98206224806E+02  0.24570421598E+02 -0.12685026725E+03  0.16234725409E+03  0.41800000000E+01 0. -1.
         -5    1    4    4    0  501 -0.24822036260E+02 -0.45779425053E+02  0.47477034510E+01  0.52458577281E+02  0.41800000000E+01 0. -1.
</event>
<event>
11    1  0.8453735E-009  0.1307916E+03  0.7561462E-02  0.1118300E+00
         22   -1    0    0    0    0  0.00000000000E+00  0.00000000000E+00  0.22896734130E+03  0.22896734130E+03  0.00000000000E+00 0.  1.
         22   -1    0    0    0    0 -0.00000000000E+00 -0.00000000000E+00 -0.17804030943E+04  0.17804030943E+04  0.00000000000E+00 0.  1.
         24    2    1    2    0    0 -0.37782541977E+02  0.65464430270E+01 -0.16962849582E+04  0.16986502177E+04  0.80990903748E+02 0.  0.
         25    2    1    2    0    0  0.30183856619E+02 -0.55491481731E+01 -0.15749628760E+02  0.12976089448E+03  0.12509188896E+03 0.  0.
        -24    2    1    2    0    0  0.75986853576E+01 -0.99729485387E+00  0.16059883390E+03  0.18095932341E+03  0.83039488585E+02 0.  0.
        -11    1    3    3    0    0 -0.50991873273E+02  0.31626103686E+02 -0.12763819431E+04  0.12777915504E+04  0.00000000000E+00 0.  1.
         12    1    3    3    0    0  0.13209331296E+02 -0.25079660659E+02 -0.41990301511E+03  0.42085866738E+03  0.00000000000E+00 0. -1.
         13    1    5    5    0    0  0.21332680697E+01  0.40064831065E+02  0.98005561277E+02  0.10590010180E+03  0.00000000000E+00 0. -1.
        -14    1    5    5    0    0  0.54654172879E+01 -0.41062125919E+02  0.62593272623E+02  0.75059221610E+02  0.00000000000E+00 0.  1.
          5    1    4    4  501    0  0.20504549952E+02  0.74142486522E+01 -0.69769061537E+02  0.73216132099E+02  0.41800000000E+01 0. -1.
         -5    1    4    4    0  501  0.96793066677E+01 -0.12963396825E+02  0.54019432777E+02  0.56544762378E+02  0.41800000000E+01 0. -1.
</event>
<event>
11    1  0.8453735E-009  0.2507927E+03  0.7561462E-02  0.1023478E+00
         22   -1    0    0    0    0  0.00000000000E+00  0.00000000000E+00  0.59101446232E+03  0.59101446232E+03  0.00000000000E+00 0. -1.
         22   -1    0    0    0    0 -0.00000000000E+00 -0.00000000000E+00 -0.27257289730E+03  0.27257289730E+03  0.00000000000E+00 0. -1.
        -24    2    1    2    0    0 -0.63549694249E+02  0.63479977614E+02 -0.14123655216E+03  0.18496172493E+03  0.78707082435E+02 0.  0.
         25    2    1    2    0    0 -0.15894335746E+03  0.50906998609E+02  0.94746240761E+02  0.22907841540E+03  0.12508220047E+03 0.  0.
         24    2    1    2    0    0  0.22249305171E+03 -0.11438697622E+03  0.36493187642E+03  0.44954721929E+03  0.79560603057E+02 0.  0.
        -11    1    5    5    0    0  0.12096731261E+03 -0.17879010305E+02  0.16218155304E+03  0.20311476036E+03  0.00000000000E+00 0.  1.
         12    1    5    5    0    0  0.10152573910E+03 -0.96507965918E+02  0.20275032338E+03  0.24643245894E+03  0.00000000000E+00 0. -1.
         13    1    3    3    0    0 -0.64708635553E+02  0.44824753749E+02 -0.53310369961E+02  0.95070824174E+02  0.00000000000E+00 0. -1.
        -14    1    3    3    0    0  0.11589413048E+01  0.18655223865E+02 -0.87926182196E+02  0.89890900752E+02  0.00000000000E+00 0.  1.
          5    1    4    4  501    0 -0.17681491817E+03  0.60508617770E+02  0.78452016971E+02  0.20272394895E+03  0.41800000000E+01 0.  1.
         -5    1    4    4    0  501  0.17871560709E+02 -0.96016191606E+01  0.16294223790E+02  0.26354466445E+02  0.41800000000E+01 0.  1.
</event>
<event>
11    1  0.8453735E-009  0.1746886E+03  0.7561462E-02  0.1074022E+00
         22   -1    0    0    0    0  0.00000000000E+00  0.00000000000E+00  0.97273071938E+03  0.97273071938E+03  0.00000000000E+00 0. -1.
         22   -1    0    0    0    0 -0.00000000000E+00 -0.00000000000E+00 -0.18220932330E+04  0.18220932330E+04  0.00000000000E+00 0.  1.
         24    2    1    2    0    0 -0.12000818558E+03 -0.19408358056E+02 -0.17709758278E+04  0.17769047569E+04  0.79097934018E+02 0.  0.
         25    2    1    2    0    0  0.14666661313E+03  0.17011615772E+02  0.15849858390E+03  0.25013878300E+03  0.12508844545E+03 0.  0.
        -24    2    1    2    0    0 -0.26658427545E+02  0.23967422839E+01  0.76311473036E+03  0.76778041250E+03  0.80163919483E+02 0.  0.
        -11    1    3    3    0    0 -0.66063714851E+02 -0.48523284371E+02 -0.11469535206E+04  0.11498788206E+04  0.00000000000E+00 0.  1.
         12    1    3    3    0    0 -0.53944470732E+02  0.29114926315E+02 -0.62402230721E+03  0.62702593626E+03  0.00000000000E+00 0. -1.
         13    1    5    5    0    0 -0.49492611688E+02  0.19495830490E+01  0.67287168160E+03  0.67469224049E+03  0.00000000000E+00 0. -1.
        -14    1    5    5    0    0  0.22834184143E+02  0.44715923483E+00  0.90243048762E+02  0.93088172002E+02  0.00000000000E+00 0.  1.
          5    1    4    4  501    0  0.24027005207E+02  0.12107181430E+02  0.11758176004E+03  0.12069309639E+03  0.41800000000E+01 0.  1.
         -5    1    4    4    0  501  0.12263960792E+03  0.49044343416E+01  0.40916823855E+02  0.12944568661E+03  0.41800000000E+01 0.  1.
</event>
<event>
11    1  0.8453735E-009  0.4740468E+03  0.7561462E-02  0.9453461E-01
         22   -1    0    0    0    0  0.00000000000E+00  0.00000000000E+00  0.14864388130E+03  0.14864388130E+03  0.00000000000E+00 0. -1.
         22   -1    0    0    0    0 -0.00000000000E+00 -0.00000000000E+00 -0.25905183414E+04  0.25905183414E+04  0.00000000000E+00 0.  1.
         24    2    1    2    0    0  0.20117741457E+02 -0.12242915845E+03 -0.10076533318E+04  0.10181429526E+04  0.76525895096E+02 0.  0.
         25    2    1    2    0    0  0.33193057180E+03 -0.23424066979E+03 -0.82471863268E+03  0.92782346269E+03  0.12509579905E+03 0.  0.
        -24    2    1    2    0    0 -0.35204831325E+03  0.35666982824E+03 -0.60950249566E+03  0.79319580738E+03  0.80715025849E+02 0.  0.
        -13    1    3    3    0    0  0.33129005727E+02 -0.26830081584E+02 -0.46759217574E+03  0.46953149746E+03  0.00000000000E+00 0.  1.
         14    1    3    3    0    0 -0.13011264271E+02 -0.95599076862E+02 -0.54006115602E+03  0.54861145516E+03  0.00000000000E+00 0. -1.
         13    1    5    5    0    0 -0.10017569542E+03  0.15200584755E+03 -0.19525036821E+03  0.26695253122E+03  0.00000000000E+00 0. -1.
        -14    1    5    5    0    0 -0.25187261784E+03  0.20466398069E+03 -0.41425212745E+03  0.52624327616E+03  0.00000000000E+00 0.  1.
          5    1    4    4  501    0  0.24814036528E+03 -0.16553833921E+03 -0.46805275203E+03  0.55503822725E+03  0.41800000000E+01 0. -1.
         -5    1    4    4    0  501  0.83790206517E+02 -0.68702330580E+02 -0.35666588065E+03  0.37278523544E+03  0.41800000000E+01 0. -1.
</event>
<event>
11    1  0.8453735E-009  0.1966342E+03  0.7561462E-02  0.1056930E+00
         22   -1    0    0    0    0  0.00000000000E+00  0.00000000000E+00  0.14153932629E+04  0.14153932629E+04  0.00000000000E+00 0.  1.
         22   -1    0    0    0    0 -0.00000000000E+00 -0.00000000000E+00 -0.18381453196E+04  0.18381453196E+04  0.00000000000E+00 0.  1.
        -24    2    1    2    0    0 -0.13902253020E+03 -0.55816518792E+02 -0.16700290669E+04  0.16786542668E+04  0.80251576482E+02 0.  0.
         25    2    1    2    0    0  0.17778013054E+03  0.56538248827E+02 -0.84686471326E+02  0.24004418087E+03  0.12508821666E+03 0.  0.
         24    2    1    2    0    0 -0.38757600339E+02 -0.72173003575E+00  0.13319634814E+04  0.13348401348E+04  0.78541690709E+02 0.  0.
        -13    1    5    5    0    0 -0.39347233822E+02  0.41993319847E+01  0.13277368542E+04  0.13283263881E+04  0.00000000000E+00 0.  1.
         14    1    5    5    0    0  0.58963348299E+00 -0.49210620205E+01  0.42266272048E+01  0.65137467392E+01  0.00000000000E+00 0. -1.
         13    1    3    3    0    0 -0.47986451356E+02 -0.30752998785E+02 -0.29940193010E+03  0.30477854615E+03  0.00000000000E+00 0. -1.
        -14    1    3    3    0    0 -0.91036078844E+02 -0.25063520006E+02 -0.13706271368E+04  0.13738757206E+04  0.00000000000E+00 0.  1.
          5    1    4    4  501    0  0.17601358872E+03  0.11712704084E+02 -0.82895036286E+02  0.19495391838E+03  0.41800000000E+01 0.  1.
         -5    1    4    4    0  501  0.17665418187E+01  0.44825544744E+02 -0.17914350395E+01  0.45090262486E+02  0.41800000000E+01 0.  1.
</event>
<event>
11    1  0.8453735E-009  0.1822750E+03  0.7561462E-02  0.1067817E+00
         22   -1    0    0    0    0  0.00000000000E+00  0.00000000000E+00  0.11297331668E+04  0.11297331668E+04  0.00000000000E+00 0. -1.
         22   -1    0    0    0    0 -0.00000000000E+00 -0.00000000000E+00 -0.66213864546E+03  0.66213864546E+03  0.00000000000E+00 0.  1.
         24    2    1    2    0    0 -0.10235301953E+03 -0.80822418307E+02 -0.55518785399E+03  0.57585165764E+03  0.79769508504E+02 0.  0.
         25    2    1    2    0    0  0.12160591772E+03  0.95030744658E+02  0.93529402960E+01  0.19888262150E+03  0.12509187818E+03 0.  0.
        -24    2    1    2    0    0 -0.19252898185E+02 -0.14208326351E+02  0.10134294351E+04  0.10171375331E+04  0.83408577854E+02 0.  0.
        -11    1    3    3    0    0 -0.53671468526E+02 -0.87667166056E+02 -0.34476527353E+03  0.35976277235E+03  0.00000000000E+00 0.  1.
         12    1    3    3    0    0 -0.48681551008E+02  0.68447477491E+01 -0.21042258045E+03  0.21608888529E+03  0.00000000000E+00 0. -1.
         11    1    5    5    0    0 -0.20935723516E+02 -0.44026350931E+02  0.81673674009E+03  0.81819039759E+03  0.00000000000E+00 0. -1.
        -12    1    5    5    0    0  0.16828253310E+01  0.29818024580E+02  0.19669269497E+03  0.19894713556E+03  0.00000000000E+00 0.  1.
          5    1    4    4  501    0  0.14426348956E+03  0.85875359907E+02  0.24666386326E+02  0.16974226013E+03  0.41800000000E+01 0. -1.
         -5    1    4    4    0  501 -0.22657571838E+02  0.91553847510E+01 -0.15313446030E+02  0.29140361372E+02  0.41800000000E+01 0. -1.
</event>
<event>
11    1  0.8453735E-009  0.1550552E+03  0.7561462E-02  0.1091822E+00
         22   -1    0    0    0    0  0.00000000000E+00  0.00000000000E+00  0.18453216823E+03  0.18453216823E+03  0.00000000000E+00 0. -1.
         22   -1    0    0    0    0 -0.00000000000E+00 -0.00000000000E+00 -0.25294273905E+04  0.25294273905E+04  0.00000000000E+00 0.  1.
         24    2    1    2    0    0  0.21966975596E+02  0.47636477348E+02 -0.23741386121E+04  0.23761371818E+04  0.82109532031E+02 0.  0.
         25    2    1    2    0    0  0.65131167837E+02 -0.77567823171E+02 -0.75083131812E+02  0.17760281678E+03  0.12508576110E+03 0.  0.
        -24    2    1    2    0    0 -0.87098143433E+02  0.29931345823E+02  0.10432652156E+03  0.16021956024E+03  0.79399699809E+02 0.  0.
        -13    1    3    3    0    0  0.54803281778E+01  0.53536517745E+02 -0.22619625693E+04  0.22626026734E+04  0.00000000000E+00 0.  1.
         14    1    3    3    0    0  0.16486647418E+02 -0.59000403966E+01 -0.11217604281E+03  0.11353450841E+03  0.00000000000E+00 0. -1.
         13    1    5    5    0    0 -0.98138727399E+02  0.40316979823E+02  0.95059909321E+02  0.14245369436E+03  0.00000000000E+00 0. -1.
        -14    1    5    5    0    0  0.11040583967E+02 -0.10385634000E+02  0.92666122441E+01  0.17765865878E+02  0.00000000000E+00 0.  1.
          5    1    4    4  501    0  0.72408583057E+02 -0.10396891452E+03 -0.79377993906E+02  0.14956896872E+03  0.41800000000E+01 0.  1.
         -5    1    4    4    0  501 -0.72774152198E+01  0.26401091349E+02  0.42948620938E+01  0.28033848061E+02  0.41800000000E+01 0.  1.
</event>
<event>
11    1  0.8453735E-009  0.1496334E+03  0.7561462E-02  0.1097254E+00
         22   -1    0    0    0    0  0.00000000000E+00  0.00000000000E+00  0.56555206022E+03  0.56555206022E+03  0.00000000000E+00 0. -1.
         22   -1    0    0    0    0 -0.00000000000E+00 -0.00000000000E+00 -0.18408522277E+03  0.18408522277E+03  0.00000000000E+00 0.  1.
         24    2    1    2    0    0  0.13353315331E+02  0.97199124777E+01 -0.11508944845E+03  0.14160263446E+03  0.80826587293E+02 0.  0.
         25    2    1    2    0    0 -0.88683566202E+02 -0.36611516643E+02  0.80468584840E+02  0.17699691549E+03  0.12509011504E+03 0.  0.
        -24    2    1    2    0    0  0.75330250871E+02  0.26891604166E+02  0.41608770106E+03  0.43103773304E+03  0.79162789609E+02 0.  0.
        -13    1    3    3    0    0  0.22631471927E+02 -0.32082399290E+02 -0.62167808044E+02  0.73527547374E+02  0.00000000000E+00 0.  1.
         14    1    3    3    0    0 -0.92781565960E+01  0.41802311768E+02 -0.52921640405E+02  0.68075087088E+02  0.00000000000E+00 0. -1.
         11    1    5    5    0    0  0.37410352283E+01  0.20406507312E+02  0.23926153791E+03  0.24015933130E+03  0.00000000000E+00 0. -1.
        -12    1    5    5    0    0  0.71589215643E+02  0.64850968541E+01  0.17682616315E+03  0.19087840174E+03  0.00000000000E+00 0.  1.
          5    1    4    4  501    0  0.13859019670E+02  0.73931984333E+01  0.61651766618E+02  0.63758485995E+02  0.41800000000E+01 0. -1.
         -5    1    4    4    0  501 -0.10254258587E+03 -0.44004715077E+02  0.18816818222E+02  0.11323842949E+03  0.41800000000E+01 0. -1.
</event>
<event>
11    1  0.8453735E-009  0.1367331E+03  0.7561462E-02  0.1111262E+00
         22   -1    0    0    0    0  0.00000000000E+00  0.00000000000E+00  0.16854621132E+03  0.16854621132E+03  0.00000000000E+00 0.  1.
         22   -1    0    0    0    0 -0.00000000000E+00 -0.00000000000E+00 -0.35456647234E+03  0.35456647234E+03  0.00000000000E+00 0. -1.
        -24    2    1    2    0    0  0.45692282385E+00  0.70858617982E+01 -0.24400602184E+03  0.25744430228E+03  0.81781488539E+02 0.  0.
         25    2    1    2    0    0  0.51080190031E+02 -0.25661590072E+02 -0.23753692325E+02  0.13956454943E+03  0.12508526108E+03 0.  0.
         24    2    1    2    0    0 -0.51537112854E+02  0.18575728274E+02  0.81739453147E+02  0.12610383195E+03  0.78865116180E+02 0.  0.
        -11    1    5    5    0    0 -0.70831088883E+02  0.25831004406E+02  0.65183287970E+02  0.99665164283E+02  0.00000000000E+00 0.  1.
         12    1    5    5    0    0  0.19293976029E+02 -0.72552761324E+01  0.16556165177E+02  0.26438667670E+02  0.00000000000E+00 0. -1.
         13    1    3    3    0    0 -0.22809189482E+02 -0.30180684492E+02 -0.12439528555E+03  0.13002045958E+03  0.00000000000E+00 0. -1.
        -14    1    3    3    0    0  0.23266112306E+02  0.37266546291E+02 -0.11961073629E+03  0.12742384270E+03  0.00000000000E+00 0.  1.
          5    1    4    4  501    0  0.27472598671E+02 -0.74753496943E+02  0.58835884688E+00  0.79753667935E+02  0.41800000000E+01 0. -1.
         -5    1    4    4    0  501  0.23607591359E+02  0.49091906871E+02 -0.24342051172E+02  0.59810881495E+02  0.41800000000E+01 0. -1.
</event>
<event>
11    1  0.8453735E-009  0.1498297E+03  0.7561462E-02  0.1097053E+00
         22   -1    0    0    0    0  0.00000000000E+00  0.00000000000E+00  0.36827487638E+03  0.36827487638E+03  0.00000000000E+00 0.  1.
         22   -1    0    0    0    0 -0.00000000000E+00 -0.00000000000E+00 -0.26376223177E+03  0.26376223177E+03  0.00000000000E+00 0.  1.
         24    2    1    2    0    0 -0.19700149225E+02  0.25390301018E+02 -0.12240513928E+03  0.15066842196E+03  0.81763023354E+02 0.  0.
         25    2    1    2    0    0  0.17500253191E+02 -0.10565250861E+03 -0.57793682485E+02  0.17451638596E+03  0.12508855982E+03 0.  0.
        -24    2    1    2    0    0  0.21998960337E+01  0.80262207589E+02  0.28471146638E+03  0.30685230023E+03  0.81552765517E+02 0.  0.
        -11    1    3    3    0    0 -0.11600467368E+02  0.46065868020E+02 -0.11909245531E+03  0.12821719054E+03  0.00000000000E+00 0.  1.
         12    1    3    3    0    0 -0.80996818570E+01 -0.20675567002E+02 -0.33126839748E+01  0.22451231417E+02  0.00000000000E+00 0. -1.
         13    1    5    5    0    0  0.48701473770E+01 -0.16204780938E+02  0.58938390656E+02  0.61319223363E+02  0.00000000000E+00 0. -1.
        -14    1    5    5    0    0 -0.26702513432E+01  0.96466988527E+02  0.22577307572E+03  0.24553307687E+03  0.00000000000E+00 0.  1.
          5    1    4    4  501    0  0.63027210368E+02 -0.24661113149E+02 -0.43129819156E+02  0.80363259323E+02  0.41800000000E+01 0. -1.
         -5    1    4    4    0  501 -0.45526957177E+02 -0.80991395457E+02 -0.14663863329E+02  0.94153126638E+02  0.41800000000E+01 0. -1.
</event>
<event>
11    1  0.8453735E-009  0.1374431E+03  0.7561462E-02  0.1110448E+00
         22   -1    0    0    0    0  0.00000000000E+00  0.00000000000E+00  0.54985745085E+03  0.54985745085E+03  0.00000000000E+00 0. -1.
         22   -1    0    0    0    0 -0.00000000000E+00 -0.00000000000E+00 -0.37956648654E+03  0.37956648654E+03  0.00000000000E+00 0.  1.
         24    2    1    2    0    0 -0.73844105490E+01 -0.31892624277E+01 -0.34274390551E+03  0.35199840140E+03  0.79779627173E+02 0.  0.
         25    2    1    2    0    0  0.40592311722E+02 -0.42622365977E+02  0.15871541315E+03  0.21048220280E+03  0.12509106072E+03 0.  0.
        -24    2    1    2    0    0 -0.33207901173E+02  0.45811628405E+02  0.35431945667E+03  0.36694333319E+03  0.76835293983E+02 0.  0.
        -11    1    3    3    0    0 -0.27489232386E+02  0.14805276934E+01 -0.32039928285E+03  0.32157977285E+03  0.00000000000E+00 0.  1.
         12    1    3    3    0    0  0.20104821837E+02 -0.46697901211E+01 -0.22344622662E+02  0.30418628549E+02  0.00000000000E+00 0. -1.
         13    1    5    5    0    0 -0.31623553451E+02  0.54377894741E+02  0.35246791123E+03  0.35803719502E+03  0.00000000000E+00 0. -1.
        -14    1    5    5    0    0 -0.15843477222E+01 -0.85662663363E+01  0.18515454394E+01  0.89061381734E+01  0.00000000000E+00 0.  1.
          5    1    4    4  501    0  0.71069499132E+02 -0.66480973619E+02  0.96664741976E+02  0.13723023829E+03  0.41800000000E+01 0.  1.
         -5    1    4    4    0  501 -0.30477187410E+02  0.23858607642E+02  0.62050671171E+02  0.73251964505E+02  0.41800000000E+01 0.  1.
</event>
<event>
11    1  0.8453735E-009  0.1508796E+03  0.7561462E-02  0.1095983E+00
         22   -1    0    0    0    0  0.00000000000E+00  0.00000000000E+00  0.40916354564E+03  0.40916354564E+03  0.00000000000E+00 0. -1.
         22   -1    0    0    0    0 -0.00000000000E+00 -0.00000000000E+00 -0.26105614555E+03  0.26105614555E+03  0.00000000000E+00 0. -1.
        -24    2    1    2    0    0  0.84566382163E+02  0.15847233469E+02 -0.16069247749E+03  0.19900343270E+03  0.79860416373E+02 0.  0.
         25    2    1    2    0    0 -0.58614394296E+02 -0.78279040892E+02  0.15164473136E+02  0.15950221577E+03  0.12509092744E+03 0.  0.
         24    2    1    2    0    0 -0.25951987867E+02  0.62431807423E+02  0.29363540444E+03  0.31171404272E+03  0.79828926064E+02 0.  0.
        -11    1    5    5    0    0 -0.36464134250E+02  0.15305842276E+02  0.22089465772E+03  0.22440666591E+03  0.00000000000E+00 0.  1.
         12    1    5    5    0    0  0.10512146383E+02  0.47125965147E+02  0.72740746716E+02  0.87307376810E+02  0.00000000000E+00 0. -1.
         11    1    3    3    0    0  0.91739957361E+02  0.23063286399E+02 -0.10072874880E+03  0.13818254518E+03  0.00000000000E+00 0. -1.
        -12    1    3    3    0    0 -0.71735751975E+01 -0.72160529305E+01 -0.59963728684E+02  0.60820887520E+02  0.00000000000E+00 0.  1.
          5    1    4    4  501    0 -0.30459720182E+02  0.32101580862E+02  0.89480320499E+01  0.45341434968E+02  0.41800000000E+01 0.  1.
         -5    1    4    4    0  501 -0.28154674114E+02 -0.11038062175E+03  0.62164410862E+01  0.11416078080E+03  0.41800000000E+01 0.  1.
</event>
<event>
11    1  0.8453735E-009  0.2719152E+03  0.7561462E-02  0.1012832E+00
         22   -1    0    0    0    0  0.00000000000E+00  0.00000000000E+00  0.91084558158E+03  0.91084558158E+03  0.00000000000E+00 0. -1.
         22   -1    0    0    0    0 -0.00000000000E+00 -0.00000000000E+00 -0.26519859935E+03  0.26519859935E+03  0.00000000000E+00 0.  1.
         24    2    1    2    0    0 -0.46206271194E+01  0.16637318975E+02 -0.15224483995E+03  0.17254649186E+03  0.79345132087E+02 0.  0.
         25    2    1    2    0    0 -0.13512635867E+03  0.18498783570E+03  0.13931274748E+03  0.29586392258E+03  0.12509111442E+03 0.  0.
        -24    2    1    2    0    0  0.13974698578E+03 -0.20162515468E+03  0.65857907469E+03  0.70763376649E+03  0.82687525205E+02 0.  0.
        -11    1    3    3    0    0  0.16781262016E+02 -0.10585022864E+02 -0.12973930570E+03  0.13124763200E+03  0.00000000000E+00 0.  1.
         12    1    3    3    0    0 -0.21401889136E+02  0.27222341839E+02 -0.22505534250E+02  0.41298859859E+02  0.00000000000E+00 0. -1.
         13    1    5    5    0    0  0.93893268319E+02 -0.15270480552E+03  0.56323319669E+03  0.59107219299E+03  0.00000000000E+00 0. -1.
        -14    1    5    5    0    0  0.45853717466E+02 -0.48920349154E+02  0.95345877997E+02  0.11656157350E+03  0.00000000000E+00 0.  1.
          5    1    4    4  501    0 -0.12935624432E+03  0.12618434985E+03  0.15095105513E+03  0.23549781641E+03  0.41800000000E+01 0.  1.
         -5    1    4    4    0  501 -0.57701143486E+01  0.58803485853E+02 -0.11638307652E+02  0.60366106161E+02  0.41800000000E+01 0.  1.
</event>
<event>
11    1  0.8453735E-009  0.1495093E+03  0.7561462E-02  0.1097381E+00
         22   -1    0    0    0    0  0.00000000000E+00  0.00000000000E+00  0.46749757842E+03  0.46749757842E+03  0.00000000000E+00 0. -1.
         22   -1    0    0    0    0 -0.00000000000E+00 -0.00000000000E+00 -0.22408396819E+03  0.22408396819E+03  0.00000000000E+00 0. -1.
        -24    2    1    2    0    0  0.43249393331E+01 -0.28264790958E+02 -0.43007218118E+02  0.95058413644E+02  0.79805248487E+02 0.  0.
         25    2    1    2    0    0  0.71253686084E+02  0.58815199566E+02 -0.10563318123E+03  0.18799716343E+03  0.12509296143E+03 0.  0.
         24    2    1    2    0    0 -0.75578625417E+02 -0.30550408608E+02  0.39205400957E+03  0.40852596954E+03  0.80880561828E+02 0.  0.
        -11    1    5    5    0    0 -0.42061595501E+01 -0.40237241540E+02  0.10369583127E+03  0.11130836810E+03  0.00000000000E+00 0.  1.
         12    1    5    5    0    0 -0.71372465867E+02  0.96868329325E+01  0.28835817830E+03  0.29721760144E+03  0.00000000000E+00 0. -1.
         13    1    3    3    0    0  0.29435846584E+02 -0.44067583551E+02 -0.37402080875E+02  0.64863985677E+02  0.00000000000E+00 0. -1.
        -14    1    3    3    0    0 -0.25110907251E+02  0.15802792593E+02 -0.56051372427E+01  0.30194427966E+02  0.00000000000E+00 0.  1.
          5    1    4    4  501    0  0.46830883399E+02  0.97862701876E+02 -0.65744325502E+02  0.12692528824E+03  0.41800000000E+01 0.  1.
         -5    1    4    4    0  501  0.24422802685E+02 -0.39047502310E+02 -0.39888855730E+02  0.61071875189E+02  0.41800000000E+01 0.  1.
</event>
<event>
11    1  0.8453735E-009  0.1527964E+03  0.7561462E-02  0.1094055E+00
         22   -1    0    0    0    0  0.00000000000E+00  0.00000000000E+00  0.20915962712E+04  0.20915962712E+04  0.00000000000E+00 0.  1.
         22   -1    0    0    0    0 -0.00000000000E+00 -0.00000000000E+00 -0.70561489297E+02  0.70561489297E+02  0.00000000000E+00 0.  1.
        -24    2    1    2    0    0  0.57389379652E+02 -0.62019306099E+02  0.40310837396E+01  0.11398438409E+03  0.76395385686E+02 0.  0.
         25    2    1    2    0    0 -0.89447438258E+02  0.74849892250E+02  0.49544579212E+03  0.52413456534E+03  0.12508860490E+03 0.  0.
         24    2    1    2    0    0  0.32058058606E+02 -0.12830586150E+02  0.15215579061E+04  0.15240388111E+04  0.79771505734E+02 0.  0.
        -11    1    5    5    0    0 -0.62147927972E+01  0.15668801308E+02  0.10369985297E+04  0.10371355194E+04  0.00000000000E+00 0.  1.
         12    1    5    5    0    0  0.38272851403E+02 -0.28499387459E+02  0.48455937635E+03  0.48690329168E+03  0.00000000000E+00 0. -1.
         11    1    3    3    0    0 -0.15687588874E+00  0.90733122522E+01 -0.17774171757E+02  0.19956722850E+02  0.00000000000E+00 0. -1.
        -12    1    3    3    0    0  0.57546255541E+02 -0.71092618352E+02  0.21805255496E+02  0.94027661239E+02  0.00000000000E+00 0.  1.
          5    1    4    4  501    0 -0.48463864066E+02 -0.30836198218E+02  0.16811911863E+03  0.17771079790E+03  0.41800000000E+01 0. -1.
         -5    1    4    4    0  501 -0.40983574192E+02  0.10568609047E+03  0.32732667349E+03  0.34642376744E+03  0.41800000000E+01 0. -1.
</event>
<event>
11    1  0.8453735E-009  0.1572517E+03  0.7561462E-02  0.1089691E+00
         22   -1    0    0    0    0  0.00000000000E+00  0.00000000000E+00  0.23107250464E+03  0.23107250464E+03  0.00000000000E+00 0. -1.
         22   -1    0    0    0    0 -0.00000000000E+00 -0.00000000000E+00 -0.13676080406E+04  0.13676080406E+04  0.00000000000E+00 0. -1.
        -24    2    1    2    0    0  0.59884149366E+02 -0.70564241058E+02 -0.11641248776E+04  0.11709107408E+04  0.85321796677E+02 0.  0.
         25    2    1    2    0    0 -0.11641841098E+03  0.74684316436E+02 -0.14142449933E+03  0.23404634093E+03  0.12508320094E+03 0.  0.
         24    2    1    2    0    0  0.56534261617E+02 -0.41200753773E+01  0.16901384094E+03  0.19372346346E+03  0.75828781531E+02 0.  0.
        -13    1    5    5    0    0 -0.13206652814E+02  0.32801874118E+01  0.76128415379E+02  0.77335056321E+02  0.00000000000E+00 0.  1.
         14    1    5    5    0    0  0.69740914431E+02 -0.74002627890E+01  0.92885425559E+02  0.11638840714E+03  0.00000000000E+00 0. -1.
         13    1    3    3    0    0  0.23683162208E+02 -0.66388988873E+02 -0.41838470113E+03  0.42428074214E+03  0.00000000000E+00 0. -1.
        -14    1    3    3    0    0  0.36200987158E+02 -0.41752521853E+01 -0.74574017644E+03  0.74662999870E+03  0.00000000000E+00 0.  1.
          5    1    4    4  501    0  0.80381660558E+01 -0.24097124610E+02 -0.32017217558E+02  0.41083550822E+02  0.41800000000E+01 0.  1.
         -5    1    4    4    0  501 -0.12445657704E+03  0.98781441045E+02 -0.10940728177E+03  0.19296279011E+03  0.41800000000E+01 0.  1.
</event>
<event>
11    1  0.8453735E-009  0.2595414E+03  0.7561462E-02  0.1018936E+00
         22   -1    0    0    0    0  0.00000000000E+00  0.00000000000E+00  0.13697201275E+03  0.13697201275E+03  0.00000000000E+00 0.  1.
         22   -1    0    0    0    0 -0.00000000000E+00 -0.00000000000E+00 -0.26732228534E+04  0.26732228534E+04  0.00000000000E+00 0. -1.
         24    2    1    2    0    0 -0.32507021903E+02 -0.71126623968E+02 -0.19498745253E+04  0.19531396328E+04  0.81412884789E+02 0.  0.
         25    2    1    2    0    0  0.25345439072E+03  0.66875172051E+02 -0.54645822224E+03  0.61885020014E+03  0.12509022640E+03 0.  0.
        -24    2    1    2    0    0 -0.22094736882E+03  0.42514519171E+01 -0.39918093112E+02  0.23820503318E+03  0.79450418766E+02 0.  0.
        -11    1    3    3    0    0  0.16240441190E+02 -0.30366593572E+02 -0.28812086685E+03  0.29017152832E+03  0.00000000000E+00 0.  1.
         12    1    3    3    0    0 -0.48747463093E+02 -0.40760030395E+02 -0.16617536584E+04  0.16629681045E+04  0.00000000000E+00 0. -1.
         13    1    5    5    0    0 -0.15068746138E+03 -0.16396313667E+02 -0.58794517786E+02  0.16258027384E+03  0.00000000000E+00 0. -1.
        -14    1    5    5    0    0 -0.70259907441E+02  0.20647765584E+02  0.18876424674E+02  0.75624759343E+02  0.00000000000E+00 0.  1.
          5    1    4    4  501    0  0.24513509429E+03  0.91357761176E+02 -0.46847050736E+03  0.53658134858E+03  0.41800000000E+01 0. -1.
         -5    1    4    4    0  501  0.83192964293E+01 -0.24482589125E+02 -0.77987714882E+02  0.82268851553E+02  0.41800000000E+01 0. -1.
</event>
<event>
11    1  0.8453735E-009  0.1464546E+03  0.7561462E-02  0.1100558E+00
         22   -1    0    0    0    0  0.00000000000E+00  0.00000000000E+00  0.75573521344E+02  0.75573521344E+02  0.00000000000E+00 0.  1.
         22   -1    0    0    0    0 -0.00000000000E+00 -0.00000000000E+00 -0.10863847866E+04  0.10863847866E+04  0.00000000000E+00 0.  1.
        -24    2    1    2    0    0  0.12349902627E+01 -0.25667750297E+02 -0.65453306047E+03  0.65931447079E+03  0.74977900366E+02 0.  0.
         25    2    1    2    0    0 -0.74604518595E+02  0.42463588377E+02 -0.36190640819E+03  0.39241831660E+03  0.12508755486E+03 0.  0.
         24    2    1    2    0    0  0.73369528332E+02 -0.16795838080E+02  0.56282033883E+01  0.11022552057E+03  0.80329327438E+02 0.  0.
        -11    1    5    5    0    0  0.74494484243E+02 -0.33552603229E+02  0.24176233443E+02  0.85203847504E+02  0.00000000000E+00 0.  1.
         12    1    5    5    0    0 -0.11249559106E+01  0.16756765148E+02 -0.18548030054E+02  0.25021673064E+02  0.00000000000E+00 0. -1.
         13    1    3    3    0    0 -0.35141532779E+02 -0.12577645678E+02 -0.22821467747E+03  0.23124675892E+03  0.00000000000E+00 0. -1.
        -14    1    3    3    0    0  0.36376523042E+02 -0.13090104619E+02 -0.42631838300E+03  0.42806771187E+03  0.00000000000E+00 0.  1.
          5    1    4    4  501    0 -0.67929953428E+02 -0.19156363184E+02 -0.28456988439E+03  0.29322165050E+03  0.41800000000E+01 0. -1.
         -5    1    4    4    0  501 -0.66745651667E+01  0.61619951562E+02 -0.77336523808E+02  0.99196666100E+02  0.41800000000E+01 0. -1.
</event>
<event>
11    1  0.8453735E-009  0.2914618E+03  0.7561462E-02  0.1003871E+00
         22   -1    0    0    0    0  0.00000000000E+00  0.00000000000E+00  0.80555552778E+03  0.80555552778E+03  0.00000000000E+00 0.  1.
         22   -1    0    0    0    0 -0.00000000000E+00 -0.00000000000E+00 -0.47915758939E+03  0.47915758939E+03  0.00000000000E+00 0. -1.
         24    2    1    2    0    0 -0.21323059734E+03 -0.12658511015E+03 -0.28351373489E+03  0.38506384613E+03  0.80019060049E+02 0.  0.
         25    2    1    2    0    0  0.30527786710E+03  0.13740045697E+03  0.94535386064E+02  0.36966889763E+03  0.12507874696E+03 0.  0.
        -24    2    1    2    0    0 -0.92047269763E+02 -0.10815346813E+02  0.51537628722E+03  0.52998037341E+03  0.81711732162E+02 0.  0.
        -11    1    3    3    0    0 -0.54002978546E+02 -0.11234252045E+02 -0.25758576346E+02  0.60877207280E+02  0.00000000000E+00 0.  1.
         12    1    3    3    0    0 -0.15922761879E+03 -0.11535085811E+03 -0.25775515855E+03  0.32418663885E+03  0.00000000000E+00 0. -1.
         13    1    5    5    0    0 -0.94663788018E+02 -0.20599804751E+01  0.30395311562E+03  0.31835981652E+03  0.00000000000E+00 0. -1.
        -14    1    5    5    0    0  0.26165182552E+01 -0.87553663377E+01  0.21142317160E+03  0.21162055688E+03  0.00000000000E+00 0.  1.
          5    1    4    4  501    0  0.68455941768E+02 -0.11936953601E+01 -0.21257925752E+02  0.71812343502E+02  0.41800000000E+01 0.  1.
         -5    1    4    4    0  501  0.23682192533E+03  0.13859415233E+03  0.11579331182E+03  0.29785655413E+03  0.41800000000E+01 0.  1.
</event>
<event>
11    1  0.8453735E-009  0.1435032E+03  0.7561462E-02  0.1103708E+00
         22   -1    0    0    0    0  0.00000000000E+00  0.00000000000E+00  0.13737376140E+04  0.13737376140E+04  0.00000000000E+00 0.  1.
         22   -1    0    0    0    0 -0.00000000000E+00 -0.00000000000E+00 -0.35287379319E+03  0.35287379319E+03  0.00000000000E+00 0. -1.
        -24    2    1    2    0    0 -0.54814339262E+02 -0.44687754072E+02 -0.32558074864E+03  0.34186033066E+03  0.76577115638E+02 0.  0.
         25    2    1    2    0    0  0.50647271614E+02  0.28082860134E+02  0.25324233524E+03  0.28832866930E+03  0.12509175843E+03 0.  0.
         24    2    1    2    0    0  0.41670676482E+01  0.16604893937E+02  0.10932022342E+04  0.10964224073E+04  0.82206345458E+02 0.  0.
        -11    1    5    5    0    0  0.95175242769E+01  0.22106353754E+02  0.10847076612E+04  0.10849746469E+04  0.00000000000E+00 0.  1.
         12    1    5    5    0    0 -0.53504566288E+01 -0.55014598169E+01  0.84945730616E+01  0.11447760381E+02  0.00000000000E+00 0. -1.
         11    1    3    3    0    0  0.66281442404E+01 -0.41988180155E+02 -0.12206783827E+03  0.12925748222E+03  0.00000000000E+00 0. -1.
        -12    1    3    3    0    0 -0.61442483502E+02 -0.26995739171E+01 -0.20351291037E+03  0.21260284845E+03  0.00000000000E+00 0.  1.
          5    1    4    4  501    0  0.78981496699E+02 -0.19170608770E+02  0.13170382146E+03  0.15481911396E+03  0.41800000000E+01 0.  1.
         -5    1    4    4    0  501 -0.28334225085E+02  0.47253468904E+02  0.12153851378E+03  0.13350955534E+03  0.41800000000E+01 0.  1.
</event>
<event>
11    1  0.8453735E-009  0.1584013E+03  0.7561462E-02  0.1088591E+00
         22   -1    0    0    0    0  0.00000000000E+00  0.00000000000E+00  0.13989876826E+04  0.13989876826E+04  0.00000000000E+00 0. -1.
         22   -1    0    0    0    0 -0.00000000000E+00 -0.00000000000E+00 -0.18434971927E+03  0.18434971927E+03  0.00000000000E+00 0.  1.
         24    2    1    2    0    0 -0.40133569192E+02  0.24931886177E+01 -0.14442705519E+03  0.16969671322E+03  0.79503967449E+02 0.  0.
         25    2    1    2    0    0  0.67215200687E+02  0.89464114895E+02  0.27353763762E+03  0.32092358739E+03  0.12508956267E+03 0.  0.
        -24    2    1    2    0    0 -0.27081631495E+02 -0.91957303513E+02  0.10855273809E+04  0.10927171012E+04  0.80445063792E+02 0.  0.
        -11    1    3    3    0    0 -0.14128036682E+01  0.35963761406E+02 -0.77434772653E+02  0.85390468815E+02  0.00000000000E+00 0.  1.
         12    1    3    3    0    0 -0.38720765523E+02 -0.33470572788E+02 -0.66992282537E+02  0.84306244401E+02  0.00000000000E+00 0. -1.
         13    1    5    5    0    0 -0.35085665943E+02 -0.96224908438E+02  0.10687342345E+04  0.10736308029E+04  0.00000000000E+00 0. -1.
        -14    1    5    5    0    0  0.80040344471E+01  0.42676049255E+01  0.16793146417E+02  0.19086298379E+02  0.00000000000E+00 0.  1.
          5    1    4    4  501    0 -0.30860157719E+02  0.43891255121E+02  0.13349531491E+03  0.14393492666E+03  0.41800000000E+01 0. -1.
         -5    1    4    4    0  501  0.98075358406E+02  0.45572859774E+02  0.14004232272E+03  0.17698866073E+03  0.41800000000E+01 0. -1.
</event>
<event>
11    1  0.8453735E-009  0.1364634E+03  0.7561462E-02  0.1111573E+00
         22   -1    0    0    0    0  0.00000000000E+00  0.00000000000E+00  0.21574696943E+04  0.21574696943E+04  0.00000000000E+00 0.  1.
         22   -1    0    0    0    0 -0.00000000000E+00 -0.00000000000E+00 -0.75546545061E+02  0.75546545061E+02  0.00000000000E+00 0. -1.
         24    2    1    2    0    0 -0.41667034626E+02  0.40405671597E+02 -0.19600586571E+02  0.10130842723E+03  0.80687386639E+02 0.  0.
         25    2    1    2    0    0 -0.11266070099E+02 -0.47318093315E+02  0.31382732900E+03  0.34131975589E+03  0.12508260091E+03 0.  0.
        -24    2    1    2    0    0  0.52933104725E+02  0.69124217184E+01  0.17876964068E+04  0.17903880562E+04  0.82348368639E+02 0.  0.
        -11    1    3    3    0    0 -0.24725213578E+02 -0.18252364297E+02 -0.25546652794E+02  0.39963939469E+02  0.00000000000E+00 0.  1.
         12    1    3    3    0    0 -0.16941821049E+02  0.58658035894E+02  0.59460662233E+01  0.61344487763E+02  0.00000000000E+00 0. -1.
         11    1    5    5    0    0  0.48830955012E+02 -0.17462451253E+02  0.54873157312E+03  0.55117668557E+03  0.00000000000E+00 0. -1.
        -12    1    5    5    0    0  0.41021497129E+01  0.24374872971E+02  0.12389648337E+04  0.12392113706E+04  0.00000000000E+00 0.  1.
          5    1    4    4  501    0 -0.45096186841E+02 -0.67735351992E+02  0.13138163163E+03  0.15459737872E+03  0.41800000000E+01 0. -1.
         -5    1    4    4    0  501  0.33830116742E+02  0.20417258678E+02  0.18244569737E+03  0.18672237718E+03  0.41800000000E+01 0. -1.
</event>
<event>
11    1  0.8453735E-009  0.1568576E+03  0.7561462E-02  0.1090071E+00
         22   -1    0    0    0    0  0.00000000000E+00  0.00000000000E+00  0.12859124340E+04  0.12859124340E+04  0.00000000000E+00 0. -1.
         22   -1    0    0    0    0 -0.00000000000E+00 -0.00000000000E+00 -0.95960798766E+02  0.95960798766E+02  0.00000000000E+00 0.  1.
        -24    2    1    2    0    0  0.22555109760E+01 -0.94259778797E+02 -0.21063671006E+02  0.12494832611E+03  0.79236435641E+02 0.  0.
         25    2    1    2    0    0  0.19301979896E+02  0.96799521604E+02  0.27992437913E+03  0.32209986233E+03  0.12509176421E+03 0.  0.
         24    2    1    2    0    0 -0.21557490872E+02 -0.25397428071E+01  0.93109092715E+03  0.93482504436E+03  0.80600082127E+02 0.  0.
        -11    1    5    5    0    0  0.56384087869E+01 -0.23944040408E+02  0.98847950713E+02  0.10186278067E+03  0.00000000000E+00 0.  1.
         12    1    5    5    0    0 -0.27195899659E+02  0.21404297600E+02  0.83224297644E+03  0.83296226369E+03  0.00000000000E+00 0. -1.
         13    1    3    3    0    0 -0.10401608802E+02  0.31124687601E+01  0.16554730552E+02  0.19797475372E+02  0.00000000000E+00 0. -1.
        -14    1    3    3    0    0  0.12657119778E+02 -0.97372247557E+02 -0.37618401558E+02  0.10515085074E+03  0.00000000000E+00 0.  1.
          5    1    4    4  501    0  0.44816659193E+02  0.32699254318E+02  0.30855446368E+02  0.63618434001E+02  0.41800000000E+01 0.  1.
         -5    1    4    4    0  501 -0.25514679297E+02  0.64100267287E+02  0.24906893276E+03  0.25848142833E+03  0.41800000000E+01 0.  1.
</event>
<event>
11    1  0.8453735E-009  0.2885567E+03  0.7561462E-02  0.1005154E+00
         22   -1    0    0    0    0  0.00000000000E+00  0.00000000000E+00  0.13832790776E+03  0.13832790776E+03  0.00000000000E+00 0.  1.
         22   -1    0    0    0    0 -0.00000000000E+00 -0.00000000000E+00 -0.20134748615E+04  0.20134748615E+04  0.00000000000E+00 0.  1.
        -24    2    1    2    0    0 -0.27204188187E+02  0.40358862981E+01 -0.33084252124E+03  0.34166746666E+03  0.80768358145E+02 0.  0.
         25    2    1    2    0    0  0.44936852188E+02 -0.26290194165E+03 -0.15075220021E+04  0.15360366821E+04  0.12509736407E+03 0.  0.
         24    2    1    2    0    0 -0.17732664001E+02  0.25886605535E+03 -0.36782430479E+02  0.27409862054E+03  0.80318270670E+02 0.  0.
        -11    1    5    5    0    0  0.10911737778E+02  0.16680068243E+03 -0.55002069198E+02  0.17597375173E+03  0.00000000000E+00 0.  1.
         12    1    5    5    0    0 -0.28644401779E+02  0.92065372919E+02  0.18219638719E+02  0.98124868810E+02  0.00000000000E+00 0. -1.
         11    1    3    3    0    0 -0.25502803053E+02 -0.11820385672E+02 -0.32792013360E+02  0.43190631174E+02  0.00000000000E+00 0. -1.
        -12    1    3    3    0    0 -0.17013851349E+01  0.15856271970E+02 -0.29805050788E+03  0.29847683548E+03  0.00000000000E+00 0.  1.
          5    1    4    4  501    0  0.17495876623E+02 -0.18971880980E+03 -0.13063100730E+04  0.13201374215E+04  0.41800000000E+01 0.  1.
         -5    1    4    4    0  501  0.27440975565E+02 -0.73183131846E+02 -0.20121192907E+03  0.21589926060E+03  0.41800000000E+01 0.  1.
</event>
<event>
11    1  0.8453735E-009  0.1910728E+03  0.7561462E-02  0.1061022E+00
         22   -1    0    0    0    0  0.00000000000E+00  0.00000000000E+00  0.31627041951E+03  0.31627041951E+03  0.00000000000E+00 0. -1.
         22   -1    0    0    0    0 -0.00000000000E+00 -0.00000000000E+00 -0.16465342241E+04  0.16465342241E+04  0.00000000000E+00 0.  1.
        -24    2    1    2    0    0  0.14057196586E+03  0.34958726486E+02 -0.14673328056E+04  0.14764092723E+04  0.75737617001E+02 0.  0.
         25    2    1    2    0    0 -0.15299771082E+03  0.47856152629E+02 -0.97737840317E+02  0.22560772738E+03  0.12509056863E+03 0.  0.
         24    2    1    2    0    0  0.12425744961E+02 -0.82814879115E+02  0.23480684140E+03  0.26078764392E+03  0.76571790570E+02 0.  0.
        -13    1    5    5    0    0 -0.28348279990E+02 -0.21160087910E+02  0.46014663505E+02  0.58040706028E+02  0.00000000000E+00 0.  1.
         14    1    5    5    0    0  0.40774024951E+02 -0.61654791205E+02  0.18879217789E+03  0.20274693789E+03  0.00000000000E+00 0. -1.
         13    1    3    3    0    0  0.82837281535E+02  0.11541058877E+02 -0.48951804289E+03  0.49661164461E+03  0.00000000000E+00 0. -1.
        -14    1    3    3    0    0  0.57734684328E+02  0.23417667609E+02 -0.97781476275E+03  0.97979762767E+03  0.00000000000E+00 0.  1.
          5    1    4    4  501    0 -0.52996390653E+02  0.80857341816E+02 -0.34680199533E+02  0.10279453189E+03  0.41800000000E+01 0.  1.
         -5    1    4    4    0  501 -0.10000132017E+03 -0.33001189187E+02 -0.63057640785E+02  0.12281319548E+03  0.41800000000E+01 0.  1.
</event>
<event>
11    1  0.8453735E-009  0.2611048E+03  0.7561462E-02  0.1018144E+00
         22   -1    0    0    0    0  0.00000000000E+00  0.00000000000E+00  0.40959428659E+03  0.40959428659E+03  0.00000000000E+00 0. -1.
         22   -1    0    0    0    0 -0.00000000000E+00 -0.00000000000E+00 -0.16636330082E+04  0.16636330082E+04  0.00000000000E+00 0. -1.
        -24    2    1    2    0    0 -0.61778227249E+02 -0.40322365476E+02 -0.95457352752E+03  0.96088559412E+03  0.81535654997E+02 0.  0.
         25    2    1    2    0    0  0.26322585443E+03 -0.64686169445E+02 -0.63362435119E+03  0.70042761041E+03  0.12508744158E+03 0.  0.
         24    2    1    2    0    0 -0.20144762718E+03  0.10500853492E+03  0.33415915711E+03  0.41191409026E+03  0.80018351479E+02 0.  0.
        -11    1    5    5    0    0 -0.65614160916E+02  0.59806268095E+02  0.18484288323E+03  0.20505828269E+03  0.00000000000E+00 0.  1.
         12    1    5    5    0    0 -0.13583346626E+03  0.45202266826E+02  0.14931627387E+03  0.20685580757E+03  0.00000000000E+00 0. -1.
         13    1    3    3    0    0 -0.23330720704E+02 -0.51885328037E+01 -0.72843168455E+03  0.72882368407E+03  0.00000000000E+00 0. -1.
        -14    1    3    3    0    0 -0.38447506545E+02 -0.35133832672E+02 -0.22614184296E+03  0.23206191005E+03  0.00000000000E+00 0.  1.
          5    1    4    4  501    0  0.19552613187E+03 -0.10257089016E+03 -0.46898715683E+03  0.51837986210E+03  0.41800000000E+01 0. -1.
         -5    1    4    4    0  501  0.67699722557E+02  0.37884720719E+02 -0.16463719436E+03  0.18204774831E+03  0.41800000000E+01 0. -1.
</event>
<event>
11    1  0.8453735E-009  0.1985072E+03  0.7561462E-02  0.1055584E+00
         22   -1    0    0    0    0  0.00000000000E+00  0.00000000000E+00  0.61116133519E+03  0.61116133519E+03  0.00000000000E+00 0.  1.
         22   -1    0    0    0    0 -0.00000000000E+00 -0.00000000000E+00 -0.44712624347E+03  0.44712624347E+03  0.00000000000E+00 0. -1.
        -24    2    1    2    0    0 -0.83396284328E+02 -0.16012671439E+03 -0.26198804496E+03  0.33216026847E+03  0.95379260574E+02 0.  0.
         25    2    1    2    0    0  0.80992049575E+02  0.86586151166E+02 -0.93531097962E+02  0.19609119066E+03  0.12508722996E+03 0.  0.
         24    2    1    2    0    0  0.24042347528E+01  0.73540563227E+02  0.51955423465E+03  0.53003611953E+03  0.74750856031E+02 0.  0.
        -11    1    5    5    0    0  0.19952042638E+02  0.16583951058E+01  0.24072473593E+03  0.24155585848E+03  0.00000000000E+00 0.  1.
         12    1    5    5    0    0 -0.17547807885E+02  0.71882168121E+02  0.27882949873E+03  0.28848026105E+03  0.00000000000E+00 0. -1.
         11    1    3    3    0    0  0.15855583539E+02 -0.50203227608E+02 -0.97618734639E+02  0.11091068904E+03  0.00000000000E+00 0. -1.
        -12    1    3    3    0    0 -0.99251867867E+02 -0.10992348679E+03 -0.16436931032E+03  0.22124957943E+03  0.00000000000E+00 0.  1.
          5    1    4    4  501    0  0.74891657456E+02 -0.21328622741E+01 -0.73081956877E+02  0.10474614207E+03  0.41800000000E+01 0.  1.
         -5    1    4    4    0  501  0.61003921186E+01  0.88719013440E+02 -0.20449141085E+02  0.91345048584E+02  0.41800000000E+01 0.  1.
</event>
<event>
11    1  0.8453735E-009  0.1930505E+03  0.7561462E-02  0.1059550E+00
         22   -1    0    0    0    0  0.00000000000E+00  0.00000000000E+00  0.79362820146E+03  0.79362820146E+03  0.00000000000E+00 0.  1.
         22   -1    0    0    0    0 -0.00000000000E+00 -0.00000000000E+00 -0.26365720060E+03  0.26365720060E+03  0.00000000000E+00 0. -1.
         24    2    1    2    0    0  0.70038138122E+02 -0.53012821378E+02 -0.57677293726E+02  0.13081237793E+03  0.77907047095E+02 0.  0.
         25    2    1    2    0    0 -0.20763633043E+03  0.88733347136E+02 -0.54632203478E+02  0.26385263237E+03  0.12508829419E+03 0.  0.
        -24    2    1    2    0    0  0.13759819231E+03 -0.35720525758E+02  0.64228049807E+03  0.66262039176E+03  0.79575919052E+02 0.  0.
        -13    1    3    3    0    0  0.26565512886E+02 -0.32475756996E+02  0.14236535837E+02  0.44306661124E+02  0.00000000000E+00 0.  1.
         14    1    3    3    0    0  0.43472625236E+02 -0.20537064382E+02 -0.71913829563E+02  0.86505716810E+02  0.00000000000E+00 0. -1.
         11    1    5    5    0    0  0.14311556552E+00 -0.77199518702E+01  0.32551948372E+01  0.83794052517E+01  0.00000000000E+00 0. -1.
        -12    1    5    5    0    0  0.13745507674E+03 -0.28000573888E+02  0.63902530323E+03  0.65424098651E+03  0.00000000000E+00 0.  1.
          5    1    4    4  501    0 -0.43283850869E+02  0.10786628709E+01  0.36187118841E+02  0.56582994174E+02  0.41800000000E+01 0. -1.
         -5    1    4    4    0  501 -0.16435247956E+03  0.87654684265E+02 -0.90819322319E+02  0.20726963819E+03  0.41800000000E+01 0. -1.
</event>
<event>
11    1  0.8453735E-009  0.1299871E+03  0.7561462E-02  0.1119285E+00
         22   -1    0    0    0    0  0.00000000000E+00  0.00000000000E+00  0.14448140728E+04  0.14448140728E+04  0.00000000000E+00 0. -1.
         22   -1    0    0    0    0 -0.00000000000E+00 -0.00000000000E+00 -0.95521407660E+02  0.95521407660E+02  0.00000000000E+00 0. -1.
         24    2    1    2    0    0 -0.86619790652E+01  0.56903017085E+01 -0.57232705537E+02  0.99205162102E+02  0.80365864581E+02 0.  0.
         25    2    1    2    0    0 -0.12456384248E+02 -0.34097389400E+02  0.25600617599E+03  0.28723470189E+03  0.12508724296E+03 0.  0.
        -24    2    1    2    0    0  0.21118363313E+02  0.28407087692E+02  0.11505191946E+04  0.11538956164E+04  0.80794359107E+02 0.  0.
        -13    1    3    3    0    0 -0.40347714770E+02  0.68358077028E+01 -0.96810357007E+01  0.42052215237E+02  0.00000000000E+00 0.  1.
         14    1    3    3    0    0  0.31685735705E+02 -0.11455059943E+01 -0.47551669836E+02  0.57152946865E+02  0.00000000000E+00 0. -1.
         11    1    5    5    0    0  0.34633775053E+02 -0.16393153803E+02  0.37110181851E+03  0.37307478281E+03  0.00000000000E+00 0. -1.
        -12    1    5    5    0    0 -0.13515411740E+02  0.44800241495E+02  0.77941737612E+03  0.78082083361E+03  0.00000000000E+00 0.  1.
          5    1    4    4  501    0  0.22510625956E+02 -0.71251611832E+02  0.18613608808E+03  0.20061813516E+03  0.41800000000E+01 0. -1.
         -5    1    4    4    0  501 -0.34967010204E+02  0.37154222432E+02  0.69870087910E+02  0.86616566728E+02  0.41800000000E+01 0. -1.
</event>
<event>
11    1  0.8453735E-009  0.1306538E+03  0.7561462E-02  0.1118468E+00
         22   -1    0    0    0    0  0.00000000000E+00  0.00000000000E+00  0.29604452099E+03  0.29604452099E+03  0.00000000000E+00 0.  1.
         22   -1    0    0    0    0 -0.00000000000E+00 -0.00000000000E+00 -0.64866110852E+03  0.64866110852E+03  0.00000000000E+00 0.  1.
         24    2    1    2    0    0  0.15963460453E+02  0.38715277245E+02 -0.32200127028E+03  0.33359044377E+03  0.76446460697E+02 0.  0.
         25    2    1    2    0    0  0.56538618641E+01 -0.31527432755E+02 -0.30140118796E+03  0.32789731816E+03  0.12509208599E+03 0.  0.
        -24    2    1    2    0    0 -0.21617322317E+02 -0.71878444906E+01  0.27078587072E+03  0.28321786757E+03  0.79802249341E+02 0.  0.
        -13    1    3    3    0    0  0.20290677654E+02  0.34603438278E+02 -0.32460777426E+03  0.32707692772E+03  0.00000000000E+00 0.  1.
         14    1    3    3    0    0 -0.43272172004E+01  0.41118389679E+01  0.26065039751E+01  0.65135160527E+01  0.00000000000E+00 0. -1.
         11    1    5    5    0    0  0.15245952213E+02 -0.24864643817E+02  0.44083491456E+02  0.52858715364E+02  0.00000000000E+00 0. -1.
        -12    1    5    5    0    0 -0.36863274530E+02  0.17676799326E+02  0.22670237926E+03  0.23035915221E+03  0.00000000000E+00 0.  1.
          5    1    4    4  501    0  0.48868319910E+01 -0.29719248261E+02 -0.31348745852E+03  0.31495868601E+03  0.41800000000E+01 0.  1.
         -5    1    4    4    0  501  0.76702987306E+00 -0.18081844935E+01  0.12086270554E+02  0.12938632149E+02  0.41800000000E+01 0.  1.
</event>
<event>
11    1  0.8453735E-009  0.1677896E+03  0.7561462E-02  0.1079971E+00
         22   -1    0    0    0    0  0.00000000000E+00  0.00000000000E+00  0.17063950919E+04  0.17063950919E+04  0.00000000000E+00 0. -1.
         22   -1    0    0    0    0 -0.00000000000E+00 -0.00000000000E+00 -0.73733251911E+03  0.73733251911E+03  0.00000000000E+00 0.  1.
         24    2    1    2    0    0  0.26593624883E+02 -0.11092022106E+03 -0.62617856394E+03  0.64113226212E+03  0.77074426751E+02 0.  0.
         25    2    1    2    0    0 -0.10472272620E+02  0.93966602395E+02 -0.42657436677E+02  0.16250379344E+03  0.12509370535E+03 0.  0.
        -24    2    1    2    0    0 -0.16121352263E+02  0.16953618668E+02  0.16378985734E+04  0.16400915554E+04  0.81493866579E+02 0.  0.
        -11    1    3    3    0    0  0.25508056559E+01 -0.83367481056E+02 -0.55374734504E+03  0.55999354072E+03  0.00000000000E+00 0.  1.
         12    1    3    3    0    0  0.24042819227E+02 -0.27552740007E+02 -0.72431218902E+02  0.81138721397E+02  0.00000000000E+00 0. -1.
         13    1    5    5    0    0  0.10382354623E+02  0.40361606571E+01  0.14367903669E+04  0.14368335472E+04  0.00000000000E+00 0. -1.
        -14    1    5    5    0    0 -0.26503706887E+02  0.12917458011E+02  0.20110820649E+03  0.20325800825E+03  0.00000000000E+00 0.  1.
          5    1    4    4  501    0 -0.34907691424E+02 -0.13724983191E+02 -0.35420282418E+02  0.51758969181E+02  0.41800000000E+01 0.  1.
         -5    1    4    4    0  501  0.24435418804E+02  0.10769158559E+03 -0.72371542589E+01  0.11074482426E+03  0.41800000000E+01 0.  1.
</event>
<event>
11    1  0.8453735E-009  0.2073511E+03  0.7561462E-02  0.1049444E+00
         22   -1    0    0    0    0  0.00000000000E+00  0.00000000000E+00  0.21884298088E+04  0.21884298088E+04  0.00000000000E+00 0.  1.
         22   -1    0    0    0    0 -0.00000000000E+00 -0.00000000000E+00 -0.81073123681E+02  0.81073123681E+02  0.00000000000E+00 0.  1.
        -24    2    1    2    0    0  0.10883453852E+03 -0.15845823730E+03  0.10763032066E+03  0.23416492041E+03  0.79340747938E+02 0.  0.
         25    2    1    2    0    0  0.17126980391E+02  0.26587775889E+02  0.33950769123E+03  0.36319833887E+03  0.12508923881E+03 0.  0.
         24    2    1    2    0    0 -0.12596151891E+03  0.13187046141E+03  0.16602186732E+04  0.16721396732E+04  0.80429602359E+02 0.  0.
        -13    1    5    5    0    0 -0.49484608051E+02  0.94220517019E+02  0.68691817816E+03  0.69511352724E+03  0.00000000000E+00 0.  1.
         14    1    5    5    0    0 -0.76476910856E+02  0.37649944390E+02  0.97330049506E+03  0.97702614596E+03  0.00000000000E+00 0. -1.
         13    1    3    3    0    0 -0.11132548414E+02 -0.25120354253E+02  0.64195681349E+01  0.28216603038E+02  0.00000000000E+00 0. -1.
        -14    1    3    3    0    0  0.11996708693E+03 -0.13333788304E+03  0.10121075253E+03  0.20594831737E+03  0.00000000000E+00 0.  1.
          5    1    4    4  501    0 -0.63348421564E+01 -0.97537353678E+01 -0.68464421630E+01  0.14128402212E+02  0.41800000000E+01 0.  1.
         -5    1    4    4    0  501  0.23461822547E+02  0.36341511256E+02  0.34635413340E+03  0.34906993666E+03  0.41800000000E+01 0.  1.
</event>
<event>
11    1  0.8453735E-009  0.1600549E+03  0.7561462E-02  0.1087026E+00
         22   -1    0    0    0    0  0.00000000000E+00  0.00000000000E+00  0.69382302516E+03  0.69382302516E+03  0.00000000000E+00 0.  1.
         22   -1    0    0    0    0 -0.00000000000E+00 -0.00000000000E+00 -0.45031861391E+03  0.45031861391E+03  0.00000000000E+00 0. -1.
         24    2    1    2    0    0 -0.28540627904E+02 -0.99101452958E+02 -0.41017175256E+03  0.43060106095E+03  0.80874851903E+02 0.  0.
         25    2    1    2    0    0 -0.23830915663E+02  0.46362873279E+02  0.16789662103E+03  0.21576395890E+03  0.12508949615E+03 0.  0.
        -24    2    1    2    0    0  0.52371543568E+02  0.52738579679E+02  0.48577954278E+03  0.49777661922E+03  0.79219076565E+02 0.  0.
        -11    1    3    3    0    0 -0.34958343098E+02 -0.44131729226E+01 -0.13500828082E+03  0.13953063369E+03  0.00000000000E+00 0.  1.
         12    1    3    3    0    0  0.64177151935E+01 -0.94688280035E+02 -0.27516347174E+03  0.29107042726E+03  0.00000000000E+00 0. -1.
         11    1    5    5    0    0 -0.78856849112E+01  0.47471280124E+02  0.21073416852E+03  0.21615872928E+03  0.00000000000E+00 0. -1.
        -12    1    5    5    0    0  0.60257228479E+02  0.52672995546E+01  0.27504537427E+03  0.28161788994E+03  0.00000000000E+00 0.  1.
          5    1    4    4  501    0 -0.15979845501E+02 -0.37045969344E+01  0.16388244126E+03  0.16475438220E+03  0.41800000000E+01 0. -1.
         -5    1    4    4    0  501 -0.78510701620E+01  0.50067470213E+02  0.40141797728E+01  0.51009576704E+02  0.41800000000E+01 0. -1.
</event>
<event>
11    1  0.8453735E-009  0.2459524E+03  0.7561462E-02  0.1026078E+00
         22   -1    0    0    0    0  0.00000000000E+00  0.00000000000E+00  0.77885505328E+03  0.77885505328E+03  0.00000000000E+00 0. -1.
         22   -1    0    0    0    0 -0.00000000000E+00 -0.00000000000E+00 -0.40542832257E+03  0.40542832257E+03  0.00000000000E+00 0. -1.
        -24    2    1    2    0    0  0.11879065761E+02  0.41669449732E+02 -0.28090530322E+03  0.29548903976E+03  0.80799306899E+02 0.  0.
         25    2    1    2    0    0 -0.75232721179E+02 -0.23551034312E+03  0.10387427557E+03  0.29590955051E+03  0.12509001921E+03 0.  0.
         24    2    1    2    0    0  0.63353655418E+02  0.19384089339E+03  0.55045775837E+03  0.59288478558E+03  0.83190429835E+02 0.  0.
        -11    1    5    5    0    0  0.74491127126E+02  0.12625067842E+03  0.31089545600E+03  0.34372102989E+03  0.00000000000E+00 0.  1.
         12    1    5    5    0    0 -0.11137471708E+02  0.67590214964E+02  0.23956230237E+03  0.24916375569E+03  0.00000000000E+00 0. -1.
         13    1    3    3    0    0 -0.33610870750E+02  0.15609832692E+02 -0.14919151246E+03  0.15372529037E+03  0.00000000000E+00 0. -1.
        -14    1    3    3    0    0  0.45489936511E+02  0.26059617040E+02 -0.13171379076E+03  0.14176374939E+03  0.00000000000E+00 0.  1.
          5    1    4    4  501    0 -0.10465578631E+03 -0.21746538249E+03  0.98632597806E+02  0.26074870650E+03  0.41800000000E+01 0. -1.
         -5    1    4    4    0  501  0.29423065133E+02 -0.18044960631E+02  0.52416777604E+01  0.35160844013E+02  0.41800000000E+01 0. -1.
</event>
<event>
11    1  0.8453735E-009  0.1307301E+03  0.7561462E-02  0.1118375E+00
         22   -1    0    0    0    0  0.00000000000E+00  0.00000000000E+00  0.12537675975E+03  0.12537675975E+03  0.00000000000E+00 0.  1.
         22   -1    0    0    0    0 -0.00000000000E+00 -0.00000000000E+00 -0.11865823615E+04  0.11865823615E+04  0.00000000000E+00 0. -1.
         24    2    1    2    0    0  0.93665351688E+01  0.34004652300E+02 -0.84605857757E+03  0.85070057836E+03  0.81438989265E+02 0.  0.
         25    2    1    2    0    0  0.11003697233E+01 -0.57039982569E+02 -0.30712967600E+03  0.33649774150E+03  0.12508925505E+03 0.  0.
        -24    2    1    2    0    0 -0.10466904892E+02  0.23035330268E+02  0.91982651854E+02  0.12476080135E+03  0.80400664012E+02 0.  0.
        -13    1    3    3    0    0 -0.22351946747E+02 -0.11295805946E+02 -0.12261749635E+03  0.12514893194E+03  0.00000000000E+00 0.  1.
         14    1    3    3    0    0  0.31718481916E+02  0.45300458247E+02 -0.72344108123E+03  0.72555164642E+03  0.00000000000E+00 0. -1.
         13    1    5    5    0    0  0.17032777189E+02 -0.21040130313E+02  0.12525764574E+02  0.29827795100E+02  0.00000000000E+00 0. -1.
        -14    1    5    5    0    0 -0.27499682081E+02  0.44075460581E+02  0.79456887280E+02  0.94933006253E+02  0.00000000000E+00 0.  1.
          5    1    4    4  501    0 -0.26733534718E+02  0.13562336847E+02 -0.21473701596E+03  0.21685957964E+03  0.41800000000E+01 0.  1.
         -5    1    4    4    0  501  0.27833904441E+02 -0.70602319415E+02 -0.92392660040E+02  0.11963816186E+03  0.41800000000E+01 0.  1.
</event>
<event>
11    1  0.8453735E-009  0.1431749E+03  0.7561462E-02  0.1104064E+00
         22   -1    0    0    0    0  0.00000000000E+00  0.00000000000E+00  0.50002127204E+03  0.50002127204E+03  0.00000000000E+00 0. -1.
         22   -1    0    0    0    0 -0.00000000000E+00 -0.00000000000E+00 -0.18088948922E+04  0.18088948922E+04  0.00000000000E+00 0.  1.
        -24    2    1    2    0    0  0.61277325562E+02  0.33309557115E+02 -0.17181194384E+04  0.17213696680E+04  0.79465037083E+02 0.  0.
         25    2    1    2    0    0 -0.37910639257E+02 -0.62963502995E+02 -0.22144946355E+02  0.14679337834E+03  0.12512504943E+03 0.  0.
         24    2    1    2    0    0 -0.23366686305E+02  0.29653945880E+02  0.43139076465E+03  0.44075311785E+03  0.82097262642E+02 0.  0.
        -11    1    5    5    0    0 -0.30617852791E+02  0.25607203523E+02  0.81357075616E+02  0.90620944238E+02  0.00000000000E+00 0.  1.
         12    1    5    5    0    0  0.72511664855E+01  0.40467423570E+01  0.35003368903E+03  0.35013217361E+03  0.00000000000E+00 0. -1.
         11    1    3    3    0    0  0.11957219662E+02  0.13458785043E+02 -0.66473495279E+02  0.68868276960E+02  0.00000000000E+00 0. -1.
        -12    1    3    3    0    0  0.49320105900E+02  0.19850772073E+02 -0.16516459431E+04  0.16525013911E+04  0.00000000000E+00 0.  1.
          5    1    4    4  501    0 -0.19776074331E+02 -0.40413539758E+02  0.50930339700E+02  0.68086116160E+02  0.41800000000E+01 0. -1.
         -5    1    4    4    0  501 -0.18134564926E+02 -0.22549963237E+02 -0.73075286055E+02  0.78707262175E+02  0.41800000000E+01 0. -1.
</event>
<event>
11    1  0.8453735E-009  0.1711960E+03  0.7561462E-02  0.1076996E+00
         22   -1    0    0    0    0  0.00000000000E+00  0.00000000000E+00  0.62625260543E+03  0.62625260543E+03  0.00000000000E+00 0. -1.
         22   -1    0    0    0    0 -0.00000000000E+00 -0.00000000000E+00 -0.69551881658E+03  0.69551881658E+03  0.00000000000E+00 0.  1.
         24    2    1    2    0    0  0.88127812478E+02  0.75560963024E+02 -0.64138345717E+03  0.65695463024E+03  0.82101623654E+02 0.  0.
         25    2    1    2    0    0 -0.11894695055E+03 -0.73719305671E+02  0.16907166555E+03  0.25261732371E+03  0.12508945228E+03 0.  0.
        -24    2    1    2    0    0  0.30819138076E+02 -0.18416573526E+01  0.40304558047E+03  0.41219946806E+03  0.80681166043E+02 0.  0.
        -13    1    3    3    0    0  0.76740786915E+02  0.26091473350E+02 -0.50433361777E+03  0.51080555143E+03  0.00000000000E+00 0.  1.
         14    1    3    3    0    0  0.11387025563E+02  0.49469489674E+02 -0.13704983940E+03  0.14614907882E+03  0.00000000000E+00 0. -1.
         13    1    5    5    0    0  0.49769154083E+02 -0.87828017769E+01  0.14867975672E+03  0.15703431588E+03  0.00000000000E+00 0. -1.
        -14    1    5    5    0    0 -0.18950016007E+02  0.69411444244E+01  0.25436582376E+03  0.25516515218E+03  0.00000000000E+00 0.  1.
          5    1    4    4  501    0 -0.11889547179E+03 -0.47207910145E+02  0.61973210281E+02  0.14220714182E+03  0.41800000000E+01 0.  1.
         -5    1    4    4    0  501 -0.51478760881E-01 -0.26511395526E+02  0.10709845527E+03  0.11041018188E+03  0.41800000000E+01 0.  1.
</event>
<event>
11    1  0.8453735E-009  0.1573303E+03  0.7561462E-02  0.1089615E+00
         22   -1    0    0    0    0  0.00000000000E+00  0.00000000000E+00  0.23375739385E+03  0.23375739385E+03  0.00000000000E+00 0.  1.
         22   -1    0    0    0    0 -0.00000000000E+00 -0.00000000000E+00 -0.22010492454E+03  0.22010492454E+03  0.00000000000E+00 0. -1.
        -24    2    1    2    0    0  0.23376668128E+02 -0.53472400467E+02 -0.46797025673E+02  0.10967384600E+03  0.80203644933E+02 0.  0.
         25    2    1    2    0    0 -0.23509004351E+02  0.13846828973E+03 -0.37285269411E+02  0.19173989319E+03  0.12509138571E+03 0.  0.
         24    2    1    2    0    0  0.13233622349E+00 -0.84995889268E+02  0.97734764392E+02  0.15244857920E+03  0.80400039951E+02 0.  0.
        -11    1    5    5    0    0  0.44088342246E+01 -0.98615392214E+02  0.96620211664E+02  0.13813000653E+03  0.00000000000E+00 0.  1.
         12    1    5    5    0    0 -0.42764980011E+01  0.13619502946E+02  0.11145527277E+01  0.14318572675E+02  0.00000000000E+00 0. -1.
         13    1    3    3    0    0  0.49823250234E+02 -0.51308630375E+02 -0.41260972770E+02  0.82567546220E+02  0.00000000000E+00 0. -1.
        -14    1    3    3    0    0 -0.26446582107E+02 -0.21637700920E+01 -0.55360529028E+01  0.27106299782E+02  0.00000000000E+00 0.  1.
          5    1    4    4  501    0  0.41644800776E+02  0.16903658224E+02 -0.28691322389E+02  0.53485394955E+02  0.41800000000E+01 0.  1.
         -5    1    4    4    0  501 -0.65153805127E+02  0.12156463151E+03 -0.85939470223E+01  0.13825449824E+03  0.41800000000E+01 0.  1.
</event>
<event>
11    1  0.8453735E-009  0.1458885E+03  0.7561462E-02  0.1101155E+00
         22   -1    0    0    0    0  0.00000000000E+00  0.00000000000E+00  0.42117101598E+03  0.42117101598E+03  0.00000000000E+00 0.  1.
         22   -1    0    0    0    0 -0.00000000000E+00 -0.00000000000E+00 -0.57484918013E+03  0.57484918013E+03  0.00000000000E+00 0.  1.
        -24    2    1    2    0    0  0.22091987302E+02 -0.14979186475E+01 -0.50314430814E+03  0.51008117485E+03  0.80859819818E+02 0.  0.
         25    2    1    2    0    0  0.28758525629E+02  0.59146254730E+02  0.25735423737E+02  0.14364884026E+03  0.12508934818E+03 0.  0.
         24    2    1    2    0    0 -0.50850512931E+02 -0.57648336082E+02  0.32373072026E+03  0.34229018100E+03  0.80323617033E+02 0.  0.
        -13    1    5    5    0    0 -0.67156000977E+02 -0.26835615095E+02  0.17160601773E+03  0.18622218994E+03  0.00000000000E+00 0.  1.
         14    1    5    5    0    0  0.16305488046E+02 -0.30812720987E+02  0.15212470253E+03  0.15606799106E+03  0.00000000000E+00 0. -1.
         13    1    3    3    0    0 -0.14761736918E+02  0.27737855422E+02 -0.29597106456E+03  0.29763428660E+03  0.00000000000E+00 0. -1.
        -14    1    3    3    0    0  0.36853724220E+02 -0.29235774069E+02 -0.20717324358E+03  0.21244688826E+03  0.00000000000E+00 0.  1.
          5    1    4    4  501    0 -0.72854069578E+01  0.86367815618E+02 -0.79633614716E+01  0.87139911953E+02  0.41800000000E+01 0.  1.
         -5    1    4    4    0  501  0.36043932587E+02 -0.27221560889E+02  0.33698785209E+02  0.56508928304E+02  0.41800000000E+01 0.  1.
</event>
<event>
11    1  0.8453735E-009  0.1478901E+03  0.7561462E-02  0.1099054E+00
         22   -1    0    0    0    0  0.00000000000E+00  0.00000000000E+00  0.50783993418E+03  0.50783993418E+03  0.00000000000E+00 0. -1.
         22   -1    0    0    0    0 -0.00000000000E+00 -0.00000000000E+00 -0.15010461948E+03  0.15010461948E+03  0.00000000000E+00 0.  1.
         24    2    1    2    0    0 -0.91689219590E+01 -0.23137670520E+02 -0.82410972931E+02  0.11818923604E+03  0.80979664918E+02 0.  0.
         25    2    1    2    0    0 -0.36349551048E+02  0.84485337925E+02  0.10748105752E+03  0.18883636866E+03  0.12509170324E+03 0.  0.
        -24    2    1    2    0    0  0.45518473007E+02 -0.61347667405E+02  0.33266523011E+03  0.35091894895E+03  0.81501446172E+02 0.  0.
        -11    1    3    3    0    0 -0.32336038533E+02 -0.28796715127E+02 -0.83773564428E+02  0.94302069368E+02  0.00000000000E+00 0.  1.
         12    1    3    3    0    0  0.23167116574E+02  0.56590446069E+01  0.13625914966E+01  0.23887166676E+02  0.00000000000E+00 0. -1.
         11    1    5    5    0    0  0.59910635428E+01  0.46495293540E+01  0.17816072533E+03  0.17832205421E+03  0.00000000000E+00 0. -1.
        -12    1    5    5    0    0  0.39527409464E+02 -0.65997196759E+02  0.15450450478E+03  0.17259689475E+03  0.00000000000E+00 0.  1.
          5    1    4    4  501    0 -0.65528073993E+02  0.36618742571E+02  0.93724285523E+01  0.75763946608E+02  0.41800000000E+01 0.  1.
         -5    1    4    4    0  501  0.29178522945E+02  0.47866595354E+02  0.98108628964E+02  0.11307242205E+03  0.41800000000E+01 0.  1.
</event>
<event>
11    1  0.8453735E-009  0.1400653E+03  0.7561462E-02  0.1107486E+00
         22   -1    0    0    0    0  0.00000000000E+00  0.00000000000E+00  0.81732703026E+03  0.81732703026E+03  0.00000000000E+00 0. -1.
         22   -1    0    0    0    0 -0.00000000000E+00 -0.00000000000E+00 -0.19985927407E+03  0.19985927407E+03  0.00000000000E+00 0. -1.
         24    2    1    2    0    0  0.23368145430E+02  0.56154626126E+02 -0.15915237106E+03  0.18930329446E+03  0.82503623100E+02 0.  0.
         25    2    1    2    0    0 -0.42617587331E+02 -0.11028527854E+03  0.35048382860E+03  0.39045991280E+03  0.12506369569E+03 0.  0.
        -24    2    1    2    0    0  0.19249441901E+02  0.54130652410E+02  0.42613629865E+03  0.43742309707E+03  0.80287933588E+02 0.  0.
        -11    1    3    3    0    0 -0.30477089579E+02  0.11648943448E+02 -0.49161640757E+02  0.59003540526E+02  0.00000000000E+00 0.  1.
         12    1    3    3    0    0  0.53845235009E+02  0.44505682678E+02 -0.10999073030E+03  0.13029975394E+03  0.00000000000E+00 0. -1.
         11    1    5    5    0    0 -0.35849930625E+01 -0.31653748930E+01  0.26257880612E+03  0.26262235471E+03  0.00000000000E+00 0. -1.
        -12    1    5    5    0    0  0.22834434964E+02  0.57296027303E+02  0.16355749253E+03  0.17480074235E+03  0.00000000000E+00 0.  1.
          5    1    4    4  501    0 -0.69903896976E+02 -0.10193255690E+03  0.18530975987E+03  0.22278684987E+03  0.41800000000E+01 0. -1.
         -5    1    4    4    0  501  0.27286309645E+02 -0.83527216349E+01  0.16517406873E+03  0.16767306294E+03  0.41800000000E+01 0. -1.
</event>
<event>
11    1  0.8453735E-009  0.2328951E+03  0.7561462E-02  0.1033427E+00
         22   -1    0    0    0    0  0.00000000000E+00  0.00000000000E+00  0.35854597174E+03  0.35854597174E+03  0.00000000000E+00 0. -1.
         22   -1    0    0    0    0 -0.00000000000E+00 -0.00000000000E+00 -0.37020890276E+03  0.37020890276E+03  0.00000000000E+00 0. -1.
        -24    2    1    2    0    0 -0.15657383237E+03  0.12221350187E+03 -0.98511083067E+02  0.23633390895E+03  0.81839953620E+02 0.  0.
         25    2    1    2    0    0  0.15001868042E+02 -0.24855762995E+03  0.51123524711E+02  0.28331455838E+03  0.12509025846E+03 0.  0.
         24    2    1    2    0    0  0.14157196433E+03  0.12634412808E+03  0.35724627339E+02  0.20910640717E+03  0.80273163227E+02 0.  0.
        -13    1    5    5    0    0  0.20762506138E+02  0.32727691115E+02  0.40682787854E+02  0.56189613403E+02  0.00000000000E+00 0.  1.
         14    1    5    5    0    0  0.12080945819E+03  0.93616436966E+02 -0.49581605150E+01  0.15291679376E+03  0.00000000000E+00 0. -1.
         13    1    3    3    0    0 -0.16168056162E+03  0.98797584343E+02 -0.78434225078E+02  0.20506948661E+03  0.00000000000E+00 0. -1.
        -14    1    3    3    0    0  0.51067292426E+01  0.23415917528E+02 -0.20076857989E+02  0.31264422335E+02  0.00000000000E+00 0.  1.
          5    1    4    4  501    0 -0.17714588987E+02 -0.13288180764E+03 -0.31011695517E+02  0.13766110244E+03  0.41800000000E+01 0.  1.
         -5    1    4    4    0  501  0.32716457029E+02 -0.11567582231E+03  0.82135220228E+02  0.14565345595E+03  0.41800000000E+01 0.  1.
</event>
<event>
11    1  0.8453735E-009  0.1327298E+03  0.7561462E-02  0.1115960E+00
         22   -1    0    0    0    0  0.00000000000E+00  0.00000000000E+00  0.12780398516E+04  0.12780398516E+04  0.00000000000E+00 0.  1.
         22   -1    0    0    0    0 -0.00000000000E+00 -0.00000000000E+00 -0.10057423198E+03  0.10057423198E+03  0.00000000000E+00 0. -1.
         24    2    1    2    0    0  0.97113209010E+01 -0.78707579463E+01 -0.28406261474E+02  0.86352104162E+02  0.80582328199E+02 0.  0.
         25    2    1    2    0    0 -0.41106583971E+02  0.38489847130E+02  0.72358526009E+02  0.15509528482E+03  0.12509025346E+03 0.  0.
        -24    2    1    2    0    0  0.31395263070E+02 -0.30619089184E+02  0.11335133551E+04  0.11371666946E+04  0.79827150493E+02 0.  0.
        -11    1    3    3    0    0 -0.12358765481E+02  0.32359652779E+02 -0.55254638516E+01  0.35077299824E+02  0.00000000000E+00 0.  1.
         12    1    3    3    0    0  0.22070086382E+02 -0.40230410725E+02 -0.22880797622E+02  0.51274804338E+02  0.00000000000E+00 0. -1.
         11    1    5    5    0    0  0.20512377650E+02  0.23887975209E+02  0.26249349007E+03  0.26437516019E+03  0.00000000000E+00 0. -1.
        -12    1    5    5    0    0  0.10882885420E+02 -0.54507064393E+02  0.87101986500E+03  0.87279153438E+03  0.00000000000E+00 0.  1.
          5    1    4    4  501    0 -0.42015681541E+01  0.38884399716E+02  0.10087219810E+03  0.10826967473E+03  0.41800000000E+01 0. -1.
         -5    1    4    4    0  501 -0.36905015817E+02 -0.39455258559E+00 -0.28513672095E+02  0.46825610092E+02  0.41800000000E+01 0. -1.
</event>
<event>
11    1  0.8453735E-009  0.1295504E+03  0.7561462E-02  0.1119823E+00
         22   -1    0    0    0    0  0.00000000000E+00  0.00000000000E+00  0.71283540306E+03  0.71283540306E+03  0.00000000000E+00 0.  1.
         22   -1    0    0    0    0 -0.00000000000E+00 -0.00000000000E+00 -0.66001109687E+03  0.66001109687E+03  0.00000000000E+00 0. -1.
         24    2    1    2    0    0  0.56247551213E+00  0.32597223865E+02 -0.58654322774E+03  0.59293351122E+03  0.80463006023E+02 0.  0.
         25    2    1    2    0    0  0.82106166293E+00 -0.57507322615E+02  0.26934613258E+01  0.13770851378E+03  0.12509441929E+03 0.  0.
        -24    2    1    2    0    0 -0.13835371751E+01  0.24910098749E+02  0.63667407261E+03  0.64220447492E+03  0.80313670566E+02 0.  0.
        -11    1    3    3    0    0  0.35567952816E+01 -0.18719264520E+02 -0.43845891987E+02  0.47807153241E+02  0.00000000000E+00 0.  1.
         12    1    3    3    0    0 -0.29943197694E+01  0.51316488385E+02 -0.54269733576E+03  0.54512635798E+03  0.00000000000E+00 0. -1.
         13    1    5    5    0    0 -0.79054988640E+01  0.31376870002E+02  0.93279966451E+02  0.98732755580E+02  0.00000000000E+00 0. -1.
        -14    1    5    5    0    0  0.65219616889E+01 -0.64667712522E+01  0.54339410616E+03  0.54347171934E+03  0.00000000000E+00 0.  1.
          5    1    4    4  501    0 -0.59028791274E+02 -0.16091978779E+02 -0.14036602991E+02  0.62911434603E+02  0.41800000000E+01 0. -1.
         -5    1    4    4    0  501  0.59849852937E+02 -0.41415343836E+02  0.16730064317E+02  0.74797079179E+02  0.41800000000E+01 0. -1.
</event>
<event>
11    1  0.8453735E-009  0.1359522E+03  0.7561462E-02  0.1112164E+00
         22   -1    0    0    0    0  0.00000000000E+00  0.00000000000E+00  0.74720022756E+03  0.74720022756E+03  0.00000000000E+00 0.  1.
         22   -1    0    0    0    0 -0.00000000000E+00 -0.00000000000E+00 -0.19495642889E+04  0.19495642889E+04  0.00000000000E+00 0.  1.
        -24    2    1    2    0    0 -0.26178282070E+02  0.13405157507E+02 -0.19180878578E+04  0.19199560152E+04  0.79404466580E+02 0.  0.
         25    2    1    2    0    0  0.42485565778E+02 -0.61056504425E+02  0.17350699366E+03  0.22646203402E+03  0.12508979164E+03 0.  0.
         24    2    1    2    0    0 -0.16307283708E+02  0.47651346918E+02  0.54221680280E+03  0.55034646724E+03  0.79659239236E+02 0.  0.
        -11    1    5    5    0    0  0.45870619637E+01  0.12707671042E+02  0.44156977439E+03  0.44177640464E+03  0.00000000000E+00 0.  1.
         12    1    5    5    0    0 -0.20894345671E+02  0.34943675875E+02  0.10064702842E+03  0.10857006260E+03  0.00000000000E+00 0. -1.
         11    1    3    3    0    0 -0.35808634428E+02  0.41544302816E+02 -0.12013424330E+04  0.12025937921E+04  0.00000000000E+00 0. -1.
        -12    1    3    3    0    0  0.96303523585E+01 -0.28139145309E+02 -0.71674542478E+03  0.71736222310E+03  0.00000000000E+00 0.  1.
          5    1    4    4  501    0 -0.35820367829E+01  0.35804789512E+02  0.28737542004E+02  0.46239946582E+02  0.41800000000E+01 0.  1.
         -5    1    4    4    0  501  0.46067602561E+02 -0.96861293937E+02  0.14476945165E+03  0.18022208744E+03  0.41800000000E+01 0.  1.
</event>
<event>
11    1  0.8453735E-009  0.1370535E+03  0.7561462E-02  0.1110894E+00
         22   -1    0    0    0    0  0.00000000000E+00  0.00000000000E+00  0.98145318676E+03  0.98145318676E+03  0.00000000000E+00 0.  1.
         22   -1    0    0    0    0 -0.00000000000E+00 -0.00000000000E+00 -0.26540581917E+02  0.26540581917E+02  0.00000000000E+00 0.  1.
        -24    2    1    2    0    0 -0.19835926411E+02  0.49063842324E+02  0.27120591802E+03  0.28802036284E+03  0.81254875809E+02 0.  0.
         25    2    1    2    0    0  0.34495340030E+02 -0.50098784010E+02  0.35228248136E+03  0.37874667650E+03  0.12508509762E+03 0.  0.
         24    2    1    2    0    0 -0.14659413619E+02  0.10349416866E+01  0.33142420547E+03  0.34122672934E+03  0.79860549281E+02 0.  0.
        -11    1    5    5    0    0 -0.31082630833E+02  0.39999413272E+01  0.48081875744E+02  0.57393346698E+02  0.00000000000E+00 0.  1.
         12    1    5    5    0    0  0.16423217214E+02 -0.29649996406E+01  0.28334232972E+03  0.28383338264E+03  0.00000000000E+00 0. -1.
         13    1    3    3    0    0 -0.99571867634E+01 -0.22380370591E+02  0.79888865983E+02  0.83559903447E+02  0.00000000000E+00 0. -1.
        -14    1    3    3    0    0 -0.98787396475E+01  0.71444212915E+02  0.19131705204E+03  0.20446045940E+03  0.00000000000E+00 0.  1.
          5    1    4    4  501    0  0.10166140839E+02 -0.88322827251E+02  0.27521252763E+03  0.28924674588E+03  0.41800000000E+01 0.  1.
         -5    1    4    4    0  501  0.24329199191E+02  0.38224043241E+02  0.77069953723E+02  0.89499930624E+02  0.41800000000E+01 0.  1.
</event>
<event>
11    1  0.8453735E-009  0.5520211E+03  0.7561462E-02  0.9284246E-01
         22   -1    0    0    0    0  0.00000000000E+00  0.00000000000E+00  0.19061006342E+04  0.19061006342E+04  0.00000000000E+00 0. -1.
         22   -1    0    0    0    0 -0.00000000000E+00 -0.00000000000E+00 -0.61572924308E+03  0.61572924308E+03  0.00000000000E+00 0.  1.
        -24    2    1    2    0    0 -0.36112698054E+03 -0.15446544572E+03  0.22603933898E+03  0.46083865988E+03  0.83703152119E+02 0.  0.
         25    2    1    2    0    0  0.72673891771E+03 -0.21501420448E+03 -0.10840371807E+03  0.77574601388E+03  0.12509975747E+03 0.  0.
         24    2    1    2    0    0 -0.36561193717E+03  0.36947965020E+03  0.11727357702E+04  0.12852452036E+04  0.79741745436E+02 0.  0.
        -11    1    5    5    0    0 -0.44022349014E+02  0.16404036040E+02  0.13353524373E+03  0.14155818920E+03  0.00000000000E+00 0.  1.
         12    1    5    5    0    0 -0.32158958816E+03  0.35307561416E+03  0.10392005265E+04  0.11436870144E+04  0.00000000000E+00 0. -1.
         13    1    3    3    0    0 -0.33025557185E+03 -0.11844557181E+03  0.17838764893E+03  0.39359909745E+03  0.00000000000E+00 0. -1.
        -14    1    3    3    0    0 -0.30871408687E+02 -0.36019873904E+02  0.47651690058E+02  0.67239562430E+02  0.00000000000E+00 0.  1.
          5    1    4    4  501    0  0.31824434124E+03 -0.69700392547E+02  0.11047262339E+02  0.32600171757E+03  0.41800000000E+01 0. -1.
         -5    1    4    4    0  501  0.40849457646E+03 -0.14531381193E+03 -0.11945098041E+03  0.44974429631E+03  0.41800000000E+01 0. -1.
</event>
<event>
11    1  0.8453735E-009  0.4162217E+03  0.7561462E-02  0.9603071E-01
         22   -1    0    0    0    0  0.00000000000E+00  0.00000000000E+00  0.16682187869E+03  0.16682187869E+03  0.00000000000E+00 0. -1.
         22   -1    0    0    0    0 -0.00000000000E+00 -0.00000000000E+00 -0.25961898244E+03  0.25961898244E+03  0.00000000000E+00 0. -1.
         24    2    1    2    0    0  0.74769928399E+01 -0.54125699321E+02 -0.25396832973E+02  0.90729966569E+02  0.67833848186E+02 0.  0.
         25    2    1    2    0    0 -0.73268124943E+02  0.13419194570E+03 -0.58207620479E+02  0.20594696988E+03  0.12510128255E+03 0.  0.
        -24    2    1    2    0    0  0.65791132103E+02 -0.80066246377E+02 -0.91926503000E+01  0.12976392468E+03  0.77557040018E+02 0.  0.
        -13    1    3    3    0    0  0.34017657827E+02 -0.30141365654E+02 -0.30298735553E+02  0.54623404724E+02  0.00000000000E+00 0.  1.
         14    1    3    3    0    0 -0.26540664987E+02 -0.23984333667E+02  0.49019025800E+01  0.36106561845E+02  0.00000000000E+00 0. -1.
         13    1    5    5    0    0  0.38057802555E+02 -0.11367768606E+01 -0.23709977422E+02  0.44853669040E+02  0.00000000000E+00 0. -1.
        -14    1    5    5    0    0  0.27733329548E+02 -0.78929469517E+02  0.14517327122E+02  0.84910255640E+02  0.00000000000E+00 0.  1.
          5    1    4    4  501    0 -0.52456514737E+02  0.63518780977E+02 -0.93046478036E+02  0.12434404268E+03  0.41800000000E+01 0. -1.
         -5    1    4    4    0  501 -0.20811610207E+02  0.70673164721E+02  0.34838857557E+02  0.81602927196E+02  0.41800000000E+01 0. -1.
</event>
<event>
11    1  0.8453735E-009  0.3959884E+03  0.7561462E-02  0.9661669E-01
         22   -1    0    0    0    0  0.00000000000E+00  0.00000000000E+00  0.11236973197E+04  0.11236973197E+04  0.00000000000E+00 0. -1.
         22   -1    0    0    0    0 -0.00000000000E+00 -0.00000000000E+00 -0.34071195739E+03  0.34071195739E+03  0.00000000000E+00 0. -1.
         24    2    1    2    0    0 -0.11556076548E+03  0.62417999408E+02  0.29600926236E+02  0.15686237163E+03  0.80494047187E+02 0.  0.
         25    2    1    2    0    0  0.38036682730E+03 -0.29977481443E+03  0.34279471984E+02  0.50136458531E+03  0.12508997774E+03 0.  0.
        -24    2    1    2    0    0 -0.26480606182E+03  0.23735681502E+03  0.71910496411E+03  0.80618232016E+03  0.79733781590E+02 0.  0.
        -13    1    3    3    0    0  0.73110116934E+01  0.47634544142E+01 -0.12060681301E+02  0.14886283061E+02  0.00000000000E+00 0.  1.
         14    1    3    3    0    0 -0.12287177717E+03  0.57654544994E+02  0.41661607537E+02  0.14197608857E+03  0.00000000000E+00 0. -1.
         13    1    5    5    0    0 -0.15625724145E+02  0.32906294409E+02  0.37887515648E+02  0.52559026901E+02  0.00000000000E+00 0. -1.
        -14    1    5    5    0    0 -0.24918033768E+03  0.20445052061E+03  0.68121744846E+03  0.75362329326E+03  0.00000000000E+00 0.  1.
          5    1    4    4  501    0  0.19056513876E+03 -0.22682972909E+03  0.31633958659E+02  0.29796808193E+03  0.41800000000E+01 0. -1.
         -5    1    4    4    0  501  0.18980168854E+03 -0.72945085339E+02  0.26455133248E+01  0.20339650338E+03  0.41800000000E+01 0. -1.
</event>
<event>
11    1  0.8453735E-009  0.1362440E+03  0.7561462E-02  0.1111827E+00
         22   -1    0    0    0    0  0.00000000000E+00  0.00000000000E+00  0.61837896436E+03  0.61837896436E+03  0.00000000000E+00 0.  1.
         22   -1    0    0    0    0 -0.00000000000E+00 -0.00000000000E+00 -0.16380521912E+04  0.16380521912E+04  0.00000000000E+00 0. -1.
         24    2    1    2    0    0  0.48521551793E+02  0.27539445600E+02 -0.15694389200E+04  0.15737379764E+04  0.10198006013E+03 0.  0.
         25    2    1    2    0    0 -0.10467014667E+02  0.20824796210E+02  0.36792246799E+01  0.12729737822E+03  0.12509138769E+03 0.  0.
        -24    2    1    2    0    0 -0.38054537125E+02 -0.48364241810E+02  0.54608646850E+03  0.55539580093E+03  0.80416521470E+02 0.  0.
        -13    1    3    3    0    0  0.38965252429E+02 -0.34349224240E+02 -0.58101573149E+03  0.58333304410E+03  0.00000000000E+00 0.  1.
         14    1    3    3    0    0  0.95562993637E+01  0.61888669840E+02 -0.98842318855E+03  0.99040493233E+03  0.00000000000E+00 0. -1.
         11    1    5    5    0    0 -0.17462058299E+02 -0.52870127520E+02  0.17353943434E+03  0.18225287140E+03  0.00000000000E+00 0. -1.
        -12    1    5    5    0    0 -0.20592478826E+02  0.45058857102E+01  0.37254703416E+03  0.37314292953E+03  0.00000000000E+00 0.  1.
          5    1    4    4  501    0  0.30808233556E+02  0.52892591733E+02 -0.26461502357E+02  0.66816592415E+02  0.41800000000E+01 0.  1.
         -5    1    4    4    0  501 -0.41275248223E+02 -0.32067795522E+02  0.30140727036E+02  0.60480785807E+02  0.41800000000E+01 0.  1.
</event>
<event>
11    1  0.8453735E-009  0.3106250E+03  0.7561462E-02  0.9957921E-01
         22   -1    0    0    0    0  0.00000000000E+00  0.00000000000E+00  0.37915880047E+03  0.37915880047E+03  0.00000000000E+00 0.  1.
         22   -1    0    0    0    0 -0.00000000000E+00 -0.00000000000E+00 -0.17520550711E+04  0.17520550711E+04  0.00000000000E+00 0.  1.
        -24    2    1    2    0    0  0.28345622846E+03  0.63492377202E+01 -0.15942424836E+04  0.16212762943E+04  0.80870140591E+02 0.  0.
         25    2    1    2    0    0 -0.29531600222E+03 -0.18790409488E+02  0.59090098876E+02  0.32665651558E+03  0.12509284044E+03 0.  0.
         24    2    1    2    0    0  0.11859773755E+02  0.12441171768E+02  0.16225611412E+03  0.18328106168E+03  0.83483315785E+02 0.  0.
        -13    1    5    5    0    0  0.43719593894E+02 -0.79524039320E+01  0.11110614929E+03  0.11966294342E+03  0.00000000000E+00 0.  1.
         14    1    5    5    0    0 -0.31859820139E+02  0.20393575700E+02  0.51149964832E+02  0.63618118264E+02  0.00000000000E+00 0. -1.
         11    1    3    3    0    0  0.14697739111E+02  0.39211672204E+01 -0.25627549678E+02  0.29802187669E+02  0.00000000000E+00 0. -1.
        -12    1    3    3    0    0  0.26875848935E+03  0.24280704998E+01 -0.15686149339E+04  0.15914741066E+04  0.00000000000E+00 0.  1.
          5    1    4    4  501    0 -0.73789668258E+02  0.45167795906E+02 -0.66072984918E+01  0.86868715439E+02  0.41800000000E+01 0. -1.
         -5    1    4    4    0  501 -0.22152633396E+03 -0.63958205394E+02  0.65697397368E+02  0.23978780014E+03  0.41800000000E+01 0. -1.
</event>
<event>
11    1  0.8453735E-009  0.1290219E+03  0.7561462E-02  0.1120477E+00
         22   -1    0    0    0    0  0.00000000000E+00  0.00000000000E+00  0.91449210628E+03  0.91449210628E+03  0.00000000000E+00 0.  1.
         22   -1    0    0    0    0 -0.00000000000E+00 -0.00000000000E+00 -0.24927837161E+03  0.24927837161E+03  0.00000000000E+00 0. -1.
         24    2    1    2    0    0  0.49937538968E+01  0.51878261839E+01 -0.11161726191E+03  0.13795567247E+03  0.80755825126E+02 0.  0.
         25    2    1    2    0    0 -0.34368778407E+02  0.64890147085E+01 -0.87991430549E+02  0.15687690135E+03  0.12507817590E+03 0.  0.
        -24    2    1    2    0    0  0.29375024510E+02 -0.11676840892E+02  0.86482242712E+03  0.86893790407E+03  0.78332687924E+02 0.  0.
        -13    1    3    3    0    0 -0.11641234375E+02 -0.28828690402E+02 -0.15689712314E+02  0.34824973806E+02  0.00000000000E+00 0.  1.
         14    1    3    3    0    0  0.16634988272E+02  0.34016516586E+02 -0.95927549594E+02  0.10313069866E+03  0.00000000000E+00 0. -1.
         13    1    5    5    0    0  0.13770154036E+02 -0.42763389166E+02  0.33863981015E+03  0.34160685826E+03  0.00000000000E+00 0. -1.
        -14    1    5    5    0    0  0.15604870474E+02  0.31086548273E+02  0.52618261697E+03  0.52733104581E+03  0.00000000000E+00 0.  1.
          5    1    4    4  501    0  0.32713790427E+01 -0.49941798888E+02 -0.70748989397E+02  0.86762763313E+02  0.41800000000E+01 0. -1.
         -5    1    4    4    0  501 -0.37640157450E+02  0.56430813596E+02 -0.17242441151E+02  0.70114138038E+02  0.41800000000E+01 0. -1.
</event>
<event>
11    1  0.8453735E-009  0.1299200E+03  0.7561462E-02  0.1119367E+00
         22   -1    0    0    0    0  0.00000000000E+00  0.00000000000E+00  0.12532135556E+03  0.12532135556E+03  0.00000000000E+00 0. -1.
         22   -1    0    0    0    0 -0.00000000000E+00 -0.00000000000E+00 -0.18597275763E+04  0.18597275763E+04  0.00000000000E+00 0.  1.
        -24    2    1    2    0    0  0.17312795006E+02 -0.11901723510E+02 -0.10494681464E+04  0.10528783683E+04  0.82024900229E+02 0.  0.
         25    2    1    2    0    0 -0.25396286054E+02  0.45707345398E+02 -0.78528903361E+03  0.79690679042E+03  0.12508970195E+03 0.  0.
         24    2    1    2    0    0  0.80834910478E+01 -0.33805621888E+02  0.10035095922E+03  0.13526377319E+03  0.83772372666E+02 0.  0.
        -11    1    5    5    0    0  0.39433064636E+02  0.36792244945E+01  0.59993371328E+02  0.71886771264E+02  0.00000000000E+00 0.  1.
         12    1    5    5    0    0 -0.31349573588E+02 -0.37484846382E+02  0.40357587891E+02  0.63377001923E+02  0.00000000000E+00 0. -1.
         11    1    3    3    0    0 -0.21911348138E+02  0.11396535514E+02 -0.13289424581E+03  0.13516977757E+03  0.00000000000E+00 0. -1.
        -12    1    3    3    0    0  0.39224143144E+02 -0.23298259024E+02 -0.91657390057E+03  0.91770859072E+03  0.00000000000E+00 0.  1.
          5    1    4    4  501    0  0.41764055843E+02 -0.13724293873E+02 -0.32033221991E+03  0.32336171096E+03  0.41800000000E+01 0.  1.
         -5    1    4    4    0  501 -0.67160341897E+02  0.59431639271E+02 -0.46495681370E+03  0.47354507946E+03  0.41800000000E+01 0.  1.
</event>
<event>
11    1  0.8453735E-009  0.1576023E+03  0.7561462E-02  0.1089354E+00
         22   -1    0    0    0    0  0.00000000000E+00  0.00000000000E+00  0.60923618134E+03  0.60923618134E+03  0.00000000000E+00 0. -1.
         22   -1    0    0    0    0 -0.00000000000E+00 -0.00000000000E+00 -0.23037611638E+04  0.23037611638E+04  0.00000000000E+00 0.  1.
        -24    2    1    2    0    0  0.18608554338E+02  0.92655967659E+02 -0.19319531514E+04  0.19359389115E+04  0.80530013633E+02 0.  0.
         25    2    1    2    0    0 -0.96930907670E+02 -0.91850154450E+02 -0.34148242726E+03  0.38741376959E+03  0.12508848473E+03 0.  0.
         24    2    1    2    0    0  0.78322353332E+02 -0.80581320897E+00  0.57891059621E+03  0.58964466405E+03  0.80051927383E+02 0.  0.
        -13    1    5    5    0    0  0.61983545319E+02 -0.23595433472E+02  0.22358757038E+03  0.23321686474E+03  0.00000000000E+00 0.  1.
         14    1    5    5    0    0  0.16338808013E+02  0.22789620263E+02  0.35532302583E+03  0.35642779931E+03  0.00000000000E+00 0. -1.
         13    1    3    3    0    0  0.44249138039E+02  0.22894532135E+02 -0.79141571149E+03  0.79298232906E+03  0.00000000000E+00 0. -1.
        -14    1    3    3    0    0 -0.25640583701E+02  0.69761435524E+02 -0.11405374399E+04  0.11429565824E+04  0.00000000000E+00 0.  1.
          5    1    4    4  501    0 -0.69122131535E+02 -0.88479057553E+02 -0.34105770591E+03  0.35908807256E+03  0.41800000000E+01 0.  1.
         -5    1    4    4    0  501 -0.27808776135E+02 -0.33710968972E+01 -0.42472134771E+00  0.28325697037E+02  0.41800000000E+01 0.  1.
</event>
<event>
11    1  0.8453735E-009  0.1810878E+03  0.7561462E-02  0.1068766E+00
         22   -1    0    0    0    0  0.00000000000E+00  0.00000000000E+00  0.64112114872E+03  0.64112114872E+03  0.00000000000E+00 0.  1.
         22   -1    0    0    0    0 -0.00000000000E+00 -0.00000000000E+00 -0.74298261029E+03  0.74298261029E+03  0.00000000000E+00 0. -1.
        -24    2    1    2    0    0  0.95685024541E+02 -0.71917306842E+02 -0.47239878236E+03  0.49379740640E+03  0.79671488283E+02 0.  0.
         25    2    1    2    0    0 -0.14229408479E+03  0.11119897560E+03 -0.20821656338E+03  0.30267865716E+03  0.12508962185E+03 0.  0.
         24    2    1    2    0    0  0.46609060253E+02 -0.39281668761E+02  0.57875388417E+03  0.58762769544E+03  0.81454257152E+02 0.  0.
        -11    1    5    5    0    0  0.26219015466E+02 -0.62442636019E+02  0.45865431923E+03  0.46362733322E+03  0.00000000000E+00 0.  1.
         12    1    5    5    0    0  0.20390044787E+02  0.23160967258E+02  0.12009956495E+03  0.12400036222E+03  0.00000000000E+00 0. -1.
         13    1    3    3    0    0 -0.11039842483E+02 -0.34697847420E+01 -0.94286267232E+02  0.94993777253E+02  0.00000000000E+00 0. -1.
        -14    1    3    3    0    0  0.10672486702E+03 -0.68447522100E+02 -0.37811251513E+03  0.39880362915E+03  0.00000000000E+00 0.  1.
          5    1    4    4  501    0 -0.83084903965E+02  0.26599344447E+02 -0.22574572559E+02  0.90209257386E+02  0.41800000000E+01 0. -1.
         -5    1    4    4    0  501 -0.59209180829E+02  0.84599631157E+02 -0.18564199082E+03  0.21246939978E+03  0.41800000000E+01 0. -1.
</event>
<event>
11    1  0.8453735E-009  0.2128283E+03  0.7561462E-02  0.1045805E+00
         22   -1    0    0    0    0  0.00000000000E+00  0.00000000000E+00  0.14273973145E+04  0.14273973145E+04  0.00000000000E+00 0.  1.
         22   -1    0    0    0    0 -0.00000000000E+00 -0.00000000000E+00 -0.30260669020E+03  0.30260669020E+03  0.00000000000E+00 0. -1.
        -24    2    1    2    0    0 -0.33966942690E+02 -0.39136963148E+02 -0.23551621419E+03  0.25383867948E+03  0.79251075543E+02 0.  0.
         25    2    1    2    0    0  0.20160349706E+03  0.29490201168E+02  0.23402126894E+03  0.33455487815E+03  0.12508944874E+03 0.  0.
         24    2    1    2    0    0 -0.16763655437E+03  0.96467619802E+01  0.11262855696E+04  0.11416104471E+04  0.80994779571E+02 0.  0.
        -11    1    5    5    0    0 -0.17676837726E+03  0.11232602504E+02  0.10653418373E+04  0.10799659536E+04  0.00000000000E+00 0.  1.
         12    1    5    5    0    0  0.91318228938E+01 -0.15858405238E+01  0.60943732236E+02  0.61644493496E+02  0.00000000000E+00 0. -1.
         11    1    3    3    0    0 -0.34027190422E+02 -0.62341468255E+02 -0.18774518426E+03  0.20073007389E+03  0.00000000000E+00 0. -1.
        -12    1    3    3    0    0  0.60247732219E-01  0.23204505107E+02 -0.47771029927E+02  0.53108605586E+02  0.00000000000E+00 0.  1.
          5    1    4    4  501    0  0.21577994581E+03  0.12012894308E+02  0.21338992363E+03  0.30374006412E+03  0.41800000000E+01 0.  1.
         -5    1    4    4    0  501 -0.14176448755E+02  0.17477306860E+02  0.20631345306E+02  0.30814814027E+02  0.41800000000E+01 0.  1.
</event>
<event>
11    1  0.8453735E-009  0.2531319E+03  0.7561462E-02  0.1022244E+00
         22   -1    0    0    0    0  0.00000000000E+00  0.00000000000E+00  0.18977137535E+04  0.18977137535E+04  0.00000000000E+00 0.  1.
         22   -1    0    0    0    0 -0.00000000000E+00 -0.00000000000E+00 -0.31435885492E+03  0.31435885492E+03  0.00000000000E+00 0.  1.
        -24    2    1    2    0    0 -0.41739546752E+02  0.21275292359E+03 -0.22339973430E+03  0.32101626207E+03  0.78345408115E+02 0.  0.
         25    2    1    2    0    0 -0.50516914129E+02 -0.27379332520E+03  0.56880754129E+03  0.64552246595E+03  0.12506994631E+03 0.  0.
         24    2    1    2    0    0  0.92256460881E+02  0.61040401614E+02  0.12379470916E+04  0.12455338804E+04  0.81267831577E+02 0.  0.
        -13    1    5    5    0    0  0.73583168071E+02  0.43184561650E+02  0.11654815600E+04  0.11686002977E+04  0.00000000000E+00 0.  1.
         14    1    5    5    0    0  0.18673292809E+02  0.17855839964E+02  0.72465531607E+02  0.76933582760E+02  0.00000000000E+00 0. -1.
         11    1    3    3    0    0  0.20105464364E+02  0.29464057933E+02 -0.22763249136E+02  0.42314606443E+02  0.00000000000E+00 0. -1.
        -12    1    3    3    0    0 -0.61845011116E+02  0.18328886566E+03 -0.20063648516E+03  0.27870165563E+03  0.00000000000E+00 0.  1.
          5    1    4    4  501    0 -0.89196622211E+02 -0.22641976398E+03  0.46895678329E+03  0.52835583079E+03  0.41800000000E+01 0.  1.
         -5    1    4    4    0  501  0.38679708082E+02 -0.47373561225E+02  0.99850758000E+02  0.11716663516E+03  0.41800000000E+01 0.  1.
</event>
<event>
11    1  0.8453735E-009  0.1738785E+03  0.7561462E-02  0.1074705E+00
         22   -1    0    0    0    0  0.00000000000E+00  0.00000000000E+00  0.16736817387E+04  0.16736817387E+04  0.00000000000E+00 0.  1.
         22   -1    0    0    0    0 -0.00000000000E+00 -0.00000000000E+00 -0.63619307024E+03  0.63619307024E+03  0.00000000000E+00 0. -1.
         24    2    1    2    0    0 -0.24667696774E+02 -0.76407837753E+02 -0.59176125907E+03  0.60057139431E+03  0.63702111305E+02 0.  0.
         25    2    1    2    0    0  0.66576317974E+02  0.18179900826E+03  0.32903323696E+03  0.40173848345E+03  0.12509057737E+03 0.  0.
        -24    2    1    2    0    0 -0.41908621200E+02 -0.10539117050E+03  0.13002166906E+04  0.13075649312E+04  0.79366085135E+02 0.  0.
        -13    1    3    3    0    0 -0.10151698465E+02 -0.31937739431E+02 -0.80811714674E+02  0.87484909615E+02  0.00000000000E+00 0.  1.
         14    1    3    3    0    0 -0.14515998309E+02 -0.44470098322E+02 -0.51094954440E+03  0.51308648469E+03  0.00000000000E+00 0. -1.
         11    1    5    5    0    0 -0.39938622443E+02 -0.75914855888E+02  0.53967431798E+03  0.54644901719E+03  0.00000000000E+00 0. -1.
        -12    1    5    5    0    0 -0.19699987568E+01 -0.29476314615E+02  0.76054237258E+03  0.76111591398E+03  0.00000000000E+00 0.  1.
          5    1    4    4  501    0  0.19825929753E+02  0.16185969627E+03  0.30383819042E+03  0.34485757513E+03  0.41800000000E+01 0. -1.
         -5    1    4    4    0  501  0.46750388221E+02  0.19939311982E+02  0.25195046535E+02  0.56880908318E+02  0.41800000000E+01 0. -1.
</event>
<event>
11    1  0.8453735E-009  0.1359461E+03  0.7561462E-02  0.1112172E+00
         22   -1    0    0    0    0  0.00000000000E+00  0.00000000000E+00  0.13752534979E+03  0.13752534979E+03  0.00000000000E+00 0.  1.
         22   -1    0    0    0    0 -0.00000000000E+00 -0.00000000000E+00 -0.11569513166E+04  0.11569513166E+04  0.00000000000E+00 0.  1.
         24    2    1    2    0    0 -0.36235043981E+02  0.39790343788E+02 -0.10368732690E+04  0.10413751480E+04  0.80372713199E+02 0.  0.
         25    2    1    2    0    0  0.50599061176E+02 -0.84881124164E+01 -0.47926896251E+02  0.14344772934E+03  0.12509176881E+03 0.  0.
        -24    2    1    2    0    0 -0.14364017195E+02 -0.31302231371E+02  0.65374198408E+02  0.10965378908E+03  0.81018596408E+02 0.  0.
        -13    1    3    3    0    0  0.39034673059E-01  0.33141023438E+02 -0.86289691833E+03  0.86353310337E+03  0.00000000000E+00 0.  1.
         14    1    3    3    0    0 -0.36274078654E+02  0.66493203492E+01 -0.17397635067E+03  0.17784204463E+03  0.00000000000E+00 0. -1.
         11    1    5    5    0    0  0.26464821628E+02 -0.87828615880E+01 -0.17329107662E+01  0.27937938743E+02  0.00000000000E+00 0. -1.
        -12    1    5    5    0    0 -0.40828838823E+02 -0.22519369783E+02  0.67107109174E+02  0.81715850340E+02  0.00000000000E+00 0.  1.
          5    1    4    4  501    0 -0.34695764573E+02 -0.29055259481E+02 -0.27987903055E+02  0.53374144492E+02  0.41800000000E+01 0.  1.
         -5    1    4    4    0  501  0.85294825750E+02  0.20567147065E+02 -0.19938993196E+02  0.90073584850E+02  0.41800000000E+01 0.  1.
</event>
<event>
11    1  0.8453735E-009  0.1411570E+03  0.7561462E-02  0.1106273E+00
         22   -1    0    0    0    0  0.00000000000E+00  0.00000000000E+00  0.21278971552E+03  0.21278971552E+03  0.00000000000E+00 0. -1.
         22   -1    0    0    0    0 -0.00000000000E+00 -0.00000000000E+00 -0.23675288463E+04  0.23675288463E+04  0.00000000000E+00 0. -1.
        -24    2    1    2    0    0  0.32986378181E+02  0.27881686525E+02 -0.22870221591E+04  0.22888038731E+04  0.79292646469E+02 0.  0.
         25    2    1    2    0    0  0.32934914220E+02  0.13189337872E+02  0.17862237648E+02  0.13125290526E+03  0.12509835489E+03 0.  0.
         24    2    1    2    0    0 -0.65921292401E+02 -0.41071024397E+02  0.11442079066E+03  0.16026178345E+03  0.80989357699E+02 0.  0.
        -11    1    5    5    0    0 -0.11855887984E+02 -0.12312498351E+02 -0.11251270457E+02  0.20463401048E+02  0.00000000000E+00 0.  1.
         12    1    5    5    0    0 -0.54065404416E+02 -0.28758526046E+02  0.12567206112E+03  0.13979838240E+03  0.00000000000E+00 0. -1.
         11    1    3    3    0    0  0.36671921457E+02  0.39536087433E+02 -0.83952638303E+03  0.84125648873E+03  0.00000000000E+00 0. -1.
        -12    1    3    3    0    0 -0.36855432763E+01 -0.11654400908E+02 -0.14474957761E+04  0.14475473844E+04  0.00000000000E+00 0.  1.
          5    1    4    4  501    0 -0.58967958708E+01 -0.49964502499E+02  0.25584901963E+02  0.56597555778E+02  0.41800000000E+01 0. -1.
         -5    1    4    4    0  501  0.38831710090E+02  0.63153840371E+02 -0.77226643149E+01  0.74655349482E+02  0.41800000000E+01 0. -1.
</event>
<event>
11    1  0.8453735E-009  0.1796500E+03  0.7561462E-02  0.1069926E+00
         22   -1    0    0    0    0  0.00000000000E+00  0.00000000000E+00  0.10607859945E+04  0.10607859945E+04  0.00000000000E+00 0.  1.
         22   -1    0    0    0    0 -0.00000000000E+00 -0.00000000000E+00 -0.14142461269E+03  0.14142461269E+03  0.00000000000E+00 0. -1.
         24    2    1    2    0    0 -0.28750291787E+02  0.12258826515E+03 -0.69372614318E+02  0.16329233022E+03  0.77442646259E+02 0.  0.
         25    2    1    2    0    0  0.68612732286E+02 -0.16470380120E+03  0.71737305459E+03  0.74973826996E+03  0.12509326451E+03 0.  0.
        -24    2    1    2    0    0 -0.39862440498E+02  0.42115536051E+02  0.27136094157E+03  0.28918000704E+03  0.81397686216E+02 0.  0.
        -11    1    3    3    0    0  0.50681141479E+01 -0.95769648402E+01 -0.15686353518E+01  0.10948271710E+02  0.00000000000E+00 0.  1.
         12    1    3    3    0    0 -0.33818405935E+02  0.13216522999E+03 -0.67803978966E+02  0.15234405851E+03  0.00000000000E+00 0. -1.
         11    1    5    5    0    0 -0.21434579149E+02 -0.76403371538E+01  0.14696794328E+02  0.27088958981E+02  0.00000000000E+00 0. -1.
        -12    1    5    5    0    0 -0.18427861349E+02  0.49755873204E+02  0.25666414724E+03  0.26209104806E+03  0.00000000000E+00 0.  1.
          5    1    4    4  501    0  0.62929326436E+02 -0.33696629682E+02  0.39959702101E+03  0.40594434911E+03  0.41800000000E+01 0.  1.
         -5    1    4    4    0  501  0.56834058493E+01 -0.13100717152E+03  0.31777603358E+03  0.34379392085E+03  0.41800000000E+01 0.  1.
</event>
<event>
11    1  0.8453735E-009  0.2025698E+03  0.7561462E-02  0.1052721E+00
         22   -1    0    0    0    0  0.00000000000E+00  0.00000000000E+00  0.81680877780E+03  0.81680877780E+03  0.00000000000E+00 0. -1.
         22   -1    0    0    0    0 -0.00000000000E+00 -0.00000000000E+00 -0.72283576349E+03  0.72283576349E+03  0.00000000000E+00 0. -1.
        -24    2    1    2    0    0 -0.76832583241E+01 -0.74498726783E+02 -0.66993258471E+03  0.67889153396E+03  0.80467099340E+02 0.  0.
         25    2    1    2    0    0 -0.13476561424E+03  0.11858681706E+03  0.42680897310E+03  0.47962344047E+03  0.12509253043E+03 0.  0.
         24    2    1    2    0    0  0.14244887256E+03 -0.44088090272E+02  0.33709662592E+03  0.38112956685E+03  0.96902892237E+02 0.  0.
        -13    1    5    5    0    0  0.13390877834E+02  0.25914813947E+02  0.78729477289E+02  0.83959655700E+02  0.00000000000E+00 0.  1.
         14    1    5    5    0    0  0.12905799473E+03 -0.70002904219E+02  0.25836714863E+03  0.29716991115E+03  0.00000000000E+00 0. -1.
         13    1    3    3    0    0  0.35126377085E+02 -0.48321332900E+02 -0.36842993914E+03  0.37324178978E+03  0.00000000000E+00 0. -1.
        -14    1    3    3    0    0 -0.42809635410E+02 -0.26177393883E+02 -0.30150264557E+03  0.30564974419E+03  0.00000000000E+00 0.  1.
          5    1    4    4  501    0 -0.12871407330E+03  0.37788131202E+02  0.30553337095E+03  0.33371150518E+03  0.41800000000E+01 0.  1.
         -5    1    4    4    0  501 -0.60515409407E+01  0.80798685853E+02  0.12127560215E+03  0.14591193529E+03  0.41800000000E+01 0.  1.
</event>
<event>
11    1  0.8453735E-009  0.1403021E+03  0.7561462E-02  0.1107222E+00
         22   -1    0    0    0    0  0.00000000000E+00  0.00000000000E+00  0.84670185765E+03  0.84670185765E+03  0.00000000000E+00 0. -1.
         22   -1    0    0    0    0 -0.00000000000E+00 -0.00000000000E+00 -0.23757997456E+03  0.23757997456E+03  0.00000000000E+00 0.  1.
        -24    2    1    2    0    0 -0.72439050436E+00 -0.25543146757E+02 -0.15288658855E+03  0.17493822555E+03  0.81093136019E+02 0.  0.
         25    2    1    2    0    0  0.18155092669E+01 -0.39156536805E+02 -0.91662709094E+01  0.13140854085E+03  0.12509058173E+03 0.  0.
         24    2    1    2    0    0 -0.10911187625E+01  0.64699683562E+02  0.77117474255E+03  0.77793506582E+03  0.79279527558E+02 0.  0.
        -13    1    5    5    0    0  0.26764760623E+02 -0.46163854664E+01  0.24029234178E+03  0.24182239959E+03  0.00000000000E+00 0.  1.
         14    1    5    5    0    0 -0.27855879385E+02  0.69316069029E+02  0.53088240077E+03  0.53611266623E+03  0.00000000000E+00 0. -1.
         11    1    3    3    0    0 -0.23452666442E+02  0.65157800289E+01 -0.92771919780E+01  0.26048977784E+02  0.00000000000E+00 0. -1.
        -12    1    3    3    0    0  0.22728275937E+02 -0.32058926786E+02 -0.14360939658E+03  0.14888924776E+03  0.00000000000E+00 0.  1.
          5    1    4    4  501    0 -0.54031477830E+02 -0.27724348799E+02 -0.33275115426E+02  0.69373956349E+02  0.41800000000E+01 0.  1.
         -5    1    4    4    0  501  0.55846987097E+02 -0.11432188005E+02  0.24108844516E+02  0.62034584502E+02  0.41800000000E+01 0.  1.
</event>
<event>
11    1  0.8453735E-009  0.1527805E+03  0.7561462E-02  0.1094071E+00
         22   -1    0    0    0    0  0.00000000000E+00  0.00000000000E+00  0.72438911188E+03  0.72438911188E+03  0.00000000000E+00 0. -1.
         22   -1    0    0    0    0 -0.00000000000E+00 -0.00000000000E+00 -0.68175221739E+03  0.68175221739E+03  0.00000000000E+00 0. -1.
         24    2    1    2    0    0 -0.87065232391E+02  0.72751915308E+01 -0.64513391624E+03  0.65653546850E+03  0.84898577172E+02 0.  0.
         25    2    1    2    0    0  0.10178756923E+03 -0.12400997007E+02  0.21427457152E+03  0.26846916461E+03  0.12509039279E+03 0.  0.
        -24    2    1    2    0    0 -0.14722336836E+02  0.51258054760E+01  0.47349623921E+03  0.48113669616E+03  0.83969106004E+02 0.  0.
        -13    1    3    3    0    0  0.12749337922E+02  0.95255143375E+01 -0.37252378748E+02  0.40509514477E+02  0.00000000000E+00 0.  1.
         14    1    3    3    0    0 -0.99814570313E+02 -0.22503228066E+01 -0.60788153750E+03  0.61602595402E+03  0.00000000000E+00 0. -1.
         13    1    5    5    0    0  0.19068242986E+02  0.31940777630E+02  0.30269527510E+03  0.30497252455E+03  0.00000000000E+00 0. -1.
        -14    1    5    5    0    0 -0.33790579823E+02 -0.26814972154E+02  0.17080096411E+03  0.17616417161E+03  0.00000000000E+00 0.  1.
          5    1    4    4  501    0  0.74271151919E+02 -0.66516702562E+02  0.14794270317E+03  0.17845221083E+03  0.41800000000E+01 0. -1.
         -5    1    4    4    0  501  0.27516417309E+02  0.54115705555E+02  0.66331868345E+02  0.90016953778E+02  0.41800000000E+01 0. -1.
</event>
<event>
11    1  0.8453735E-009  0.1320986E+03  0.7561462E-02  0.1116717E+00
         22   -1    0    0    0    0  0.00000000000E+00  0.00000000000E+00  0.14946375226E+04  0.14946375226E+04  0.00000000000E+00 0. -1.
         22   -1    0    0    0    0 -0.00000000000E+00 -0.00000000000E+00 -0.72158542322E+02  0.72158542322E+02  0.00000000000E+00 0. -1.
        -24    2    1    2    0    0  0.28810193539E+02  0.17147282155E+02 -0.33041468398E+02  0.93767112668E+02  0.81095476120E+02 0.  0.
         25    2    1    2    0    0  0.23310304456E+02 -0.20865000518E-01  0.74214559426E+03  0.75297404718E+03  0.12508581823E+03 0.  0.
         24    2    1    2    0    0 -0.52120497995E+02 -0.17126417154E+02  0.71337485438E+03  0.72005490504E+03  0.81027914498E+02 0.  0.
        -11    1    5    5    0    0 -0.32544690943E+02 -0.12304493171E+02  0.92097699420E+02  0.98450717109E+02  0.00000000000E+00 0.  1.
         12    1    5    5    0    0 -0.19575807052E+02 -0.48219239830E+01  0.62127715496E+03  0.62160418793E+03  0.00000000000E+00 0. -1.
         11    1    3    3    0    0  0.40042858557E+02  0.37399696633E+02 -0.41894993830E+02  0.68973606095E+02  0.00000000000E+00 0. -1.
        -12    1    3    3    0    0 -0.11232665018E+02 -0.20252414479E+02  0.88535254318E+01  0.24793506573E+02  0.00000000000E+00 0.  1.
          5    1    4    4  501    0  0.60386668523E+02 -0.23963594544E+02  0.23366925479E+03  0.24256874620E+03  0.41800000000E+01 0.  1.
         -5    1    4    4    0  501 -0.37076364066E+02  0.23942729544E+02  0.50847633947E+03  0.51040530098E+03  0.41800000000E+01 0.  1.
</event>
<event>
11    1  0.8453735E-009  0.2375909E+03  0.7561462E-02  0.1030725E+00
         22   -1    0    0    0    0  0.00000000000E+00  0.00000000000E+00  0.99895891038E+03  0.99895891038E+03  0.00000000000E+00 0.  1.
         22   -1    0    0    0    0 -0.00000000000E+00 -0.00000000000E+00 -0.42562805286E+03  0.42562805286E+03  0.00000000000E+00 0.  1.
        -24    2    1    2    0    0 -0.11569934848E+03 -0.55754529861E+02 -0.25482234157E+03  0.29619209376E+03  0.79375209016E+02 0.  0.
         25    2    1    2    0    0  0.30642448547E+03  0.65018815959E+02  0.72713028483E+02  0.34504685317E+03  0.12508690838E+03 0.  0.
         24    2    1    2    0    0 -0.19072513699E+03 -0.92642860978E+01  0.75544017061E+03  0.78334801630E+03  0.80513094538E+02 0.  0.
        -11    1    5    5    0    0 -0.15641710260E+03  0.19190743407E+02  0.50652421382E+03  0.53047278328E+03  0.00000000000E+00 0.  1.
         12    1    5    5    0    0 -0.34308034385E+02 -0.28455029505E+02  0.24891595679E+03  0.25287523302E+03  0.00000000000E+00 0. -1.
         13    1    3    3    0    0  0.11848106164E+02 -0.27949173594E+00 -0.21912537878E+02  0.24912146667E+02  0.00000000000E+00 0. -1.
        -14    1    3    3    0    0 -0.12754745465E+03 -0.55475038125E+02 -0.23290980369E+03  0.27127994710E+03  0.00000000000E+00 0.  1.
          5    1    4    4  501    0  0.26831293164E+03  0.95289742451E+02  0.43326396431E+02  0.28803925658E+03  0.41800000000E+01 0.  1.
         -5    1    4    4    0  501  0.38111553830E+02 -0.30270926492E+02  0.29386632052E+02  0.57007596594E+02  0.41800000000E+01 0.  1.
</event>
<event>
11    1  0.8453735E-009  0.2213463E+03  0.7561462E-02  0.1040377E+00
         22   -1    0    0    0    0  0.00000000000E+00  0.00000000000E+00  0.22442309474E+04  0.22442309474E+04  0.00000000000E+00 0.  1.
         22   -1    0    0    0    0 -0.00000000000E+00 -0.00000000000E+00 -0.63881266615E+03  0.63881266615E+03  0.00000000000E+00 0. -1.
         24    2    1    2    0    0 -0.12571513462E+03 -0.99000127728E+02 -0.49342747268E+03  0.52489747152E+03  0.80258111391E+02 0.  0.
         25    2    1    2    0    0  0.26586599036E+03 -0.15958865201E+02  0.48359984791E+02  0.29820362236E+03  0.12508917640E+03 0.  0.
        -24    2    1    2    0    0 -0.14015085574E+03  0.11495899293E+03  0.20504857692E+04  0.20599425197E+04  0.77546518297E+02 0.  0.
        -13    1    3    3    0    0 -0.23260306601E+02  0.12173207029E+02 -0.51146012429E+02  0.57490376759E+02  0.00000000000E+00 0.  1.
         14    1    3    3    0    0 -0.10245482802E+03 -0.11117333476E+03 -0.44228146026E+03  0.46740709476E+03  0.00000000000E+00 0. -1.
         11    1    5    5    0    0 -0.60270916434E+02  0.78853665025E+02  0.75520120164E+03  0.76169504319E+03  0.00000000000E+00 0. -1.
        -12    1    5    5    0    0 -0.79879939306E+02  0.36105327903E+02  0.12952845675E+04  0.12982474765E+04  0.00000000000E+00 0.  1.
          5    1    4    4  501    0  0.10735022609E+03 -0.67409325887E+02  0.10594531262E+02  0.12727059657E+03  0.41800000000E+01 0.  1.
         -5    1    4    4    0  501  0.15851576427E+03  0.51450460687E+02  0.37765453528E+02  0.17093302579E+03  0.41800000000E+01 0.  1.
</event>
<event>
11    1  0.8453735E-009  0.1824574E+03  0.7561462E-02  0.1067672E+00
         22   -1    0    0    0    0  0.00000000000E+00  0.00000000000E+00  0.23992463994E+04  0.23992463994E+04  0.00000000000E+00 0. -1.
         22   -1    0    0    0    0 -0.00000000000E+00 -0.00000000000E+00 -0.17475786884E+04  0.17475786884E+04  0.00000000000E+00 0.  1.
         24    2    1    2    0    0  0.34045041285E+02 -0.12590489888E+03 -0.12667936294E+04  0.12755360408E+04  0.72214842120E+02 0.  0.
         25    2    1    2    0    0  0.23177142107E+02  0.15306522596E+03 -0.45426537201E+03  0.49595568858E+03  0.12509545764E+03 0.  0.
        -24    2    1    2    0    0 -0.57222183391E+02 -0.27160327079E+02  0.23727267125E+04  0.23753333584E+04  0.91457365576E+02 0.  0.
        -13    1    3    3    0    0  0.21106815323E+02 -0.12177717407E+03 -0.12320328335E+04  0.12382164918E+04  0.00000000000E+00 0.  1.
         14    1    3    3    0    0  0.12938225961E+02 -0.41277248082E+01 -0.34760795958E+02  0.37319549016E+02  0.00000000000E+00 0. -1.
         11    1    5    5    0    0 -0.47034681459E+02 -0.60202970547E+02  0.17084689900E+04  0.17101762917E+04  0.00000000000E+00 0. -1.
        -12    1    5    5    0    0 -0.10187501932E+02  0.33042643468E+02  0.66425772249E+03  0.66515706669E+03  0.00000000000E+00 0.  1.
          5    1    4    4  501    0  0.64235315042E+02  0.41452163753E+02 -0.22461446227E+03  0.23730483906E+03  0.41800000000E+01 0.  1.
         -5    1    4    4    0  501 -0.41058172935E+02  0.11161306220E+03 -0.22965090973E+03  0.25865084953E+03  0.41800000000E+01 0.  1.
</event>
<event>
11    1  0.8453735E-009  0.1414164E+03  0.7561462E-02  0.1105987E+00
         22   -1    0    0    0    0  0.00000000000E+00  0.00000000000E+00  0.17650137725E+03  0.17650137725E+03  0.00000000000E+00 0. -1.
         22   -1    0    0    0    0 -0.00000000000E+00 -0.00000000000E+00 -0.52523492330E+03  0.52523492330E+03  0.00000000000E+00 0. -1.
        -24    2    1    2    0    0  0.55455526968E+02  0.40595522151E+02 -0.44242459265E+03  0.45500685632E+03  0.81045710698E+02 0.  0.
         25    2    1    2    0    0 -0.19939378821E+02 -0.28928599022E+02  0.19156218420E+02  0.13132185151E+03  0.12507607809E+03 0.  0.
         24    2    1    2    0    0 -0.35516148147E+02 -0.11666923128E+02  0.74534828181E+02  0.11540759272E+03  0.79786953646E+02 0.  0.
        -11    1    5    5    0    0 -0.70235166710E+01 -0.11278743655E+02 -0.15823798748E+02  0.20662343809E+02  0.00000000000E+00 0.  1.
         12    1    5    5    0    0 -0.28492631476E+02 -0.38817947350E+00  0.90358626929E+02  0.94745248916E+02  0.00000000000E+00 0. -1.
         11    1    3    3    0    0  0.60390571460E+02  0.56874359771E+02 -0.41085382609E+03  0.41914505882E+03  0.00000000000E+00 0. -1.
        -12    1    3    3    0    0 -0.49350444917E+01 -0.16278837620E+02 -0.31570766559E+02  0.35861797494E+02  0.00000000000E+00 0.  1.
          5    1    4    4  501    0 -0.49423005696E+02 -0.15971215769E+02  0.59786921922E+02  0.79307387160E+02  0.41800000000E+01 0. -1.
         -5    1    4    4    0  501  0.29483626875E+02 -0.12957383254E+02 -0.40630703503E+02  0.52014464350E+02  0.41800000000E+01 0. -1.
</event>
<event>
11    1  0.8453735E-009  0.1659289E+03  0.7561462E-02  0.1081630E+00
         22   -1    0    0    0    0  0.00000000000E+00  0.00000000000E+00  0.16574322617E+03  0.16574322617E+03  0.00000000000E+00 0.  1.
         22   -1    0    0    0    0 -0.00000000000E+00 -0.00000000000E+00 -0.64240050779E+03  0.64240050779E+03  0.00000000000E+00 0. -1.
         24    2    1    2    0    0  0.75712865425E+01  0.35545770263E+00 -0.48985998452E+03  0.49446469217E+03  0.66896013655E+02 0.  0.
         25    2    1    2    0    0 -0.63569651186E+01 -0.10927775268E+03 -0.36056935860E+02  0.17007290036E+03  0.12507058238E+03 0.  0.
        -24    2    1    2    0    0 -0.12143214240E+01  0.10892229497E+03  0.49259638766E+02  0.14360614143E+03  0.79565513421E+02 0.  0.
        -11    1    3    3    0    0  0.12370729795E+02  0.32087871107E+02 -0.29210983764E+03  0.29412722362E+03  0.00000000000E+00 0.  1.
         12    1    3    3    0    0 -0.47994432523E+01 -0.31732413404E+02 -0.19775014687E+03  0.20033746855E+03  0.00000000000E+00 0. -1.
         11    1    5    5    0    0 -0.18417084353E+02 -0.21935870383E+01  0.20299764088E+02  0.27496931505E+02  0.00000000000E+00 0. -1.
        -12    1    5    5    0    0  0.17202762929E+02  0.11111588201E+03  0.28959874678E+02  0.11610920992E+03  0.00000000000E+00 0.  1.
          5    1    4    4  501    0  0.24654002299E+02 -0.11060181674E+03  0.10590348026E+02  0.11388682789E+03  0.41800000000E+01 0. -1.
         -5    1    4    4    0  501 -0.31010967417E+02  0.13240640610E+01 -0.46647283886E+02  0.56186072471E+02  0.41800000000E+01 0. -1.
</event>
<event>
11    1  0.8453735E-009  0.1880954E+03  0.7561462E-02  0.1063276E+00
         22   -1    0    0    0    0  0.00000000000E+00  0.00000000000E+00  0.13305466772E+03  0.13305466772E+03  0.00000000000E+00 0. -1.
         22   -1    0    0    0    0 -0.00000000000E+00 -0.00000000000E+00 -0.25276516319E+04  0.25276516319E+04  0.00000000000E+00 0. -1.
        -24    2    1    2    0    0 -0.33200209898E+02 -0.43753430448E+02 -0.22614176208E+04  0.22634415657E+04  0.78367398487E+02 0.  0.
         25    2    1    2    0    0 -0.11637769361E+03  0.14127889456E+02 -0.14510904182E+03  0.22460355227E+03  0.12508699711E+03 0.  0.
         24    2    1    2    0    0  0.14957790351E+03  0.29625540991E+02  0.11929698402E+02  0.17266118167E+03  0.80114568302E+02 0.  0.
        -13    1    5    5    0    0  0.12713141172E+01 -0.93419251563E+01 -0.14265326931E+02  0.17099337931E+02  0.00000000000E+00 0.  1.
         14    1    5    5    0    0  0.14830658939E+03  0.38967466148E+02  0.26195025334E+02  0.15556184374E+03  0.00000000000E+00 0. -1.
         11    1    3    3    0    0 -0.50347402193E+02 -0.13999273761E+02 -0.17953888496E+04  0.17961492037E+04  0.00000000000E+00 0. -1.
        -12    1    3    3    0    0  0.17147192294E+02 -0.29754156687E+02 -0.46602877118E+03  0.46729236203E+03  0.00000000000E+00 0.  1.
          5    1    4    4  501    0  0.12295655166E+02  0.38185385534E+02 -0.37970973433E+02  0.55394711190E+02  0.41800000000E+01 0. -1.
         -5    1    4    4    0  501 -0.12867334878E+03 -0.24057496078E+02 -0.10713806838E+03  0.16920884108E+03  0.41800000000E+01 0. -1.
</event>
<event>
11    1  0.8453735E-009  0.1415290E+03  0.7561462E-02  0.1105863E+00
         22   -1    0    0    0    0  0.00000000000E+00  0.00000000000E+00  0.52304293559E+03  0.52304293559E+03  0.00000000000E+00 0.  1.
         22   -1    0    0    0    0 -0.00000000000E+00 -0.00000000000E+00 -0.15170948289E+03  0.15170948289E+03  0.00000000000E+00 0.  1.
        -24    2    1    2    0    0  0.49196796675E+02 -0.19187871945E+02 -0.39756219460E+02  0.10569872927E+03  0.82481301821E+02 0.  0.
         25    2    1    2    0    0 -0.96635628574E+02  0.59172698965E+02  0.25885480418E+02  0.17075690457E+03  0.12509200354E+03 0.  0.
         24    2    1    2    0    0  0.47438831899E+02 -0.39984827019E+02  0.38520419175E+03  0.39829678464E+03  0.80055169434E+02 0.  0.
        -11    1    5    5    0    0  0.46780673388E+02 -0.13099271187E+02  0.35305738150E+03  0.35638397402E+03  0.00000000000E+00 0.  1.
         12    1    5    5    0    0  0.65815851059E+00 -0.26885555832E+02  0.32146810248E+02  0.41912810621E+02  0.00000000000E+00 0. -1.
         11    1    3    3    0    0  0.73418685025E+01 -0.24417824874E+02 -0.55180465149E+02  0.60786650992E+02  0.00000000000E+00 0. -1.
        -12    1    3    3    0    0  0.41854928173E+02  0.52299529284E+01  0.15424245689E+02  0.44912078276E+02  0.00000000000E+00 0.  1.
          5    1    4    4  501    0  0.75369509654E+01  0.63424032668E+02  0.39195293336E+01  0.64126817010E+02  0.41800000000E+01 0.  1.
         -5    1    4    4    0  501 -0.10417257954E+03 -0.42513337030E+01  0.21965951084E+02  0.10663008756E+03  0.41800000000E+01 0.  1.
</event>
<event>
11    1  0.8453735E-009  0.3569939E+03  0.7561462E-02  0.9785933E-01
         22   -1    0    0    0    0  0.00000000000E+00  0.00000000000E+00  0.33718010991E+03  0.33718010991E+03  0.00000000000E+00 0.  1.
         22   -1    0    0    0    0 -0.00000000000E+00 -0.00000000000E+00 -0.82059829019E+03  0.82059829019E+03  0.00000000000E+00 0. -1.
         24    2    1    2    0    0  0.11488442655E+03  0.90835260642E+02 -0.18136957382E+03  0.24228628855E+03  0.66017022609E+02 0.  0.
         25    2    1    2    0    0 -0.24546341680E+03  0.22465991858E+03 -0.41516422854E+03  0.54656566048E+03  0.12509323141E+03 0.  0.
        -24    2    1    2    0    0  0.13057899025E+03 -0.31549517923E+03  0.11311562208E+03  0.36892645106E+03  0.81996960477E+02 0.  0.
        -11    1    3    3    0    0  0.11618552638E+03  0.67113382852E+02 -0.13585689755E+03  0.19094601151E+03  0.00000000000E+00 0.  1.
         12    1    3    3    0    0 -0.13010998225E+01  0.23721877789E+02 -0.45512676266E+02  0.51340277049E+02  0.00000000000E+00 0. -1.
         11    1    5    5    0    0 -0.10903793310E+02 -0.21136093027E+02  0.16765188344E+01  0.23841934745E+02  0.00000000000E+00 0. -1.
        -12    1    5    5    0    0  0.14148278356E+03 -0.29435908620E+03  0.11143910324E+03  0.34508451632E+03  0.00000000000E+00 0.  1.
          5    1    4    4  501    0 -0.41166479198E+02  0.74284185530E+01 -0.95504662880E+01  0.43110836435E+02  0.41800000000E+01 0. -1.
         -5    1    4    4    0  501 -0.20429693761E+03  0.21723150003E+03 -0.40561376225E+03  0.50345482404E+03  0.41800000000E+01 0. -1.
</event>
<event>
11    1  0.8453735E-009  0.1543700E+03  0.7561462E-02  0.1092495E+00
         22   -1    0    0    0    0  0.00000000000E+00  0.00000000000E+00  0.33586871215E+03  0.33586871215E+03  0.00000000000E+00 0.  1.
         22   -1    0    0    0    0 -0.00000000000E+00 -0.00000000000E+00 -0.17018921133E+04  0.17018921133E+04  0.00000000000E+00 0. -1.
         24    2    1    2    0    0 -0.18651340172E+02 -0.21964670546E+02 -0.11509229953E+04  0.11538730622E+04  0.77259195232E+02 0.  0.
         25    2    1    2    0    0 -0.13087298845E+02  0.10636581147E+03 -0.52547662095E+03  0.55068781349E+03  0.12508567274E+03 0.  0.
        -24    2    1    2    0    0  0.31738639017E+02 -0.84401140924E+02  0.31037621509E+03  0.33319994981E+03  0.80980972227E+02 0.  0.
        -13    1    3    3    0    0  0.24821746796E+02 -0.51235846322E+01 -0.17377903621E+03  0.17561754941E+03  0.00000000000E+00 0.  1.
         14    1    3    3    0    0 -0.43473086968E+02 -0.16841085914E+02 -0.97714395909E+03  0.97825551277E+03  0.00000000000E+00 0. -1.
         11    1    5    5    0    0  0.11936601539E+02 -0.46281161385E+02  0.49493480316E+02  0.68804309089E+02  0.00000000000E+00 0. -1.
        -12    1    5    5    0    0  0.19802037478E+02 -0.38119979539E+02  0.26088273477E+03  0.26439564072E+03  0.00000000000E+00 0.  1.
          5    1    4    4  501    0 -0.44727876852E+02  0.10334452953E+03 -0.26115754435E+03  0.28443173191E+03  0.41800000000E+01 0.  1.
         -5    1    4    4    0  501  0.31640578007E+02  0.30212819423E+01 -0.26431907660E+03  0.26625608158E+03  0.41800000000E+01 0.  1.
</event>
<event>
11    1  0.8453735E-009  0.1328696E+03  0.7561462E-02  0.1115793E+00
         22   -1    0    0    0    0  0.00000000000E+00  0.00000000000E+00  0.55892126807E+03  0.55892126807E+03  0.00000000000E+00 0.  1.
         22   -1    0    0    0    0 -0.00000000000E+00 -0.00000000000E+00 -0.23170150391E+03  0.23170150391E+03  0.00000000000E+00 0. -1.
         24    2    1    2    0    0 -0.37432491936E+02 -0.25697825097E+02 -0.13235998526E+03  0.16153396950E+03  0.80699987213E+02 0.  0.
         25    2    1    2    0    0  0.37823635597E+02  0.20025768756E+02 -0.27743174104E+02  0.13508767614E+03  0.12508931894E+03 0.  0.
        -24    2    1    2    0    0 -0.39114366146E+00  0.56720563409E+01  0.48732292352E+03  0.49400112634E+03  0.80753673712E+02 0.  0.
        -11    1    3    3    0    0 -0.23795170141E+02 -0.32232978859E+02 -0.14346920100E+02  0.42555953339E+02  0.00000000000E+00 0.  1.
         12    1    3    3    0    0 -0.13637321794E+02  0.65351537625E+01 -0.11801306516E+03  0.11897801616E+03  0.00000000000E+00 0. -1.
         11    1    5    5    0    0 -0.12722502792E+02  0.12962220067E+02  0.22313269763E+02  0.28770874750E+02  0.00000000000E+00 0. -1.
        -12    1    5    5    0    0  0.12331359130E+02 -0.72901637259E+01  0.46500965376E+03  0.46523025159E+03  0.00000000000E+00 0.  1.
          5    1    4    4  501    0 -0.39608764906E+02  0.30371250287E+02  0.48830462868E+01  0.50324781593E+02  0.41800000000E+01 0.  1.
         -5    1    4    4    0  501  0.77432400503E+02 -0.10345481531E+02 -0.32626220391E+02  0.84762894551E+02  0.41800000000E+01 0.  1.
</event>
<event>
11    1  0.8453735E-009  0.1333882E+03  0.7561462E-02  0.1115175E+00
         22   -1    0    0    0    0  0.00000000000E+00  0.00000000000E+00  0.17869706921E+03  0.17869706921E+03  0.00000000000E+00 0. -1.
         22   -1    0    0    0    0 -0.00000000000E+00 -0.00000000000E+00 -0.43284989580E+03  0.43284989580E+03  0.00000000000E+00 0. -1.
         24    2    1    2    0    0 -0.12736362456E+02  0.27827110534E+02 -0.29947417077E+03  0.31180982310E+03  0.81265145136E+02 0.  0.
         25    2    1    2    0    0  0.40179258363E+02  0.11856046957E+02 -0.71049486987E+02  0.14983389298E+03  0.12508887733E+03 0.  0.
        -24    2    1    2    0    0 -0.27442895907E+02 -0.39683157492E+02  0.11637083118E+03  0.14990324893E+03  0.81246219401E+02 0.  0.
        -11    1    3    3    0    0 -0.11175444309E+02  0.26551399693E+02 -0.27493240679E+02  0.39821422177E+02  0.00000000000E+00 0.  1.
         12    1    3    3    0    0 -0.15609181463E+01  0.12757108419E+01 -0.27198093009E+03  0.27198840093E+03  0.00000000000E+00 0. -1.
         13    1    5    5    0    0 -0.81103101081E+01 -0.10714712271E+02  0.11422227103E+03  0.11501004038E+03  0.00000000000E+00 0. -1.
        -14    1    5    5    0    0 -0.19332585799E+02 -0.28968445220E+02  0.21485601451E+01  0.34893208549E+02  0.00000000000E+00 0.  1.
          5    1    4    4  501    0  0.18922069360E+00  0.53910156887E+02 -0.73913620355E+02  0.91580764869E+02  0.41800000000E+01 0. -1.
         -5    1    4    4    0  501  0.39990037669E+02 -0.42054109930E+02  0.28641333680E+01  0.58253128111E+02  0.41800000000E+01 0. -1.
</event>
<event>
11    1  0.8453735E-009  0.1467576E+03  0.7561462E-02  0.1100239E+00
         22   -1    0    0    0    0  0.00000000000E+00  0.00000000000E+00  0.17910231565E+03  0.17910231565E+03  0.00000000000E+00 0. -1.
         22   -1    0    0    0    0 -0.00000000000E+00 -0.00000000000E+00 -0.66358321361E+03  0.66358321361E+03  0.00000000000E+00 0.  1.
         24    2    1    2    0    0 -0.72307035208E+00  0.76533795003E+02 -0.50889342222E+03  0.52355301468E+03  0.96318738551E+02 0.  0.
         25    2    1    2    0    0  0.26715298733E+01 -0.77969367286E+02 -0.95374986842E+02  0.17557923026E+03  0.12508124830E+03 0.  0.
        -24    2    1    2    0    0 -0.19484595213E+01  0.14355722828E+01  0.11978751111E+03  0.14355328432E+03  0.79073638214E+02 0.  0.
        -13    1    3    3    0    0  0.41738230274E+02  0.67874060090E+02 -0.33273765556E+03  0.34214516704E+03  0.00000000000E+00 0.  1.
         14    1    3    3    0    0 -0.42461300626E+02  0.86597349131E+01 -0.17615576665E+03  0.18140784764E+03  0.00000000000E+00 0. -1.
         13    1    5    5    0    0  0.12085499106E+01 -0.30088822847E+02  0.10377276330E+03  0.10805361750E+03  0.00000000000E+00 0. -1.
        -14    1    5    5    0    0 -0.31570094319E+01  0.31524395130E+02  0.16014747809E+02  0.35499666819E+02  0.00000000000E+00 0.  1.
          5    1    4    4  501    0  0.53450213632E+01  0.30529637747E+02 -0.47528199712E+02  0.56894904888E+02  0.41800000000E+01 0.  1.
         -5    1    4    4    0  501 -0.26734914899E+01 -0.10849900503E+03 -0.47846787131E+02  0.11868432537E+03  0.41800000000E+01 0.  1.
</event>
<event>
11    1  0.8453735E-009  0.1585216E+03  0.7561462E-02  0.1088476E+00
         22   -1    0    0    0    0  0.00000000000E+00  0.00000000000E+00  0.16317322104E+04  0.16317322104E+04  0.00000000000E+00 0.  1.
         22   -1    0    0    0    0 -0.00000000000E+00 -0.00000000000E+00 -0.37777536505E+03  0.37777536505E+03  0.00000000000E+00 0. -1.
         24    2    1    2    0    0  0.57306197480E+02  0.78042574694E+02 -0.34764981574E+03  0.36978276342E+03  0.80648955382E+02 0.  0.
         25    2    1    2    0    0  0.49427295947E+02 -0.45201236150E+02  0.31163523090E+03  0.34242232691E+03  0.12510125297E+03 0.  0.
        -24    2    1    2    0    0 -0.10673349343E+03 -0.32841338544E+02  0.12899714302E+04  0.12973024851E+04  0.80603070794E+02 0.  0.
        -11    1    3    3    0    0  0.18911259075E+02 -0.15141526393E+02 -0.87533286252E+02  0.90823883111E+02  0.00000000000E+00 0.  1.
         12    1    3    3    0    0  0.38394938405E+02  0.93184101087E+02 -0.26011652949E+03  0.27895888031E+03  0.00000000000E+00 0. -1.
         11    1    5    5    0    0 -0.29907154219E+02 -0.50636856580E+02  0.53337117029E+03  0.53660351696E+03  0.00000000000E+00 0. -1.
        -12    1    5    5    0    0 -0.76826339209E+02  0.17795518036E+02  0.75660025989E+03  0.76069896813E+03  0.00000000000E+00 0.  1.
          5    1    4    4  501    0  0.67071489565E+02 -0.52451307136E+01  0.71315843002E+02  0.98130107367E+02  0.41800000000E+01 0. -1.
         -5    1    4    4    0  501 -0.17644193618E+02 -0.39956105437E+02  0.24031938790E+03  0.24429221955E+03  0.41800000000E+01 0. -1.
</event>
<event>
11    1  0.8453735E-009  0.4449182E+03  0.7561462E-02  0.9525796E-01
         22   -1    0    0    0    0  0.00000000000E+00  0.00000000000E+00  0.25272373885E+04  0.25272373885E+04  0.00000000000E+00 0. -1.
         22   -1    0    0    0    0 -0.00000000000E+00 -0.00000000000E+00 -0.54670743994E+03  0.54670743994E+03  0.00000000000E+00 0. -1.
         24    2    1    2    0    0  0.54145973193E+02 -0.87787325780E+01 -0.45026652453E+03  0.46018910961E+03  0.77622296624E+02 0.  0.
         25    2    1    2    0    0 -0.23657743591E+03  0.38424995574E+03  0.78595073244E+03  0.91486751095E+03  0.12508835717E+03 0.  0.
        -24    2    1    2    0    0  0.18243146272E+03 -0.37547122316E+03  0.16448457407E+04  0.16988882079E+04  0.80272998597E+02 0.  0.
        -11    1    3    3    0    0 -0.77527322016E+01  0.14492110178E+02 -0.25717125336E+02  0.30520430036E+02  0.00000000000E+00 0.  1.
         12    1    3    3    0    0  0.61898705394E+02 -0.23270842756E+02 -0.42454939919E+03  0.42966867958E+03  0.00000000000E+00 0. -1.
         11    1    5    5    0    0  0.16542340509E+03 -0.25954485422E+03  0.12109205587E+04  0.12494226802E+04  0.00000000000E+00 0. -1.
        -12    1    5    5    0    0  0.17008057627E+02 -0.11592636894E+03  0.43392518193E+03  0.44946552766E+03  0.00000000000E+00 0.  1.
          5    1    4    4  501    0  0.92474682228E+01  0.56834417474E+02  0.78038324892E+02  0.97072752254E+02  0.41800000000E+01 0. -1.
         -5    1    4    4    0  501 -0.24582490413E+03  0.32741553827E+03  0.70791240755E+03  0.81779475870E+03  0.41800000000E+01 0. -1.
</event>
<event>
11    1  0.8453735E-009  0.1974432E+04  0.7561462E-02  0.8077542E-01
         22   -1    0    0    0    0  0.00000000000E+00  0.00000000000E+00  0.90954607307E+03  0.90954607307E+03  0.00000000000E+00 0. -1.
         22   -1    0    0    0    0 -0.00000000000E+00 -0.00000000000E+00 -0.10715189457E+04  0.10715189457E+04  0.00000000000E+00 0. -1.
         24    2    1    2    0    0  0.73054315611E+03 -0.83237525178E+01 -0.22829027947E+03  0.76966945532E+03  0.80697155780E+02 0.  0.
         25    2    1    2    0    0 -0.91751804824E+03  0.17757165887E+03  0.34436652304E+02  0.94350764425E+03  0.12509887633E+03 0.  0.
        -24    2    1    2    0    0  0.18697489212E+03 -0.16924790635E+03  0.31880754584E+02  0.26788791915E+03  0.84516806769E+02 0.  0.
        -13    1    3    3    0    0  0.27029480347E+03  0.16156627618E+02 -0.49264856556E+02  0.27522235282E+03  0.00000000000E+00 0.  1.
         14    1    3    3    0    0  0.46024835264E+03 -0.24480380136E+02 -0.17902542292E+03  0.49444710250E+03  0.00000000000E+00 0. -1.
         11    1    5    5    0    0  0.66540961072E+02 -0.19178876599E+02  0.29976953878E+02  0.75459569120E+02  0.00000000000E+00 0. -1.
        -12    1    5    5    0    0  0.12043393105E+03 -0.15006902975E+03  0.19038007056E+01  0.19242835003E+03  0.00000000000E+00 0.  1.
          5    1    4    4  501    0 -0.50251248793E+03  0.15686898959E+03  0.39609306458E+02  0.52793280820E+03  0.41800000000E+01 0.  1.
         -5    1    4    4    0  501 -0.41500556031E+03  0.20702669276E+02 -0.51726541535E+01  0.41557483604E+03  0.41800000000E+01 0.  1.
</event>
<event>
11    1  0.8453735E-009  0.1688781E+03  0.7561462E-02  0.1079012E+00
         22   -1    0    0    0    0  0.00000000000E+00  0.00000000000E+00  0.11519825320E+03  0.11519825320E+03  0.00000000000E+00 0. -1.
         22   -1    0    0    0    0 -0.00000000000E+00 -0.00000000000E+00 -0.43610383718E+03  0.43610383718E+03  0.00000000000E+00 0. -1.
         24    2    1    2    0    0 -0.27055165091E+02  0.80042260478E+02 -0.14845925321E+03  0.18788981132E+03  0.78253983367E+02 0.  0.
         25    2    1    2    0    0 -0.63838494980E+02 -0.12480243282E+03 -0.80927622343E+02  0.20456461809E+03  0.12508557966E+03 0.  0.
        -24    2    1    2    0    0  0.90893660071E+02  0.44760172344E+02 -0.91518708428E+02  0.15884766096E+03  0.81189746468E+02 0.  0.
        -11    1    3    3    0    0  0.10122286979E+02  0.89913266697E+01  0.52493531257E+01  0.14521031548E+02  0.00000000000E+00 0.  1.
         12    1    3    3    0    0 -0.37177452070E+02  0.71050933809E+02 -0.15370860633E+03  0.17336877977E+03  0.00000000000E+00 0. -1.
         11    1    5    5    0    0  0.10519388021E+03  0.36268486728E+02 -0.87963381461E+02  0.14184044572E+03  0.00000000000E+00 0. -1.
        -12    1    5    5    0    0 -0.14300220138E+02  0.84916856155E+01 -0.35553269676E+01  0.17007215246E+02  0.00000000000E+00 0.  1.
          5    1    4    4  501    0 -0.10122602870E+03 -0.81560777019E+02 -0.49235015905E+02  0.13906986886E+03  0.41800000000E+01 0.  1.
         -5    1    4    4    0  501  0.37387533719E+02 -0.43241655803E+02 -0.31692606439E+02  0.65494749233E+02  0.41800000000E+01 0.  1.
</event>
<event>
11    1  0.8453735E-009  0.1290076E+03  0.7561462E-02  0.1120494E+00
         22   -1    0    0    0    0  0.00000000000E+00  0.00000000000E+00  0.58823856180E+03  0.58823856180E+03  0.00000000000E+00 0. -1.
         22   -1    0    0    0    0 -0.00000000000E+00 -0.00000000000E+00 -0.44264440230E+03  0.44264440230E+03  0.00000000000E+00 0.  1.
        -24    2    1    2    0    0  0.14604189631E+02 -0.14016303835E+02 -0.40672072032E+03  0.41507201641E+03  0.80332405319E+02 0.  0.
         25    2    1    2    0    0  0.51006332354E+01 -0.14003820567E+02  0.11709887488E+03  0.17199047564E+03  0.12508578562E+03 0.  0.
         24    2    1    2    0    0 -0.19704822866E+02  0.28020124402E+02  0.43521600494E+03  0.44382047205E+03  0.79938933172E+02 0.  0.
        -13    1    5    5    0    0 -0.26070540482E+00 -0.27573103511E+02  0.11753595588E+03  0.12072715075E+03  0.00000000000E+00 0.  1.
         14    1    5    5    0    0 -0.19444117461E+02  0.55593227913E+02  0.31768004906E+03  0.32309332130E+03  0.00000000000E+00 0. -1.
         11    1    3    3    0    0 -0.18160131232E+01  0.13042839560E+02 -0.86736410750E+01  0.15768500783E+02  0.00000000000E+00 0. -1.
        -12    1    3    3    0    0  0.16420202754E+02 -0.27059143395E+02 -0.39804707924E+03  0.39930351563E+03  0.00000000000E+00 0.  1.
          5    1    4    4  501    0  0.17601952545E+02 -0.48025337506E+02  0.21224504469E+01  0.51363790474E+02  0.41800000000E+01 0.  1.
         -5    1    4    4    0  501 -0.12501319310E+02  0.34021516939E+02  0.11497642443E+03  0.12062668517E+03  0.41800000000E+01 0.  1.
</event>
<event>
11    1  0.8453735E-009  0.1521688E+03  0.7561462E-02  0.1094683E+00
         22   -1    0    0    0    0  0.00000000000E+00  0.00000000000E+00  0.13190760141E+04  0.13190760141E+04  0.00000000000E+00 0.  1.
         22   -1    0    0    0    0 -0.00000000000E+00 -0.00000000000E+00 -0.77757564718E+03  0.77757564718E+03  0.00000000000E+00 0. -1.
         24    2    1    2    0    0 -0.12945086212E+02  0.70376056324E+02 -0.71226718606E+03  0.72013870518E+03  0.78452825381E+02 0.  0.
         25    2    1    2    0    0 -0.53436163898E+02 -0.97778067755E+01  0.22506560935E+02  0.13821952939E+03  0.12508822447E+03 0.  0.
        -24    2    1    2    0    0  0.66381250110E+02 -0.60598249549E+02  0.12312609920E+04  0.12382934267E+04  0.96376147849E+02 0.  0.
        -13    1    3    3    0    0  0.24731004605E+02  0.15690115786E+02 -0.97742468791E+02  0.10203623145E+03  0.00000000000E+00 0.  1.
         14    1    3    3    0    0 -0.37676090817E+02  0.54685940538E+02 -0.61452471727E+03  0.61810247374E+03  0.00000000000E+00 0. -1.
         11    1    5    5    0    0 -0.24868016581E+02 -0.96324262244E+01  0.20607636628E+03  0.20779478007E+03  0.00000000000E+00 0. -1.
        -12    1    5    5    0    0  0.91249266691E+02 -0.50965823324E+02  0.10251846257E+04  0.10304986466E+04  0.00000000000E+00 0.  1.
          5    1    4    4  501    0 -0.48164771153E+02 -0.22524724003E+02  0.70332691260E+02  0.88268727369E+02  0.41800000000E+01 0. -1.
         -5    1    4    4    0  501 -0.52713927453E+01  0.12746917227E+02 -0.47826130325E+02  0.49950802017E+02  0.41800000000E+01 0. -1.
</event>
<event>
11    1  0.8453735E-009  0.1422032E+03  0.7561462E-02  0.1105123E+00
         22   -1    0    0    0    0  0.00000000000E+00  0.00000000000E+00  0.16849072177E+04  0.16849072177E+04  0.00000000000E+00 0.  1.
         22   -1    0    0    0    0 -0.00000000000E+00 -0.00000000000E+00 -0.19356728465E+04  0.19356728465E+04  0.00000000000E+00 0.  1.
         24    2    1    2    0    0  0.55408574843E+02  0.38784517529E+02 -0.18913522060E+04  0.18941522196E+04  0.77621615801E+02 0.  0.
         25    2    1    2    0    0 -0.58137985502E+02 -0.34432336642E+02  0.79208449161E+02  0.16274943737E+03  0.12509112591E+03 0.  0.
        -24    2    1    2    0    0  0.27294106587E+01 -0.43521808873E+01  0.15613781280E+04  0.15636784072E+04  0.84629259298E+02 0.  0.
        -13    1    3    3    0    0  0.58381785386E+02  0.57519909385E+02 -0.13649390735E+04  0.13673973991E+04  0.00000000000E+00 0.  1.
         14    1    3    3    0    0 -0.29732105422E+01 -0.18735391856E+02 -0.52641313250E+03  0.52675482054E+03  0.00000000000E+00 0. -1.
         13    1    5    5    0    0  0.13251642725E+02 -0.11559317918E+02  0.67721092862E+02  0.69966922785E+02  0.00000000000E+00 0. -1.
        -14    1    5    5    0    0 -0.10522232066E+02  0.72071370310E+01  0.14936570351E+04  0.14937114844E+04  0.00000000000E+00 0.  1.
          5    1    4    4  501    0 -0.85422329866E+02  0.13547792482E+02  0.52800549855E+02  0.10141936494E+03  0.41800000000E+01 0.  1.
         -5    1    4    4    0  501  0.27284344363E+02 -0.47980129124E+02  0.26407899306E+02  0.61330072427E+02  0.41800000000E+01 0.  1.
</event>
<event>
11    1  0.8675440E-009  0.1998662E+03  0.7561462E-02  0.1054618E+00
         22   -1    0    0    0    0  0.00000000000E+00  0.00000000000E+00  0.32613485447E+03  0.32613485447E+03  0.00000000000E+00 0.  1.
         22   -1    0    0    0    0 -0.00000000000E+00 -0.00000000000E+00 -0.97110027505E+03  0.97110027505E+03  0.00000000000E+00 0.  1.
         24    2    1    2    0    0 -0.46738346418E+02 -0.35076197724E+02 -0.46335143867E+03  0.47401476990E+03  0.81121105066E+02 0.  0.
         25    2    1    2    0    0 -0.98081119664E+01  0.17945401343E+03 -0.45149678255E+03  0.50179269747E+03  0.12508646846E+03 0.  0.
        -24    2    1    2    0    0  0.56546458384E+02 -0.14437781570E+03  0.26988280064E+03  0.32142766214E+03  0.80228176382E+02 0.  0.
        -11    1    3    3    0    0 -0.26186128505E+02 -0.61136890208E+02 -0.32534354786E+03  0.33207206567E+03  0.00000000000E+00 0.  1.
         12    1    3    3    0    0 -0.20552217912E+02  0.26060692484E+02 -0.13800789082E+03  0.14194270422E+03  0.00000000000E+00 0. -1.
         13    1    5    5    0    0  0.36372512278E+02 -0.53314760672E+02  0.47072021179E+02  0.79882404400E+02  0.00000000000E+00 0. -1.
        -14    1    5    5    0    0  0.20173946106E+02 -0.91063055030E+02  0.22281077946E+03  0.24154525774E+03  0.00000000000E+00 0.  1.
          5    1    4    4  501    0 -0.53478471263E+02  0.38857108114E+02 -0.92602487829E+02  0.11385304077E+03  0.41800000000E+01 0. -1.
         -5    1    4    4    0  501  0.43670359296E+02  0.14059690531E+03 -0.35889429472E+03  0.38793965671E+03  0.41800000000E+01 0. -1.
</event>
<event>
11    1  0.8453735E-009  0.1413289E+03  0.7561462E-02  0.1106083E+00
         22   -1    0    0    0    0  0.00000000000E+00  0.00000000000E+00  0.50071203592E+03  0.50071203592E+03  0.00000000000E+00 0. -1.
         22   -1    0    0    0    0 -0.00000000000E+00 -0.00000000000E+00 -0.29741605816E+03  0.29741605816E+03  0.00000000000E+00 0.  1.
        -24    2    1    2    0    0  0.65744315152E+02  0.13424813188E+02 -0.22681074527E+03  0.25441402163E+03  0.93706134542E+02 0.  0.
         25    2    1    2    0    0 -0.36199511221E+02 -0.76318404208E+02  0.66582644954E+02  0.16498061071E+03  0.12510175805E+03 0.  0.
         24    2    1    2    0    0 -0.29544803931E+02  0.62893591020E+02  0.36352407807E+03  0.37873346173E+03  0.80378980295E+02 0.  0.
        -13    1    5    5    0    0 -0.34864246211E+02 -0.64327286383E+01  0.96532592338E+02  0.10283694397E+03  0.00000000000E+00 0.  1.
         14    1    5    5    0    0  0.53194422802E+01  0.69326319659E+02  0.26699148573E+03  0.27589651776E+03  0.00000000000E+00 0. -1.
         11    1    3    3    0    0 -0.10487892099E+02  0.34582515426E+02 -0.71786420217E+02  0.80369374649E+02  0.00000000000E+00 0. -1.
        -12    1    3    3    0    0  0.76232207252E+02 -0.21157702238E+02 -0.15502432505E+03  0.17404464698E+03  0.00000000000E+00 0.  1.
          5    1    4    4  501    0 -0.74584818279E+02 -0.12038933284E+02  0.28265463577E+02  0.80772766843E+02  0.41800000000E+01 0. -1.
         -5    1    4    4    0  501  0.38385307058E+02 -0.64279470924E+02  0.38317181377E+02  0.84207843868E+02  0.41800000000E+01 0. -1.
</event>
<event>
11    1  0.8453735E-009  0.1406714E+03  0.7561462E-02  0.1106811E+00
         22   -1    0    0    0    0  0.00000000000E+00  0.00000000000E+00  0.14617869033E+04  0.14617869033E+04  0.00000000000E+00 0.  1.
         22   -1    0    0    0    0 -0.00000000000E+00 -0.00000000000E+00 -0.19534224441E+03  0.19534224441E+03  0.00000000000E+00 0. -1.
         24    2    1    2    0    0 -0.77074288818E+01 -0.55032041665E+00 -0.13173356828E+03  0.15501011874E+03  0.81330784995E+02 0.  0.
         25    2    1    2    0    0 -0.26283479148E+02 -0.54285168793E+02  0.46278040541E+02  0.14637962248E+03  0.12509051129E+03 0.  0.
        -24    2    1    2    0    0  0.33990908030E+02  0.54835489209E+02  0.13519001866E+04  0.13557394065E+04  0.78948786887E+02 0.  0.
        -11    1    3    3    0    0 -0.75568575494E+01 -0.35578784277E+02 -0.29153623893E+02  0.46614265764E+02  0.00000000000E+00 0.  1.
         12    1    3    3    0    0 -0.15057133232E+00  0.35028463860E+02 -0.10257994439E+03  0.10839585298E+03  0.00000000000E+00 0. -1.
         11    1    5    5    0    0  0.12557810852E+02  0.30464652966E+02  0.15806319446E+03  0.16146134874E+03  0.00000000000E+00 0. -1.
        -12    1    5    5    0    0  0.21433097178E+02  0.24370836244E+02  0.11938369922E+04  0.11942780578E+04  0.00000000000E+00 0.  1.
          5    1    4    4  501    0 -0.22568372278E+02 -0.93446053221E+02  0.46387716655E+02  0.10682129444E+03  0.41800000000E+01 0.  1.
         -5    1    4    4    0  501 -0.37151068704E+01  0.39160884428E+02 -0.10967611404E+00  0.39558328038E+02  0.41800000000E+01 0.  1.
</event>
<event>
11    1  0.8453735E-009  0.1563434E+03  0.7561462E-02  0.1090568E+00
         22   -1    0    0    0    0  0.00000000000E+00  0.00000000000E+00  0.55951663819E+03  0.55951663819E+03  0.00000000000E+00 0. -1.
         22   -1    0    0    0    0 -0.00000000000E+00 -0.00000000000E+00 -0.32012623716E+03  0.32012623716E+03  0.00000000000E+00 0. -1.
         24    2    1    2    0    0  0.54752066055E+02 -0.71360489013E+02 -0.25160052871E+03  0.28050234141E+03  0.85373469869E+02 0.  0.
         25    2    1    2    0    0 -0.13940822882E+03  0.10602218152E+03  0.24966472318E+03  0.32964603231E+03  0.12513462903E+03 0.  0.
        -24    2    1    2    0    0  0.84656162762E+02 -0.34661692510E+02  0.24132620655E+03  0.26949450163E+03  0.77594133923E+02 0.  0.
        -13    1    3    3    0    0  0.59169103395E+01  0.49777244538E+01  0.44269697089E+01  0.89098613630E+01  0.00000000000E+00 0.  1.
         14    1    3    3    0    0  0.48835155715E+02 -0.76338213467E+02 -0.25602749842E+03  0.27159248004E+03  0.00000000000E+00 0. -1.
         11    1    5    5    0    0  0.81866520842E+02  0.27551950664E+01  0.17677100259E+03  0.19482737408E+03  0.00000000000E+00 0. -1.
        -12    1    5    5    0    0  0.27896419200E+01 -0.37416887577E+02  0.64555203957E+02  0.74667127546E+02  0.00000000000E+00 0.  1.
          5    1    4    4  501    0 -0.40521855797E+02  0.32151258122E+02  0.89190866528E+00  0.51903680959E+02  0.41800000000E+01 0. -1.
         -5    1    4    4    0  501 -0.98886373020E+02  0.73870923402E+02  0.24877281452E+03  0.27774235136E+03  0.41800000000E+01 0. -1.
</event>
<event>
11    1  0.8453735E-009  0.1343436E+03  0.7561462E-02  0.1114044E+00
         22   -1    0    0    0    0  0.00000000000E+00  0.00000000000E+00  0.28188680930E+03  0.28188680930E+03  0.00000000000E+00 0.  1.
         22   -1    0    0    0    0 -0.00000000000E+00 -0.00000000000E+00 -0.11221988915E+04  0.11221988915E+04  0.00000000000E+00 0.  1.
        -24    2    1    2    0    0  0.50665642788E+02 -0.69316327572E+00 -0.10183766296E+04  0.10228873256E+04  0.81486399077E+02 0.  0.
         25    2    1    2    0    0 -0.15727664547E+02  0.23521096640E+02 -0.49038892523E+02  0.13730474533E+03  0.12508868330E+03 0.  0.
         24    2    1    2    0    0 -0.34937978240E+02 -0.22827933365E+02  0.22710343998E+03  0.24389362986E+03  0.78526131776E+02 0.  0.
        -11    1    5    5    0    0  0.15473847028E+02  0.13490660119E+01  0.13683158806E+03  0.13771036058E+03  0.00000000000E+00 0.  1.
         12    1    5    5    0    0 -0.50411825268E+02 -0.24176999377E+02  0.90271851917E+02  0.10618326928E+03  0.00000000000E+00 0. -1.
         11    1    3    3    0    0  0.19461906884E+02 -0.34077398110E+02 -0.24148264876E+03  0.24465057640E+03  0.00000000000E+00 0. -1.
        -12    1    3    3    0    0  0.31203735904E+02  0.33384234834E+02 -0.77689398087E+03  0.77823674919E+03  0.00000000000E+00 0.  1.
          5    1    4    4  501    0 -0.67857709018E+02  0.29023561797E+02 -0.39658402452E+02  0.83888599330E+02  0.41800000000E+01 0. -1.
         -5    1    4    4    0  501  0.52130044470E+02 -0.55024651563E+01 -0.93804900715E+01  0.53416145998E+02  0.41800000000E+01 0. -1.
</event>
<event>
11    1  0.8453735E-009  0.1332419E+03  0.7561462E-02  0.1115349E+00
         22   -1    0    0    0    0  0.00000000000E+00  0.00000000000E+00  0.11578686673E+04  0.11578686673E+04  0.00000000000E+00 0. -1.
         22   -1    0    0    0    0 -0.00000000000E+00 -0.00000000000E+00 -0.39018665927E+03  0.39018665927E+03  0.00000000000E+00 0. -1.
         24    2    1    2    0    0  0.95796628689E+01 -0.44992728502E+02 -0.37396037954E+03  0.38496887268E+03  0.78984504243E+02 0.  0.
         25    2    1    2    0    0 -0.67196357996E+01  0.34686102948E+02  0.50939020271E+03  0.52571309396E+03  0.12509036456E+03 0.  0.
        -24    2    1    2    0    0 -0.28600270693E+01  0.10306625554E+02  0.63225218486E+03  0.63737335992E+03  0.79922264670E+02 0.  0.
        -11    1    3    3    0    0 -0.12207742145E+01  0.14688192932E+02 -0.20362850937E+03  0.20416121848E+03  0.00000000000E+00 0.  1.
         12    1    3    3    0    0  0.10800437083E+02 -0.59680921433E+02 -0.17033187017E+03  0.18080765421E+03  0.00000000000E+00 0. -1.
         11    1    5    5    0    0 -0.21878598644E+02 -0.21218605427E+02  0.47040284629E+03  0.47138915992E+03  0.00000000000E+00 0. -1.
        -12    1    5    5    0    0  0.19018571575E+02  0.31525230980E+02  0.16184933857E+03  0.16598420000E+03  0.00000000000E+00 0.  1.
          5    1    4    4  501    0 -0.25531868368E+02 -0.28469356988E+02  0.36404900324E+03  0.36607585245E+03  0.41800000000E+01 0.  1.
         -5    1    4    4    0  501  0.18812232569E+02  0.63155459936E+02  0.14534119947E+03  0.15963724151E+03  0.41800000000E+01 0.  1.
</event>
<event>
11    1  0.8453735E-009  0.1444559E+03  0.7561462E-02  0.1102682E+00
         22   -1    0    0    0    0  0.00000000000E+00  0.00000000000E+00  0.14032940243E+04  0.14032940243E+04  0.00000000000E+00 0.  1.
         22   -1    0    0    0    0 -0.00000000000E+00 -0.00000000000E+00 -0.95431133491E+03  0.95431133491E+03  0.00000000000E+00 0. -1.
         24    2    1    2    0    0  0.29417204421E+02 -0.64025592645E+01 -0.90521373933E+03  0.90925704264E+03  0.80187848413E+02 0.  0.
         25    2    1    2    0    0 -0.14104641197E+02  0.76992857272E+02  0.76345497672E+02  0.16614284060E+03  0.12509183624E+03 0.  0.
        -24    2    1    2    0    0 -0.15312563224E+02 -0.70590298007E+02  0.12778509311E+04  0.12822054760E+04  0.77009193296E+02 0.  0.
        -13    1    3    3    0    0 -0.34355659030E+01 -0.97465043280E+01 -0.13843968371E+02  0.17275789995E+02  0.00000000000E+00 0.  1.
         14    1    3    3    0    0  0.32852770324E+02  0.33439450635E+01 -0.89136977096E+03  0.89198125264E+03  0.00000000000E+00 0. -1.
         13    1    5    5    0    0 -0.29601796622E+02  0.29973467821E+01  0.44174406550E+03  0.44274492640E+03  0.00000000000E+00 0. -1.
        -14    1    5    5    0    0  0.14289233398E+02 -0.73587644789E+02  0.83610686559E+03  0.83946054961E+03  0.00000000000E+00 0.  1.
          5    1    4    4  501    0 -0.47127611319E+02  0.87357523899E+02  0.22284689752E+02  0.10181565954E+03  0.41800000000E+01 0.  1.
         -5    1    4    4    0  501  0.33022970122E+02 -0.10364666627E+02  0.54060807921E+02  0.64327181059E+02  0.41800000000E+01 0.  1.
</event>
<event>
11    1  0.8453735E-009  0.2144645E+03  0.7561462E-02  0.1044742E+00
         22   -1    0    0    0    0  0.00000000000E+00  0.00000000000E+00  0.18483036398E+04  0.18483036398E+04  0.00000000000E+00 0. -1.
         22   -1    0    0    0    0 -0.00000000000E+00 -0.00000000000E+00 -0.17748522385E+03  0.17748522385E+03  0.00000000000E+00 0.  1.
         24    2    1    2    0    0 -0.22008360817E+02 -0.17265359988E+03 -0.67553506034E+02  0.20306340368E+03  0.79860104175E+02 0.  0.
         25    2    1    2    0    0  0.64853746130E+02  0.16699748261E+03  0.25146147304E+03  0.33312897395E+03  0.12509145965E+03 0.  0.
        -24    2    1    2    0    0 -0.42845385314E+02  0.56561172695E+01  0.14869104489E+04  0.14895964860E+04  0.78277003552E+02 0.  0.
        -11    1    3    3    0    0 -0.28172828081E+02 -0.11915922037E+03 -0.81932739711E+02  0.14732821141E+03  0.00000000000E+00 0.  1.
         12    1    3    3    0    0  0.61644672645E+01 -0.53494379513E+02  0.14379233677E+02  0.55735192269E+02  0.00000000000E+00 0. -1.
         11    1    5    5    0    0  0.31652722807E+01  0.40759826065E+01  0.10919117538E+04  0.10919239491E+04  0.00000000000E+00 0. -1.
        -12    1    5    5    0    0 -0.46010657595E+02  0.15801346630E+01  0.39499869512E+03  0.39767253688E+03  0.00000000000E+00 0.  1.
          5    1    4    4  501    0  0.90966005139E+02  0.10234277050E+03  0.21338000456E+03  0.25356923218E+03  0.41800000000E+01 0. -1.
         -5    1    4    4    0  501 -0.26112259009E+02  0.64654712111E+02  0.38081468478E+02  0.79559741767E+02  0.41800000000E+01 0. -1.
</event>
<event>
11    1  0.8453735E-009  0.1542797E+03  0.7561462E-02  0.1092584E+00
         22   -1    0    0    0    0  0.00000000000E+00  0.00000000000E+00  0.14252742327E+03  0.14252742327E+03  0.00000000000E+00 0.  1.
         22   -1    0    0    0    0 -0.00000000000E+00 -0.00000000000E+00 -0.77733573272E+03  0.77733573272E+03  0.00000000000E+00 0. -1.
        -24    2    1    2    0    0  0.99929310598E+02 -0.97166644044E+01 -0.57084622249E+03  0.58505359605E+03  0.79636799490E+02 0.  0.
         25    2    1    2    0    0 -0.48935964515E+02  0.33491045344E+02 -0.15537776575E+03  0.20809463804E+03  0.12507897326E+03 0.  0.
         24    2    1    2    0    0 -0.50993346083E+02 -0.23774380940E+02  0.91415678785E+02  0.12671492190E+03  0.67337230188E+02 0.  0.
        -11    1    5    5    0    0 -0.19129767873E+02 -0.28596168233E+02  0.87783123665E+02  0.94284493194E+02  0.00000000000E+00 0.  1.
         12    1    5    5    0    0 -0.31863578210E+02  0.48217872930E+01  0.36325551200E+01  0.32430428701E+02  0.00000000000E+00 0. -1.
         13    1    3    3    0    0  0.77394501096E+02 -0.37667735666E+02 -0.47431218196E+03  0.48205893111E+03  0.00000000000E+00 0. -1.
        -14    1    3    3    0    0  0.22534809502E+02  0.27951071261E+02 -0.96534040536E+02  0.10299466494E+03  0.00000000000E+00 0.  1.
          5    1    4    4  501    0 -0.41862197157E+02  0.78790492019E+02 -0.12212808110E+03  0.15130474472E+03  0.41800000000E+01 0. -1.
         -5    1    4    4    0  501 -0.70737673582E+01 -0.45299446674E+02 -0.33249684655E+02  0.56789893320E+02  0.41800000000E+01 0. -1.
</event>
<event>
11    1  0.8453735E-009  0.1672782E+03  0.7561462E-02  0.1080425E+00
         22   -1    0    0    0    0  0.00000000000E+00  0.00000000000E+00  0.10349149180E+03  0.10349149180E+03  0.00000000000E+00 0. -1.
         22   -1    0    0    0    0 -0.00000000000E+00 -0.00000000000E+00 -0.72275752847E+03  0.72275752847E+03  0.00000000000E+00 0. -1.
         24    2    1    2    0    0  0.88163483623E-01  0.46530813313E+02 -0.46358940566E+03  0.47217067904E+03  0.76582561635E+02 0.  0.
         25    2    1    2    0    0 -0.10893404305E+03 -0.91404618961E+01 -0.12967998511E+03  0.21074668588E+03  0.12508834194E+03 0.  0.
        -24    2    1    2    0    0  0.10884587957E+03 -0.37390351416E+02 -0.25996645907E+02  0.14333165536E+03  0.81379812914E+02 0.  0.
        -11    1    3    3    0    0  0.22794355518E+02  0.47208042876E+02 -0.17486372798E+03  0.18255274667E+03  0.00000000000E+00 0.  1.
         12    1    3    3    0    0 -0.22706192034E+02 -0.67722956334E+00 -0.28872567768E+03  0.28961793236E+03  0.00000000000E+00 0. -1.
         11    1    5    5    0    0  0.74973157411E+00 -0.31224088991E+02  0.26172933238E+01  0.31342559804E+02  0.00000000000E+00 0. -1.
        -12    1    5    5    0    0  0.10809614800E+03 -0.61662624257E+01 -0.28613939231E+02  0.11198909555E+03  0.00000000000E+00 0.  1.
          5    1    4    4  501    0 -0.28631901498E+02 -0.74391763209E+01 -0.12679371702E+03  0.13026605930E+03  0.41800000000E+01 0. -1.
         -5    1    4    4    0  501 -0.80302141557E+02 -0.17012855752E+01 -0.28862680876E+01  0.80480626580E+02  0.41800000000E+01 0. -1.
</event>
<event>
11    1  0.8453735E-009  0.1278453E+03  0.7561462E-02  0.1121945E+00
         22   -1    0    0    0    0  0.00000000000E+00  0.00000000000E+00  0.11070823759E+04  0.11070823759E+04  0.00000000000E+00 0. -1.
         22   -1    0    0    0    0 -0.00000000000E+00 -0.00000000000E+00 -0.83304033915E+02  0.83304033915E+02  0.00000000000E+00 0.  1.
         24    2    1    2    0    0  0.20325281206E+01  0.11978950092E+02 -0.35909736748E+02  0.90776717166E+02  0.82481978457E+02 0.  0.
         25    2    1    2    0    0  0.29466357189E+01 -0.36625512142E+02  0.22075839909E+03  0.25638548330E+03  0.12509650065E+03 0.  0.
        -24    2    1    2    0    0 -0.49791638394E+01  0.24646562050E+02  0.83892967964E+03  0.84322420935E+03  0.81189991733E+02 0.  0.
        -13    1    3    3    0    0  0.20395181935E+01  0.55130401052E+01 -0.62823114896E+02  0.63097519848E+02  0.00000000000E+00 0.  1.
         14    1    3    3    0    0 -0.69900729030E-02  0.64659099868E+01  0.26913378148E+02  0.27679197318E+02  0.00000000000E+00 0. -1.
         13    1    5    5    0    0  0.27806333418E+02 -0.12272318831E+02  0.47342275497E+03  0.47439741453E+03  0.00000000000E+00 0. -1.
        -14    1    5    5    0    0 -0.32785497257E+02  0.36918880881E+02  0.36550692467E+03  0.36882679483E+03  0.00000000000E+00 0.  1.
          5    1    4    4  501    0  0.14896066057E+02  0.44645578365E+02  0.95268357309E+02  0.10634214948E+03  0.41800000000E+01 0. -1.
         -5    1    4    4    0  501 -0.11949430338E+02 -0.81271090507E+02  0.12549004178E+03  0.15004333382E+03  0.41800000000E+01 0. -1.
</event>
<event>
11    1  0.8453735E-009  0.1272434E+03  0.7561462E-02  0.1122703E+00
         22   -1    0    0    0    0  0.00000000000E+00  0.00000000000E+00  0.72300914175E+03  0.72300914175E+03  0.00000000000E+00 0. -1.
         22   -1    0    0    0    0 -0.00000000000E+00 -0.00000000000E+00 -0.10913359347E+04  0.10913359347E+04  0.00000000000E+00 0. -1.
        -24    2    1    2    0    0 -0.11098041476E+02  0.21401704268E+02 -0.98707217286E+03  0.99078938313E+03  0.82285647596E+02 0.  0.
         25    2    1    2    0    0 -0.93005282744E+01 -0.11731834612E+02 -0.59954095163E+02  0.13952055597E+03  0.12508939300E+03 0.  0.
         24    2    1    2    0    0  0.20398569750E+02 -0.96698696563E+01  0.67869947512E+03  0.68403513732E+03  0.82228240492E+02 0.  0.
        -13    1    5    5    0    0 -0.12108291648E+01 -0.29247746994E+02  0.90566621091E+02  0.95179880580E+02  0.00000000000E+00 0.  1.
         14    1    5    5    0    0  0.21609398915E+02  0.19577877338E+02  0.58813285403E+03  0.58885525674E+03  0.00000000000E+00 0. -1.
         11    1    3    3    0    0  0.35271615477E+02  0.30819597601E+01 -0.46248077880E+03  0.46383408250E+03  0.00000000000E+00 0. -1.
        -12    1    3    3    0    0 -0.46369656953E+02  0.18319744508E+02 -0.52459139407E+03  0.52695530062E+03  0.00000000000E+00 0.  1.
          5    1    4    4  501    0 -0.23074262546E+02 -0.17416232284E+02  0.33699564027E+02  0.44596858125E+02  0.41800000000E+01 0. -1.
         -5    1    4    4    0  501  0.13773734272E+02  0.56843976720E+01 -0.93653659191E+02  0.94923697845E+02  0.41800000000E+01 0. -1.
</event>
<event>
11    1  0.8453735E-009  0.2686185E+03  0.7561462E-02  0.1014423E+00
         22   -1    0    0    0    0  0.00000000000E+00  0.00000000000E+00  0.12195703096E+04  0.12195703096E+04  0.00000000000E+00 0.  1.
         22   -1    0    0    0    0 -0.00000000000E+00 -0.00000000000E+00 -0.69164512765E+03  0.69164512765E+03  0.00000000000E+00 0. -1.
         24    2    1    2    0    0 -0.10879982784E+03  0.93588125010E+01 -0.62149015450E+03  0.63614194981E+03  0.80632364856E+02 0.  0.
         25    2    1    2    0    0  0.10187185575E+03 -0.24193741469E+03  0.46994089491E+03  0.55263360300E+03  0.12509143393E+03 0.  0.
        -24    2    1    2    0    0  0.69279720896E+01  0.23257860219E+03  0.67947444152E+03  0.72243988442E+03  0.78058099662E+02 0.  0.
        -13    1    3    3    0    0  0.42150688048E+01 -0.16872120978E+02 -0.12920752151E+03  0.13037261555E+03  0.00000000000E+00 0.  1.
         14    1    3    3    0    0 -0.11301489664E+03  0.26230933479E+02 -0.49228263299E+03  0.50576933426E+03  0.00000000000E+00 0. -1.
         13    1    5    5    0    0  0.16468018161E+01 -0.51368222854E+01  0.52935944915E+01  0.75578463899E+01  0.00000000000E+00 0. -1.
        -14    1    5    5    0    0  0.52811702734E+01  0.23771542447E+03  0.67418084703E+03  0.71488203803E+03  0.00000000000E+00 0.  1.
          5    1    4    4  501    0  0.86632950956E+02 -0.62081136224E+02  0.21780725022E+03  0.24252176462E+03  0.41800000000E+01 0.  1.
         -5    1    4    4    0  501  0.15238904792E+02 -0.17985627847E+03  0.25213364468E+03  0.31011183838E+03  0.41800000000E+01 0.  1.
</event>
<event>
11    1  0.8453735E-009  0.4908552E+03  0.7561462E-02  0.9414191E-01
         22   -1    0    0    0    0  0.00000000000E+00  0.00000000000E+00  0.19758681319E+03  0.19758681319E+03  0.00000000000E+00 0.  1.
         22   -1    0    0    0    0 -0.00000000000E+00 -0.00000000000E+00 -0.26498858902E+04  0.26498858902E+04  0.00000000000E+00 0.  1.
         24    2    1    2    0    0 -0.17289281016E+03  0.48265775248E+03 -0.15553226300E+04  0.16395783747E+04  0.79613652043E+02 0.  0.
         25    2    1    2    0    0  0.37663215131E+03 -0.26828633493E+03 -0.67926631785E+03  0.83119166269E+03  0.12509002618E+03 0.  0.
        -24    2    1    2    0    0 -0.20373934115E+03 -0.21437141755E+03 -0.21771012922E+03  0.37670266605E+03  0.83918856325E+02 0.  0.
        -13    1    3    3    0    0 -0.15582099567E+03  0.46296286213E+03 -0.14173382820E+04  0.14991539614E+04  0.00000000000E+00 0.  1.
         14    1    3    3    0    0 -0.17071814495E+02  0.19694890350E+02 -0.13798434803E+03  0.14042441332E+03  0.00000000000E+00 0. -1.
         11    1    5    5    0    0 -0.24221665320E+01 -0.53584559850E+01 -0.31172955221E+02  0.31722753324E+02  0.00000000000E+00 0. -1.
        -12    1    5    5    0    0 -0.20131717462E+03 -0.20901296157E+03 -0.18653717400E+03  0.34497991272E+03  0.00000000000E+00 0.  1.
          5    1    4    4  501    0  0.28336119264E+02 -0.79183249899E+01 -0.11507283421E+03  0.11884807570E+03  0.41800000000E+01 0.  1.
         -5    1    4    4    0  501  0.34829603205E+03 -0.26036800994E+03 -0.56419348364E+03  0.71234358698E+03  0.41800000000E+01 0.  1.
</event>
<event>
11    1  0.8453735E-009  0.1385941E+03  0.7561462E-02  0.1109138E+00
         22   -1    0    0    0    0  0.00000000000E+00  0.00000000000E+00  0.69636275796E+02  0.69636275796E+02  0.00000000000E+00 0. -1.
         22   -1    0    0    0    0 -0.00000000000E+00 -0.00000000000E+00 -0.74367618017E+03  0.74367618017E+03  0.00000000000E+00 0.  1.
         24    2    1    2    0    0 -0.66179624337E+01 -0.32195507437E+02 -0.40237392694E+03  0.41178468621E+03  0.81126460501E+02 0.  0.
         25    2    1    2    0    0 -0.50846227320E+02  0.75308815150E+01 -0.26600039391E+03  0.29840821360E+03  0.12509676004E+03 0.  0.
        -24    2    1    2    0    0  0.57464189754E+02  0.24664625922E+02 -0.56655835270E+01  0.10311955616E+03  0.81798943453E+02 0.  0.
        -11    1    3    3    0    0  0.29884210840E+02 -0.26635726920E+02 -0.30551896418E+03  0.30813043582E+03  0.00000000000E+00 0.  1.
         12    1    3    3    0    0 -0.36502173274E+02 -0.55597805169E+01 -0.96854962760E+02  0.10365425039E+03  0.00000000000E+00 0. -1.
         13    1    5    5    0    0  0.43580891384E+02  0.43830164280E+02  0.22997724330E+02  0.65949016058E+02  0.00000000000E+00 0. -1.
        -14    1    5    5    0    0  0.13883298370E+02 -0.19165538358E+02 -0.28663307857E+02  0.37170540102E+02  0.00000000000E+00 0.  1.
          5    1    4    4  501    0 -0.90851032049E+02  0.15311758891E+02 -0.20659205807E+03  0.22624347690E+03  0.41800000000E+01 0.  1.
         -5    1    4    4    0  501  0.40004804729E+02 -0.77808773763E+01 -0.59408335842E+02  0.72164736691E+02  0.41800000000E+01 0.  1.
</event>
<event>
11    1  0.8453735E-009  0.1328104E+03  0.7561462E-02  0.1115863E+00
         22   -1    0    0    0    0  0.00000000000E+00  0.00000000000E+00  0.57013307334E+03  0.57013307334E+03  0.00000000000E+00 0. -1.
         22   -1    0    0    0    0 -0.00000000000E+00 -0.00000000000E+00 -0.17381875788E+04  0.17381875788E+04  0.00000000000E+00 0. -1.
         24    2    1    2    0    0 -0.17814705001E+02 -0.61068941287E+01 -0.16769521134E+04  0.16789891579E+04  0.80508036384E+02 0.  0.
         25    2    1    2    0    0  0.58478941966E+02  0.20885396687E+02  0.31332901984E+02  0.14312807529E+03  0.12509160141E+03 0.  0.
        -24    2    1    2    0    0 -0.40664236965E+02 -0.14778502558E+02  0.47756470595E+03  0.48620341891E+03  0.80335122379E+02 0.  0.
        -11    1    3    3    0    0  0.15980652149E+02 -0.43989204055E+01 -0.81006622442E+02  0.82684972173E+02  0.00000000000E+00 0.  1.
         12    1    3    3    0    0 -0.33795357149E+02 -0.17079737232E+01 -0.15959454909E+04  0.15963041857E+04  0.00000000000E+00 0. -1.
         11    1    5    5    0    0 -0.44055854783E+02  0.17632250878E+02  0.38806451171E+03  0.39095508675E+03  0.00000000000E+00 0. -1.
        -12    1    5    5    0    0  0.33916178174E+01 -0.32410753436E+02  0.89500194245E+02  0.95248332162E+02  0.00000000000E+00 0.  1.
          5    1    4    4  501    0  0.35853144227E+01 -0.14808260290E+02  0.66731923009E+02  0.68576679716E+02  0.41800000000E+01 0.  1.
         -5    1    4    4    0  501  0.54893627543E+02  0.35693656976E+02 -0.35399021026E+02  0.74551395579E+02  0.41800000000E+01 0.  1.
</event>
<event>
11    1  0.8453735E-009  0.1629797E+03  0.7561462E-02  0.1084308E+00
         22   -1    0    0    0    0  0.00000000000E+00  0.00000000000E+00  0.56434173237E+03  0.56434173237E+03  0.00000000000E+00 0. -1.
         22   -1    0    0    0    0 -0.00000000000E+00 -0.00000000000E+00 -0.43448703013E+03  0.43448703013E+03  0.00000000000E+00 0. -1.
        -24    2    1    2    0    0 -0.34432194064E+02  0.72456896579E+02 -0.37980920083E+03  0.39686199063E+03  0.82515651371E+02 0.  0.
         25    2    1    2    0    0 -0.71600813483E+02 -0.22374160502E+00  0.14587169954E+03  0.20506741546E+03  0.12508943043E+03 0.  0.
         24    2    1    2    0    0  0.10603300755E+03 -0.72233154974E+02  0.36379220353E+03  0.39689935642E+03  0.93400773067E+02 0.  0.
        -13    1    5    5    0    0  0.45943572884E+02 -0.64137378289E+02  0.10638114004E+03  0.13244380748E+03  0.00000000000E+00 0.  1.
         14    1    5    5    0    0  0.60089434663E+02 -0.80957766852E+01  0.25741106349E+03  0.26445554894E+03  0.00000000000E+00 0. -1.
         11    1    3    3    0    0 -0.15024731422E+02  0.88165377413E+02 -0.27781749466E+03  0.29185859019E+03  0.00000000000E+00 0. -1.
        -12    1    3    3    0    0 -0.19407462642E+02 -0.15708480834E+02 -0.10199170617E+03  0.10500340044E+03  0.00000000000E+00 0.  1.
          5    1    4    4  501    0 -0.25815357259E+02  0.46988504793E+02  0.10903079743E+02  0.54869862411E+02  0.41800000000E+01 0. -1.
         -5    1    4    4    0  501 -0.45785456224E+02 -0.47212246398E+02  0.13496861979E+03  0.15019755304E+03  0.41800000000E+01 0. -1.
</event>
<event>
11    1  0.8453735E-009  0.1313297E+03  0.7561462E-02  0.1117646E+00
         22   -1    0    0    0    0  0.00000000000E+00  0.00000000000E+00  0.57176459699E+03  0.57176459699E+03  0.00000000000E+00 0. -1.
         22   -1    0    0    0    0 -0.00000000000E+00 -0.00000000000E+00 -0.13156489604E+04  0.13156489604E+04  0.00000000000E+00 0. -1.
        -24    2    1    2    0    0 -0.25757089062E+01 -0.13107849587E+02 -0.12632780191E+04  0.12657031497E+04  0.77166441200E+02 0.  0.
         25    2    1    2    0    0 -0.37633321169E+02  0.10576027818E+02  0.44970817290E+02  0.13855268924E+03  0.12508538708E+03 0.  0.
         24    2    1    2    0    0  0.40209030075E+02  0.25318217688E+01  0.47442283839E+03  0.48315771846E+03  0.82104659413E+02 0.  0.
        -13    1    5    5    0    0  0.19284107118E+02  0.23691339816E+02  0.56949526740E+02  0.64625110952E+02  0.00000000000E+00 0.  1.
         14    1    5    5    0    0  0.20924922957E+02 -0.21159518048E+02  0.41747331165E+03  0.41853260751E+03  0.00000000000E+00 0. -1.
         13    1    3    3    0    0 -0.45282348293E+01 -0.26005810498E+01 -0.12408296866E+04  0.12408406744E+04  0.00000000000E+00 0. -1.
        -14    1    3    3    0    0  0.19525259231E+01 -0.10507268537E+02 -0.22448332453E+02  0.24862475330E+02  0.00000000000E+00 0.  1.
          5    1    4    4  501    0 -0.24172159923E+02 -0.53947248901E+02  0.11153182122E+01  0.59273225946E+02  0.41800000000E+01 0. -1.
         -5    1    4    4    0  501 -0.13461161246E+02  0.64523276719E+02  0.43855499078E+02  0.79279463293E+02  0.41800000000E+01 0. -1.
</event>
<event>
11    1  0.9722488E-009  0.1469350E+03  0.7561462E-02  0.1100052E+00
         22   -1    0    0    0    0  0.00000000000E+00  0.00000000000E+00  0.56552991701E+03  0.56552991701E+03  0.00000000000E+00 0. -1.
         22   -1    0    0    0    0 -0.00000000000E+00 -0.00000000000E+00 -0.65930167763E+03  0.65930167763E+03  0.00000000000E+00 0.  1.
        -24    2    1    2    0    0 -0.23541065526E+02 -0.38207872702E+02 -0.25121324725E+03  0.26725379585E+03  0.79388113070E+02 0.  0.
         25    2    1    2    0    0  0.10014048957E+03  0.42422903454E+02 -0.37683039292E+03  0.41167473237E+03  0.12508844814E+03 0.  0.
         24    2    1    2    0    0 -0.76599424046E+02 -0.42150307521E+01  0.53427187955E+03  0.54590306642E+03  0.81721957849E+02 0.  0.
        -11    1    5    5    0    0 -0.57182566938E+01  0.15992319639E+02  0.19406669966E+02  0.25788981876E+02  0.00000000000E+00 0.  1.
         12    1    5    5    0    0 -0.70881167352E+02 -0.20207350391E+02  0.51486520959E+03  0.52011408454E+03  0.00000000000E+00 0. -1.
         11    1    3    3    0    0  0.13953981366E+02 -0.16403362429E+01 -0.40781924203E+01  0.14629967614E+02  0.00000000000E+00 0. -1.
        -12    1    3    3    0    0 -0.37495046893E+02 -0.36567536459E+02 -0.24713505483E+03  0.25262382823E+03  0.00000000000E+00 0.  1.
          5    1    4    4  501    0  0.86781828406E+02 -0.27980962137E+02 -0.24693749984E+03  0.26326720496E+03  0.41800000000E+01 0.  1.
         -5    1    4    4    0  501  0.13358661166E+02  0.70403865591E+02 -0.12989289308E+03  0.14840752741E+03  0.41800000000E+01 0.  1.
</event>
<event>
11    1  0.8453735E-009  0.1894086E+03  0.7561462E-02  0.1062277E+00
         22   -1    0    0    0    0  0.00000000000E+00  0.00000000000E+00  0.10750752273E+04  0.10750752273E+04  0.00000000000E+00 0.  1.
         22   -1    0    0    0    0 -0.00000000000E+00 -0.00000000000E+00 -0.78732272091E+03  0.78732272091E+03  0.00000000000E+00 0.  1.
         24    2    1    2    0    0 -0.12119682319E+03 -0.76667575378E+02 -0.74754849117E+03  0.76507763585E+03  0.77126228765E+02 0.  0.
         25    2    1    2    0    0  0.83697565187E+02  0.72220538983E+02  0.21443219760E+03  0.27175284277E+03  0.12508937411E+03 0.  0.
        -24    2    1    2    0    0  0.37499258008E+02  0.44470363952E+01  0.82086879996E+03  0.82556746959E+03  0.79436072567E+02 0.  0.
        -11    1    3    3    0    0 -0.12113891807E+02 -0.19258387352E+02 -0.30006793098E+03  0.30092921936E+03  0.00000000000E+00 0.  1.
         12    1    3    3    0    0 -0.10908293139E+03 -0.57409188026E+02 -0.44748056018E+03  0.46414841649E+03  0.00000000000E+00 0. -1.
         13    1    5    5    0    0  0.51320161357E+02  0.24386427700E+02  0.40187533256E+03  0.40587219631E+03  0.00000000000E+00 0. -1.
        -14    1    5    5    0    0 -0.13820903350E+02 -0.19939391305E+02  0.41899346739E+03  0.41969527328E+03  0.00000000000E+00 0.  1.
          5    1    4    4  501    0  0.75233949798E+02  0.49197982968E+01  0.18078278140E+03  0.19591895791E+03  0.41800000000E+01 0. -1.
         -5    1    4    4    0  501  0.84636153887E+01  0.67300740686E+02  0.33649416200E+02  0.75833884860E+02  0.41800000000E+01 0. -1.
</event>
<event>
11    1  0.8453735E-009  0.1328802E+03  0.7561462E-02  0.1115780E+00
         22   -1    0    0    0    0  0.00000000000E+00  0.00000000000E+00  0.27866882089E+03  0.27866882089E+03  0.00000000000E+00 0.  1.
         22   -1    0    0    0    0 -0.00000000000E+00 -0.00000000000E+00 -0.16217905669E+04  0.16217905669E+04  0.00000000000E+00 0.  1.
        -24    2    1    2    0    0 -0.41652493018E+02 -0.31079212728E+01 -0.15041959502E+04  0.15069569386E+04  0.81050408629E+02 0.  0.
         25    2    1    2    0    0  0.82638715641E+02 -0.13491247267E+01 -0.53103612621E+02  0.15905921613E+03  0.12509541599E+03 0.  0.
         24    2    1    2    0    0 -0.40986222623E+02  0.44570459995E+01  0.21417781681E+03  0.23444323311E+03  0.85975325733E+02 0.  0.
        -13    1    5    5    0    0 -0.72089493979E+01  0.36885632252E+02  0.15216661300E+03  0.15673926416E+03  0.00000000000E+00 0.  1.
         14    1    5    5    0    0 -0.33777273225E+02 -0.32428586253E+02  0.62011203812E+02  0.77703968954E+02  0.00000000000E+00 0. -1.
         11    1    3    3    0    0  0.68252736865E+01 -0.20948632079E+02 -0.13493299561E+03  0.13671994314E+03  0.00000000000E+00 0. -1.
        -12    1    3    3    0    0 -0.48477766705E+02  0.17840710806E+02 -0.13692629546E+04  0.13702369954E+04  0.00000000000E+00 0.  1.
          5    1    4    4  501    0  0.81953427470E+02  0.20934470229E+02  0.16124742664E+02  0.86209605288E+02  0.41800000000E+01 0.  1.
         -5    1    4    4    0  501  0.68528817125E+00 -0.22283594955E+02 -0.69228355285E+02  0.72849610840E+02  0.41800000000E+01 0.  1.
</event>
<event>
11    1  0.8453735E-009  0.1404927E+03  0.7561462E-02  0.1107009E+00
         22   -1    0    0    0    0  0.00000000000E+00  0.00000000000E+00  0.48477666440E+03  0.48477666440E+03  0.00000000000E+00 0.  1.
         22   -1    0    0    0    0 -0.00000000000E+00 -0.00000000000E+00 -0.17592431247E+03  0.17592431247E+03  0.00000000000E+00 0.  1.
         24    2    1    2    0    0  0.15757247186E+02 -0.64616071908E+02 -0.11291618783E+03  0.15331353489E+03  0.79570389714E+02 0.  0.
         25    2    1    2    0    0  0.35217503418E+02  0.54182761551E+02  0.10231251278E+03  0.17404415737E+03  0.12508986469E+03 0.  0.
        -24    2    1    2    0    0 -0.50974750605E+02  0.10433310356E+02  0.31945602698E+03  0.33334328462E+03  0.79739030993E+02 0.  0.
        -13    1    3    3    0    0 -0.25551784782E+02 -0.17014309165E+02 -0.71730237450E+02  0.78023120846E+02  0.00000000000E+00 0.  1.
         14    1    3    3    0    0  0.41309031969E+02 -0.47601762743E+02 -0.41185950377E+02  0.75290414043E+02  0.00000000000E+00 0. -1.
         13    1    5    5    0    0  0.15651037114E+02  0.41068400845E+01  0.16602780190E+02  0.23183472739E+02  0.00000000000E+00 0. -1.
        -14    1    5    5    0    0 -0.66625787718E+02  0.63264702720E+01  0.30285324679E+03  0.31015981188E+03  0.00000000000E+00 0.  1.
          5    1    4    4  501    0  0.40836988295E+02  0.38327051829E+01  0.11456142768E+03  0.12175443464E+03  0.41800000000E+01 0.  1.
         -5    1    4    4    0  501 -0.56194848770E+01  0.50350056368E+02 -0.12248914906E+02  0.52289722728E+02  0.41800000000E+01 0.  1.
</event>
<event>
11    1  0.8453735E-009  0.1462939E+03  0.7561462E-02  0.1100727E+00
         22   -1    0    0    0    0  0.00000000000E+00  0.00000000000E+00  0.58782694943E+03  0.58782694943E+03  0.00000000000E+00 0. -1.
         22   -1    0    0    0    0 -0.00000000000E+00 -0.00000000000E+00 -0.20717757007E+03  0.20717757007E+03  0.00000000000E+00 0.  1.
         24    2    1    2    0    0  0.18796641718E+01 -0.66488087993E+02 -0.10629252757E+03  0.14898839393E+03  0.80468882969E+02 0.  0.
         25    2    1    2    0    0 -0.18775935577E+02  0.11998016287E+03  0.27746066019E+02  0.17652352531E+03  0.12507172170E+03 0.  0.
        -24    2    1    2    0    0  0.16896271405E+02 -0.53492074875E+02  0.45919584090E+03  0.46949260026E+03  0.80097411529E+02 0.  0.
        -13    1    3    3    0    0  0.15152630249E+02 -0.43678571237E+02 -0.11271478768E+03  0.12182792434E+03  0.00000000000E+00 0.  1.
         14    1    3    3    0    0 -0.13272966078E+02 -0.22809516756E+02  0.64222601097E+01  0.27160469584E+02  0.00000000000E+00 0. -1.
         11    1    5    5    0    0  0.64687708187E+01 -0.72133467863E+02  0.40128989957E+03  0.40777281135E+03  0.00000000000E+00 0. -1.
        -12    1    5    5    0    0  0.10427500586E+02  0.18641392987E+02  0.57905941334E+02  0.61719788908E+02  0.00000000000E+00 0.  1.
          5    1    4    4  501    0 -0.38631548552E+01  0.97302467651E+02  0.74241842107E+02  0.12252353935E+03  0.41800000000E+01 0. -1.
         -5    1    4    4    0  501 -0.14912780721E+02  0.22677695217E+02 -0.46495776087E+02  0.53999985955E+02  0.41800000000E+01 0. -1.
</event>
<event>
11    1  0.8453735E-009  0.1411125E+03  0.7561462E-02  0.1106322E+00
         22   -1    0    0    0    0  0.00000000000E+00  0.00000000000E+00  0.61376161804E+03  0.61376161804E+03  0.00000000000E+00 0.  1.
         22   -1    0    0    0    0 -0.00000000000E+00 -0.00000000000E+00 -0.20398268029E+04  0.20398268029E+04  0.00000000000E+00 0.  1.
         24    2    1    2    0    0  0.18844783005E+02 -0.62825370538E+02 -0.20100549527E+04  0.20127396337E+04  0.80608727045E+02 0.  0.
         25    2    1    2    0    0 -0.17513908357E+02  0.26729015363E+02  0.15026268105E+03  0.19810508600E+03  0.12508227106E+03 0.  0.
        -24    2    1    2    0    0 -0.13308746484E+01  0.36096355175E+02  0.43372708683E+03  0.44274370126E+03  0.81228573027E+02 0.  0.
        -11    1    3    3    0    0 -0.18624498547E+02 -0.55038331133E+02 -0.15525345436E+04  0.15536214465E+04  0.00000000000E+00 0.  1.
         12    1    3    3    0    0  0.37469281552E+02 -0.77870394054E+01 -0.45752040910E+03  0.45911818716E+03  0.00000000000E+00 0. -1.
         13    1    5    5    0    0  0.54673165949E+01  0.52921148643E+02  0.16414986729E+03  0.17255642108E+03  0.00000000000E+00 0. -1.
        -14    1    5    5    0    0 -0.67981912432E+01 -0.16824793467E+02  0.26957721954E+03  0.27018728019E+03  0.00000000000E+00 0.  1.
          5    1    4    4  501    0 -0.75609819683E+01 -0.78768902965E+01  0.16011362849E+03  0.16053990244E+03  0.41800000000E+01 0. -1.
         -5    1    4    4    0  501 -0.99529263885E+01  0.34605905659E+02 -0.98509474373E+01  0.37565183556E+02  0.41800000000E+01 0. -1.
</event>
<event>
11    1  0.8453735E-009  0.1449779E+03  0.7561462E-02  0.1102124E+00
         22   -1    0    0    0    0  0.00000000000E+00  0.00000000000E+00  0.53685472634E+03  0.53685472634E+03  0.00000000000E+00 0.  1.
         22   -1    0    0    0    0 -0.00000000000E+00 -0.00000000000E+00 -0.14415092483E+03  0.14415092483E+03  0.00000000000E+00 0.  1.
         24    2    1    2    0    0 -0.24695399610E+02 -0.27315588556E+02  0.22281368824E+02  0.89094910920E+02  0.78009227756E+02 0.  0.
         25    2    1    2    0    0  0.39887587183E+02  0.96953234069E+02 -0.39648714223E+02  0.16796013235E+03  0.12509051248E+03 0.  0.
        -24    2    1    2    0    0 -0.15192187574E+02 -0.69637645512E+02  0.41007114692E+03  0.42395060790E+03  0.80595087746E+02 0.  0.
        -11    1    3    3    0    0 -0.23056161286E+02 -0.49789741349E+02 -0.33443928627E+01  0.54970809349E+02  0.00000000000E+00 0.  1.
         12    1    3    3    0    0 -0.16392383238E+01  0.22474152793E+02  0.25625761686E+02  0.34124101571E+02  0.00000000000E+00 0. -1.
         13    1    5    5    0    0  0.10152828231E+02  0.10978483885E+02  0.20830009837E+02  0.25641691429E+02  0.00000000000E+00 0. -1.
        -14    1    5    5    0    0 -0.25345015805E+02 -0.80616129397E+02  0.38924113708E+03  0.39830891647E+03  0.00000000000E+00 0.  1.
          5    1    4    4  501    0  0.73885353329E+02  0.89046185230E+02 -0.10994014935E+01  0.11578838294E+03  0.41800000000E+01 0.  1.
         -5    1    4    4    0  501 -0.33997766146E+02  0.79070488389E+01 -0.38549312730E+02  0.52171749407E+02  0.41800000000E+01 0.  1.
</event>
<event>
11    1  0.8453735E-009  0.1349192E+03  0.7561462E-02  0.1113368E+00
         22   -1    0    0    0    0  0.00000000000E+00  0.00000000000E+00  0.64507688693E+03  0.64507688693E+03  0.00000000000E+00 0. -1.
         22   -1    0    0    0    0 -0.00000000000E+00 -0.00000000000E+00 -0.22964766657E+03  0.22964766657E+03  0.00000000000E+00 0. -1.
         24    2    1    2    0    0  0.62158827484E+01 -0.51146224244E+02 -0.16718251236E+03  0.19224131511E+03  0.79700422460E+02 0.  0.
         25    2    1    2    0    0 -0.19005890260E+02  0.40941641918E+02  0.47845136276E+02  0.14133310862E+03  0.12509375931E+03 0.  0.
        -24    2    1    2    0    0  0.12790007511E+02  0.10204582326E+02  0.53476659645E+03  0.54115012977E+03  0.81243045728E+02 0.  0.
        -13    1    3    3    0    0  0.22717467413E+02 -0.76517490262E+01 -0.63245924945E+01  0.24791794188E+02  0.00000000000E+00 0.  1.
         14    1    3    3    0    0 -0.16501584664E+02 -0.43494475218E+02 -0.16085791987E+03  0.16744952092E+03  0.00000000000E+00 0. -1.
         13    1    5    5    0    0 -0.13625564062E+02  0.32290492973E+02  0.41653317911E+03  0.41800504929E+03  0.00000000000E+00 0. -1.
        -14    1    5    5    0    0  0.26415571573E+02 -0.22085910646E+02  0.11823341734E+03  0.12314508048E+03  0.00000000000E+00 0.  1.
          5    1    4    4  501    0  0.38953693348E+02  0.49768745213E+02 -0.32928099953E+01  0.63424232145E+02  0.41800000000E+01 0.  1.
         -5    1    4    4    0  501 -0.57959583608E+02 -0.88271032955E+01  0.51137946271E+02  0.77908876474E+02  0.41800000000E+01 0.  1.
</event>
<event>
11    1  0.8453735E-009  0.1372510E+03  0.7561462E-02  0.1110668E+00
         22   -1    0    0    0    0  0.00000000000E+00  0.00000000000E+00  0.19845621764E+03  0.19845621764E+03  0.00000000000E+00 0. -1.
         22   -1    0    0    0    0 -0.00000000000E+00 -0.00000000000E+00 -0.10664938909E+04  0.10664938909E+04  0.00000000000E+00 0.  1.
         24    2    1    2    0    0  0.48427380534E+01  0.11214585949E+02 -0.99064616808E+03  0.99391973977E+03  0.79670570020E+02 0.  0.
         25    2    1    2    0    0 -0.57906869764E+02  0.67483109431E+01  0.44792644965E+02  0.14509582802E+03  0.12509065912E+03 0.  0.
        -24    2    1    2    0    0  0.53064131710E+02 -0.17962896892E+02  0.77815849831E+02  0.12593454077E+03  0.81643948554E+02 0.  0.
        -13    1    3    3    0    0  0.35314485623E+02 -0.16679933155E+02 -0.51938201981E+03  0.52084836140E+03  0.00000000000E+00 0.  1.
         14    1    3    3    0    0 -0.30471747570E+02  0.27894519103E+02 -0.47126414827E+03  0.47307137837E+03  0.00000000000E+00 0. -1.
         13    1    5    5    0    0  0.70743818820E+02 -0.30545137881E+02  0.56822907614E+02  0.95742029324E+02  0.00000000000E+00 0. -1.
        -14    1    5    5    0    0 -0.17679687110E+02  0.12582240989E+02  0.20992942217E+02  0.30192511448E+02  0.00000000000E+00 0.  1.
          5    1    4    4  501    0 -0.42836009463E+02 -0.33194476452E+02 -0.27592036067E+02  0.60955638197E+02  0.41800000000E+01 0. -1.
         -5    1    4    4    0  501 -0.15070860301E+02  0.39942787396E+02  0.72384681031E+02  0.84140189821E+02  0.41800000000E+01 0. -1.
</event>
<event>
11    1  0.8453735E-009  0.3166501E+03  0.7561462E-02  0.9933808E-01
         22   -1    0    0    0    0  0.00000000000E+00  0.00000000000E+00  0.22077082781E+03  0.22077082781E+03  0.00000000000E+00 0. -1.
         22   -1    0    0    0    0 -0.00000000000E+00 -0.00000000000E+00 -0.25632181380E+04  0.25632181380E+04  0.00000000000E+00 0.  1.
         24    2    1    2    0    0  0.24253277018E+02 -0.15144225924E+02 -0.20437897903E+04  0.20455356462E+04  0.79509772119E+02 0.  0.
         25    2    1    2    0    0 -0.30322265049E+03  0.63906697083E+02 -0.29246619330E+03  0.44408540952E+03  0.12508930818E+03 0.  0.
        -24    2    1    2    0    0  0.27896937347E+03 -0.48762471159E+02 -0.61913265811E+01  0.29436791009E+03  0.80077737478E+02 0.  0.
        -13    1    3    3    0    0 -0.58954023432E+01  0.13852707642E+02 -0.15211693951E+04  0.15212438930E+04  0.00000000000E+00 0.  1.
         14    1    3    3    0    0  0.30148679361E+02 -0.28996933566E+02 -0.52262039523E+03  0.52429175325E+03  0.00000000000E+00 0. -1.
         13    1    5    5    0    0  0.26164900567E+03 -0.62339068031E+02 -0.17659381720E+02  0.26955187874E+03  0.00000000000E+00 0. -1.
        -14    1    5    5    0    0  0.17320367805E+02  0.13576596872E+02  0.11468055139E+02  0.24816031354E+02  0.00000000000E+00 0.  1.
          5    1    4    4  501    0 -0.98525901210E+02  0.68029379754E+02 -0.16120314661E+03  0.20084640051E+03  0.41800000000E+01 0.  1.
         -5    1    4    4    0  501 -0.20469674928E+03 -0.41226826704E+01 -0.13126304669E+03  0.24323900901E+03  0.41800000000E+01 0.  1.
</event>
<event>
11    1  0.8453735E-009  0.1435686E+03  0.7561462E-02  0.1103638E+00
         22   -1    0    0    0    0  0.00000000000E+00  0.00000000000E+00  0.32789233257E+03  0.32789233257E+03  0.00000000000E+00 0.  1.
         22   -1    0    0    0    0 -0.00000000000E+00 -0.00000000000E+00 -0.36445180076E+03  0.36445180076E+03  0.00000000000E+00 0. -1.
        -24    2    1    2    0    0  0.68360799324E+02  0.34416766100E+02 -0.28930627804E+03  0.30976008942E+03  0.79971731319E+02 0.  0.
         25    2    1    2    0    0 -0.35009908464E+02  0.14038531225E+02  0.19052929720E+02  0.13203109932E+03  0.12508566268E+03 0.  0.
         24    2    1    2    0    0 -0.33350890860E+02 -0.48455297325E+02  0.23369388013E+03  0.25055294459E+03  0.68583895125E+02 0.  0.
        -11    1    5    5    0    0 -0.41727109008E+01 -0.46335752938E+02  0.20254723856E+03  0.20782155173E+03  0.00000000000E+00 0.  1.
         12    1    5    5    0    0 -0.29178179960E+02 -0.21195443871E+01  0.31146641576E+02  0.42731392859E+02  0.00000000000E+00 0. -1.
         13    1    3    3    0    0  0.53109481965E+02  0.30392076857E+02 -0.28743492532E+03  0.29387604819E+03  0.00000000000E+00 0. -1.
        -14    1    3    3    0    0  0.15251317360E+02  0.40246892433E+01 -0.18713527270E+01  0.15884041228E+02  0.00000000000E+00 0.  1.
          5    1    4    4  501    0 -0.57533688651E+02  0.56062647347E+02 -0.20271912659E+00  0.80440408082E+02  0.41800000000E+01 0. -1.
         -5    1    4    4    0  501  0.22523780187E+02 -0.42024116122E+02  0.19255648847E+02  0.51590691237E+02  0.41800000000E+01 0. -1.
</event>
<event>
11    1  0.8453735E-009  0.1414495E+03  0.7561462E-02  0.1105950E+00
         22   -1    0    0    0    0  0.00000000000E+00  0.00000000000E+00  0.15692308720E+03  0.15692308720E+03  0.00000000000E+00 0.  1.
         22   -1    0    0    0    0 -0.00000000000E+00 -0.00000000000E+00 -0.30709397746E+03  0.30709397746E+03  0.00000000000E+00 0.  1.
         24    2    1    2    0    0 -0.10375231778E+03 -0.66009211046E+02 -0.11384426777E+03  0.18560608104E+03  0.79795617857E+02 0.  0.
         25    2    1    2    0    0 -0.94814389955E+01  0.51998418125E+02 -0.61813093920E+01  0.13594103185E+03  0.12509205563E+03 0.  0.
        -24    2    1    2    0    0  0.11323375678E+03  0.14010792921E+02 -0.30145313107E+02  0.14246995177E+03  0.79817048696E+02 0.  0.
        -13    1    3    3    0    0 -0.21108850731E+02 -0.15850882279E+02  0.10234590833E+02  0.28312204042E+02  0.00000000000E+00 0.  1.
         14    1    3    3    0    0 -0.82643467049E+02 -0.50158328767E+02 -0.12407885860E+03  0.15729387700E+03  0.00000000000E+00 0. -1.
         13    1    5    5    0    0  0.12466935744E+02 -0.26943087789E+02 -0.34197907972E+00  0.29689584304E+02  0.00000000000E+00 0. -1.
        -14    1    5    5    0    0  0.10076682103E+03  0.40953880710E+02 -0.29803334027E+02  0.11278036746E+03  0.00000000000E+00 0.  1.
          5    1    4    4  501    0  0.40454599620E+02  0.71008205903E+02 -0.86674592541E+01  0.82288135147E+02  0.41800000000E+01 0. -1.
         -5    1    4    4    0  501 -0.49936038616E+02 -0.19009787777E+02  0.24861498621E+01  0.53652896708E+02  0.41800000000E+01 0. -1.
</event>
<event>
11    1  0.8453735E-009  0.1344975E+03  0.7561462E-02  0.1113863E+00
         22   -1    0    0    0    0  0.00000000000E+00  0.00000000000E+00  0.92414743959E+02  0.92414743959E+02  0.00000000000E+00 0. -1.
         22   -1    0    0    0    0 -0.00000000000E+00 -0.00000000000E+00 -0.24677506969E+04  0.24677506969E+04  0.00000000000E+00 0.  1.
        -24    2    1    2    0    0 -0.40951561710E+02  0.23391669966E+02 -0.22869556277E+04  0.22887918182E+04  0.78598623974E+02 0.  0.
         25    2    1    2    0    0  0.80750955622E+02 -0.19052711423E+02 -0.96781059514E+02  0.17859959033E+03  0.12509003772E+03 0.  0.
         24    2    1    2    0    0 -0.39799393912E+02 -0.43389585430E+01  0.84007342032E+01  0.92774032331E+02  0.83268423924E+02 0.  0.
        -11    1    5    5    0    0 -0.29068607012E+02 -0.32686848657E+01 -0.36397978657E+02  0.46695621473E+02  0.00000000000E+00 0.  1.
         12    1    5    5    0    0 -0.10730786900E+02 -0.10702736773E+01  0.44798712861E+02  0.46078410858E+02  0.00000000000E+00 0. -1.
         13    1    3    3    0    0 -0.32359552349E+02 -0.25852077169E+02 -0.95174626283E+03  0.95264705916E+03  0.00000000000E+00 0. -1.
        -14    1    3    3    0    0 -0.85920093607E+01  0.49243747135E+02 -0.13352093648E+04  0.13361447591E+04  0.00000000000E+00 0.  1.
          5    1    4    4  501    0 -0.66397192575E+01 -0.45761221793E+02 -0.68685735944E+02  0.82905838238E+02  0.41800000000E+01 0. -1.
         -5    1    4    4    0  501  0.87390674879E+02  0.26708510369E+02 -0.28095323570E+02  0.95693752087E+02  0.41800000000E+01 0. -1.
</event>
<event>
11    1  0.8453735E-009  0.2981608E+03  0.7561462E-02  0.1000973E+00
         22   -1    0    0    0    0  0.00000000000E+00  0.00000000000E+00  0.11893074671E+04  0.11893074671E+04  0.00000000000E+00 0.  1.
         22   -1    0    0    0    0 -0.00000000000E+00 -0.00000000000E+00 -0.17634889765E+04  0.17634889765E+04  0.00000000000E+00 0.  1.
         24    2    1    2    0    0 -0.85935432269E+01  0.46189097123E+02 -0.10801096694E+04  0.10841667638E+04  0.81076459383E+02 0.  0.
         25    2    1    2    0    0  0.28915206523E+02 -0.31488478262E+03 -0.62047530643E+03  0.70754908034E+03  0.12509028619E+03 0.  0.
        -24    2    1    2    0    0 -0.20321663296E+02  0.26869568550E+03  0.11264034664E+04  0.11610805995E+04  0.81933192593E+02 0.  0.
        -13    1    3    3    0    0  0.15121057038E+02  0.16824062752E+02 -0.89307755885E+03  0.89336399165E+03  0.00000000000E+00 0.  1.
         14    1    3    3    0    0 -0.23714600265E+02  0.29365034371E+02 -0.18703211050E+03  0.19080277217E+03  0.00000000000E+00 0. -1.
         11    1    5    5    0    0 -0.20247159566E+01  0.43388661885E+02  0.34226118689E+03  0.34500637024E+03  0.00000000000E+00 0. -1.
        -12    1    5    5    0    0 -0.18296947339E+02  0.22530702362E+03  0.78414227947E+03  0.81607422923E+03  0.00000000000E+00 0.  1.
          5    1    4    4  501    0 -0.48010248581E+02 -0.15185948745E+03 -0.30863046732E+03  0.34732769203E+03  0.41800000000E+01 0. -1.
         -5    1    4    4    0  501  0.76925455104E+02 -0.16302529517E+03 -0.31184483912E+03  0.36022138831E+03  0.41800000000E+01 0. -1.
</event>
<event>
11    1  0.8453735E-009  0.1343748E+03  0.7561462E-02  0.1114008E+00
         22   -1    0    0    0    0  0.00000000000E+00  0.00000000000E+00  0.32789838975E+03  0.32789838975E+03  0.00000000000E+00 0. -1.
         22   -1    0    0    0    0 -0.00000000000E+00 -0.00000000000E+00 -0.42276353283E+03  0.42276353283E+03  0.00000000000E+00 0.  1.
        -24    2    1    2    0    0  0.34325715927E+02 -0.34860913078E+02 -0.30582434996E+03  0.32001136237E+03  0.80530745579E+02 0.  0.
         25    2    1    2    0    0 -0.42516426347E+02  0.28165878863E+02 -0.60077555517E+02  0.14784409419E+03  0.12509036840E+03 0.  0.
         24    2    1    2    0    0  0.81907104205E+01  0.66950342155E+01  0.27103676239E+03  0.28280646602E+03  0.80041610666E+02 0.  0.
        -13    1    5    5    0    0 -0.20668656537E+02  0.12078783407E+02  0.23538186764E+02  0.33572855222E+02  0.00000000000E+00 0.  1.
         14    1    5    5    0    0  0.28859366958E+02 -0.53837491912E+01  0.24749857562E+03  0.24923361080E+03  0.00000000000E+00 0. -1.
         13    1    3    3    0    0 -0.65760206509E+01 -0.39652822138E+02 -0.70866027503E+02  0.81471370463E+02  0.00000000000E+00 0. -1.
        -14    1    3    3    0    0  0.40901736578E+02  0.47919090598E+01 -0.23495832245E+03  0.23853999191E+03  0.00000000000E+00 0.  1.
          5    1    4    4  501    0 -0.57861619677E+02 -0.18861451235E+01  0.19561331425E+02  0.61250654381E+02  0.41800000000E+01 0.  1.
         -5    1    4    4    0  501  0.15345193329E+02  0.30052023986E+02 -0.79638886942E+02  0.86593439805E+02  0.41800000000E+01 0.  1.
</event>
<event>
11    1  0.8453735E-009  0.2546853E+03  0.7561462E-02  0.1021433E+00
         22   -1    0    0    0    0  0.00000000000E+00  0.00000000000E+00  0.41091034908E+03  0.41091034908E+03  0.00000000000E+00 0.  1.
         22   -1    0    0    0    0 -0.00000000000E+00 -0.00000000000E+00 -0.49120736215E+03  0.49120736215E+03  0.00000000000E+00 0.  1.
        -24    2    1    2    0    0  0.19338452246E+03 -0.81371130952E+02 -0.30334245134E+03  0.37761309990E+03  0.80970216463E+02 0.  0.
         25    2    1    2    0    0 -0.30184004445E+03  0.86847172520E+02  0.17624249810E+03  0.38125840984E+03  0.12508682236E+03 0.  0.
         24    2    1    2    0    0  0.10845552199E+03 -0.54760415674E+01  0.46802940173E+02  0.14324620149E+03  0.80847830833E+02 0.  0.
        -13    1    5    5    0    0  0.97193476138E+02  0.20917734646E+02  0.15226029743E+02  0.10057810601E+03  0.00000000000E+00 0.  1.
         14    1    5    5    0    0  0.11262045854E+02 -0.26393776214E+02  0.31576910430E+02  0.42668095481E+02  0.00000000000E+00 0. -1.
         13    1    3    3    0    0  0.52892057385E+02  0.10458722713E+02 -0.10297537756E+03  0.11623632392E+03  0.00000000000E+00 0. -1.
        -14    1    3    3    0    0  0.14049246508E+03 -0.91829853666E+02 -0.20036707378E+03  0.26137677598E+03  0.00000000000E+00 0.  1.
          5    1    4    4  501    0 -0.20580764469E+03 -0.68273183321E+00  0.12902469948E+03  0.24294464022E+03  0.41800000000E+01 0. -1.
         -5    1    4    4    0  501 -0.96032399761E+02  0.87529904353E+02  0.47217798615E+02  0.13831376962E+03  0.41800000000E+01 0. -1.
</event>
<event>
11    1  0.8453735E-009  0.1525979E+03  0.7561462E-02  0.1094253E+00
         22   -1    0    0    0    0  0.00000000000E+00  0.00000000000E+00  0.73926078743E+02  0.73926078743E+02  0.00000000000E+00 0. -1.
         22   -1    0    0    0    0 -0.00000000000E+00 -0.00000000000E+00 -0.20497524104E+04  0.20497524104E+04  0.00000000000E+00 0.  1.
        -24    2    1    2    0    0 -0.84792387043E+02  0.22428502007E+02 -0.17170935368E+04  0.17212401341E+04  0.81022210347E+02 0.  0.
         25    2    1    2    0    0  0.86361242414E+02 -0.30811776553E+01 -0.27827607462E+03  0.31710130929E+03  0.12509160165E+03 0.  0.
         24    2    1    2    0    0 -0.15688553716E+01 -0.19347324352E+02  0.19543279791E+02  0.85337045704E+02  0.80769371162E+02 0.  0.
        -11    1    5    5    0    0  0.82964328774E+01  0.30025396098E+02 -0.47657389617E+00  0.31154170379E+02  0.00000000000E+00 0.  1.
         12    1    5    5    0    0 -0.98652882491E+01 -0.49372720450E+02  0.20019853687E+02  0.54182875325E+02  0.00000000000E+00 0. -1.
         13    1    3    3    0    0  0.12632802584E+01  0.27786662402E+02 -0.23495292189E+03  0.23659368121E+03  0.00000000000E+00 0. -1.
        -14    1    3    3    0    0 -0.86055667301E+02 -0.53581603948E+01 -0.14821406149E+04  0.14846464529E+04  0.00000000000E+00 0.  1.
          5    1    4    4  501    0 -0.18804334698E+02  0.93250936733E+01 -0.23585871550E+01  0.21531272810E+02  0.41800000000E+01 0.  1.
         -5    1    4    4    0  501  0.10516557711E+03 -0.12406271329E+02 -0.27591748746E+03  0.29557003648E+03  0.41800000000E+01 0.  1.
</event>
<event>
11    1  0.8453735E-009  0.1405783E+03  0.7561462E-02  0.1106914E+00
         22   -1    0    0    0    0  0.00000000000E+00  0.00000000000E+00  0.12873002212E+04  0.12873002212E+04  0.00000000000E+00 0. -1.
         22   -1    0    0    0    0 -0.00000000000E+00 -0.00000000000E+00 -0.25317050545E+03  0.25317050545E+03  0.00000000000E+00 0.  1.
        -24    2    1    2    0    0  0.58778325111E+02 -0.20094890539E+02 -0.16837689203E+03  0.19030959333E+03  0.63310879134E+02 0.  0.
         25    2    1    2    0    0 -0.68787384758E+02  0.38121666161E+02  0.32484657241E+01  0.14782158538E+03  0.12512275110E+03 0.  0.
         24    2    1    2    0    0  0.10009059647E+02 -0.18026775622E+02  0.11992581421E+04  0.12023395479E+04  0.83517371481E+02 0.  0.
        -11    1    5    5    0    0  0.32389757003E+02 -0.17899478672E+02  0.24141009739E+03  0.24423006124E+03  0.00000000000E+00 0.  1.
         12    1    5    5    0    0 -0.22380697356E+02 -0.12729695034E+00  0.95784804467E+03  0.95810948669E+03  0.00000000000E+00 0. -1.
         11    1    3    3    0    0 -0.11373072526E+02 -0.13929148723E+02 -0.28359458384E+02  0.33580155489E+02  0.00000000000E+00 0. -1.
        -12    1    3    3    0    0  0.70151397637E+02 -0.61657418162E+01 -0.14001743364E+03  0.15672943784E+03  0.00000000000E+00 0.  1.
          5    1    4    4  501    0  0.12919530761E+02  0.57144019657E+02 -0.17526628350E+02  0.61294439870E+02  0.41800000000E+01 0.  1.
         -5    1    4    4    0  501 -0.81706915518E+02 -0.19022353496E+02  0.20775094074E+02  0.86527145509E+02  0.41800000000E+01 0.  1.
</event>
<event>
11    1  0.8453735E-009  0.1693613E+03  0.7561462E-02  0.1078589E+00
         22   -1    0    0    0    0  0.00000000000E+00  0.00000000000E+00  0.40239110780E+03  0.40239110780E+03  0.00000000000E+00 0. -1.
         22   -1    0    0    0    0 -0.00000000000E+00 -0.00000000000E+00 -0.66916678152E+03  0.66916678152E+03  0.00000000000E+00 0.  1.
        -24    2    1    2    0    0 -0.29568755191E+02  0.32342573310E+02 -0.55815474336E+03  0.56591015525E+03  0.82445333031E+02 0.  0.
         25    2    1    2    0    0  0.33486629873E+02  0.86164023372E+02 -0.25940388342E+02  0.15769044599E+03  0.12509108563E+03 0.  0.
         24    2    1    2    0    0 -0.39178746814E+01 -0.11850659668E+03  0.31731945798E+03  0.34795728808E+03  0.79520266087E+02 0.  0.
        -11    1    5    5    0    0 -0.36156071626E+02 -0.95722052291E+02  0.20986878438E+03  0.23348421674E+03  0.00000000000E+00 0.  1.
         12    1    5    5    0    0  0.32238196944E+02 -0.22784544390E+02  0.10745067360E+03  0.11447307134E+03  0.00000000000E+00 0. -1.
         11    1    3    3    0    0  0.16991697614E+02  0.41530762741E+02 -0.22938803251E+03  0.23373573005E+03  0.00000000000E+00 0. -1.
        -12    1    3    3    0    0 -0.46560452805E+02 -0.91881894315E+01 -0.32876671085E+03  0.33217442520E+03  0.00000000000E+00 0.  1.
          5    1    4    4  501    0  0.53235290137E+02  0.10519153292E+03 -0.42490659712E+02  0.12538813053E+03  0.41800000000E+01 0. -1.
         -5    1    4    4    0  501 -0.19748660265E+02 -0.19027509548E+02  0.16550271370E+02  0.32302315463E+02  0.41800000000E+01 0. -1.
</event>
<event>
11    1  0.8453735E-009  0.1854101E+03  0.7561462E-02  0.1065349E+00
         22   -1    0    0    0    0  0.00000000000E+00  0.00000000000E+00  0.91545465351E+03  0.91545465351E+03  0.00000000000E+00 0. -1.
         22   -1    0    0    0    0 -0.00000000000E+00 -0.00000000000E+00 -0.32192105113E+03  0.32192105113E+03  0.00000000000E+00 0.  1.
        -24    2    1    2    0    0  0.51377616690E+02 -0.53984488783E+02 -0.25548901143E+03  0.27796590149E+03  0.80227320172E+02 0.  0.
         25    2    1    2    0    0  0.82625559909E+02  0.99536797382E+02  0.12929708452E+03  0.22158378987E+03  0.12508829954E+03 0.  0.
         24    2    1    2    0    0 -0.13400317660E+03 -0.45552308599E+02  0.71972552929E+03  0.73782601329E+03  0.79690176380E+02 0.  0.
        -13    1    5    5    0    0  0.25581773904E+01  0.13351755388E+02  0.53201527040E+02  0.54910983627E+02  0.00000000000E+00 0.  1.
         14    1    5    5    0    0 -0.13656135399E+03 -0.58904063987E+02  0.66652400225E+03  0.68291502966E+03  0.00000000000E+00 0. -1.
         11    1    3    3    0    0  0.39554179222E+02  0.80745109081E+01 -0.58367230050E+02  0.70968051714E+02  0.00000000000E+00 0. -1.
        -12    1    3    3    0    0  0.11823437468E+02 -0.62058999691E+02 -0.19712178138E+03  0.20699784977E+03  0.00000000000E+00 0.  1.
          5    1    4    4  501    0  0.20120650545E+02  0.10846427759E+03  0.10898160789E+03  0.15512512160E+03  0.41800000000E+01 0. -1.
         -5    1    4    4    0  501  0.62504909364E+02 -0.89274802106E+01  0.20315476633E+02  0.66458668271E+02  0.41800000000E+01 0. -1.
</event>
<event>
11    1  0.8453735E-009  0.1283233E+03  0.7561462E-02  0.1121346E+00
         22   -1    0    0    0    0  0.00000000000E+00  0.00000000000E+00  0.35437067746E+03  0.35437067746E+03  0.00000000000E+00 0.  1.
         22   -1    0    0    0    0 -0.00000000000E+00 -0.00000000000E+00 -0.61740559083E+03  0.61740559083E+03  0.00000000000E+00 0.  1.
        -24    2    1    2    0    0 -0.25239511821E+02  0.17991415525E+02 -0.53846046836E+03  0.54605373908E+03  0.85289424870E+02 0.  0.
         25    2    1    2    0    0 -0.13797237196E+02 -0.69109453517E+01 -0.10118082086E+02  0.12643437994E+03  0.12508058173E+03 0.  0.
         24    2    1    2    0    0  0.39036749017E+02 -0.11080470173E+02  0.28554363707E+03  0.29928814926E+03  0.79947376565E+02 0.  0.
        -11    1    5    5    0    0 -0.19697166674E+01  0.21387607383E+02  0.18220777272E+03  0.18346929436E+03  0.00000000000E+00 0.  1.
         12    1    5    5    0    0  0.41006465685E+02 -0.32468077556E+02  0.10333586436E+03  0.11581885490E+03  0.00000000000E+00 0. -1.
         11    1    3    3    0    0 -0.23135789230E+02  0.47460358999E+01 -0.33904407610E+02  0.41319468238E+02  0.00000000000E+00 0. -1.
        -12    1    3    3    0    0 -0.21037225914E+01  0.13245379625E+02 -0.50455606075E+03  0.50473427084E+03  0.00000000000E+00 0.  1.
          5    1    4    4  501    0 -0.14372132872E+02 -0.41115044789E+02  0.44143089781E+02  0.62153760037E+02  0.41800000000E+01 0. -1.
         -5    1    4    4    0  501  0.57489567563E+00  0.34204099438E+02 -0.54261171867E+02  0.64280619908E+02  0.41800000000E+01 0. -1.
</event>
<event>
11    1  0.8453735E-009  0.2258315E+04  0.7561462E-02  0.7968636E-01
         22   -1    0    0    0    0  0.00000000000E+00  0.00000000000E+00  0.12247392694E+04  0.12247392694E+04  0.00000000000E+00 0. -1.
         22   -1    0    0    0    0 -0.00000000000E+00 -0.00000000000E+00 -0.10410348652E+04  0.10410348652E+04  0.00000000000E+00 0. -1.
        -24    2    1    2    0    0 -0.61780591492E+03 -0.56047587437E+03  0.14019129927E+03  0.84982069014E+03  0.82001528908E+02 0.  0.
         25    2    1    2    0    0  0.78883289763E+03  0.73267917510E+03 -0.15173042917E+03  0.10944155619E+04  0.12508870804E+03 0.  0.
         24    2    1    2    0    0 -0.17102698271E+03 -0.17220330073E+03  0.19524353408E+03  0.32153788267E+03  0.79764445693E+02 0.  0.
        -11    1    5    5    0    0 -0.15316287649E+03 -0.17962324617E+03  0.17839632989E+03  0.29588617375E+03  0.00000000000E+00 0.  1.
         12    1    5    5    0    0 -0.17864106224E+02  0.74199454436E+01  0.16847204192E+02  0.25651708923E+02  0.00000000000E+00 0. -1.
         13    1    3    3    0    0 -0.29775190135E+03 -0.22727742365E+03  0.36834416697E+02  0.37638809268E+03  0.00000000000E+00 0. -1.
        -14    1    3    3    0    0 -0.32005401357E+03 -0.33319845072E+03  0.10335688257E+03  0.47343259746E+03  0.00000000000E+00 0.  1.
          5    1    4    4  501    0 -0.88776496601E+00  0.45321995079E+01  0.60746685983E+01  0.87007446574E+01  0.41800000000E+01 0.  1.
         -5    1    4    4    0  501  0.78972066260E+03  0.72814697559E+03 -0.15780509777E+03  0.10857148172E+04  0.41800000000E+01 0.  1.
</event>
<event>
11    1  0.8453735E-009  0.1318106E+03  0.7561462E-02  0.1117064E+00
         22   -1    0    0    0    0  0.00000000000E+00  0.00000000000E+00  0.73399883430E+03  0.73399883430E+03  0.00000000000E+00 0. -1.
         22   -1    0    0    0    0 -0.00000000000E+00 -0.00000000000E+00 -0.75425147939E+03  0.75425147939E+03  0.00000000000E+00 0.  1.
         24    2    1    2    0    0  0.33743708582E+01 -0.14786522823E+02 -0.72527372018E+03  0.73005293944E+03  0.82007911619E+02 0.  0.
         25    2    1    2    0    0  0.20660703674E+02 -0.21560394131E+02  0.15879715071E+03  0.20434350660E+03  0.12509203949E+03 0.  0.
        -24    2    1    2    0    0 -0.24035074532E+02  0.36346916954E+02  0.54622392438E+03  0.55385386765E+03  0.80589999153E+02 0.  0.
        -11    1    3    3    0    0 -0.42032633025E+00 -0.15414774447E+02 -0.72597875049E+03  0.72614250537E+03  0.00000000000E+00 0.  1.
         12    1    3    3    0    0  0.37946971885E+01  0.62825162349E+00  0.70503031215E+00  0.39104340674E+01  0.00000000000E+00 0. -1.
         13    1    5    5    0    0 -0.32471884729E+02  0.27715823085E+02  0.53691974752E+03  0.53861433830E+03  0.00000000000E+00 0. -1.
        -14    1    5    5    0    0  0.84368101970E+01  0.86310938684E+01  0.93041768613E+01  0.15239529347E+02  0.00000000000E+00 0.  1.
          5    1    4    4  501    0  0.61797925892E+02  0.19529787244E+02  0.11250552394E+03  0.12990520217E+03  0.41800000000E+01 0. -1.
         -5    1    4    4    0  501 -0.41137222218E+02 -0.41090181374E+02  0.46291626768E+02  0.74438304427E+02  0.41800000000E+01 0. -1.
</event>
<event>
11    1  0.8453735E-009  0.1608428E+03  0.7561462E-02  0.1086287E+00
         22   -1    0    0    0    0  0.00000000000E+00  0.00000000000E+00  0.65063629341E+03  0.65063629341E+03  0.00000000000E+00 0. -1.
         22   -1    0    0    0    0 -0.00000000000E+00 -0.00000000000E+00 -0.32791762485E+03  0.32791762485E+03  0.00000000000E+00 0.  1.
         24    2    1    2    0    0 -0.68396026842E+02 -0.71971310118E+02 -0.27011197972E+03  0.29882466976E+03  0.80484878695E+02 0.  0.
         25    2    1    2    0    0  0.75483311225E+02  0.10284607538E+03  0.16123581322E+03  0.24066392938E+03  0.12508834455E+03 0.  0.
        -24    2    1    2    0    0 -0.70872843829E+01 -0.30874765266E+02  0.43159483506E+03  0.43906531913E+03  0.74167190039E+02 0.  0.
        -11    1    3    3    0    0 -0.77008218312E+02 -0.26419997543E+02 -0.16855529035E+03  0.18718752058E+03  0.00000000000E+00 0.  1.
         12    1    3    3    0    0  0.86121914699E+01 -0.45551312575E+02 -0.10155668937E+03  0.11163714917E+03  0.00000000000E+00 0. -1.
         13    1    5    5    0    0  0.32635883493E+01 -0.17316021693E+01  0.37114669094E+03  0.37116507870E+03  0.00000000000E+00 0. -1.
        -14    1    5    5    0    0 -0.10350872732E+02 -0.29143163097E+02  0.60448144125E+02  0.67900240425E+02  0.00000000000E+00 0.  1.
          5    1    4    4  501    0 -0.92531062704E+01  0.10951066922E+02 -0.17188792167E+02  0.22769998211E+02  0.41800000000E+01 0. -1.
         -5    1    4    4    0  501  0.84736417495E+02  0.91895008462E+02  0.17842460539E+03  0.21789393117E+03  0.41800000000E+01 0. -1.
</event>
<event>
11    1  0.8453735E-009  0.1984565E+03  0.7561462E-02  0.1055621E+00
         22   -1    0    0    0    0  0.00000000000E+00  0.00000000000E+00  0.22570764185E+03  0.22570764185E+03  0.00000000000E+00 0. -1.
         22   -1    0    0    0    0 -0.00000000000E+00 -0.00000000000E+00 -0.13592750073E+04  0.13592750073E+04  0.00000000000E+00 0.  1.
        -24    2    1    2    0    0 -0.31209452196E+02 -0.42547894142E+02 -0.33791112126E+03  0.35091804776E+03  0.78582422758E+02 0.  0.
         25    2    1    2    0    0 -0.11133205223E+03  0.10215706619E+03 -0.96887965362E+03  0.98853681858E+03  0.12508543664E+03 0.  0.
         24    2    1    2    0    0  0.14254150442E+03 -0.59609172051E+02  0.17322340939E+03  0.24552778286E+03  0.80038795097E+02 0.  0.
        -13    1    5    5    0    0  0.32179742930E+02 -0.36436215779E+02  0.99667202404E+02  0.11089041848E+03  0.00000000000E+00 0.  1.
         14    1    5    5    0    0  0.11036176149E+03 -0.23172956272E+02  0.73556206990E+02  0.13463736438E+03  0.00000000000E+00 0. -1.
         13    1    3    3    0    0  0.15140991772E+02  0.11864074059E+02 -0.37804476190E+02  0.42416792725E+02  0.00000000000E+00 0. -1.
        -14    1    3    3    0    0 -0.46350443967E+02 -0.54411968201E+02 -0.30010664507E+03  0.30850125503E+03  0.00000000000E+00 0.  1.
          5    1    4    4  501    0 -0.12817205428E+03  0.65732774497E+02 -0.58267101402E+03  0.60022650401E+03  0.41800000000E+01 0. -1.
         -5    1    4    4    0  501  0.16840002056E+02  0.36424291696E+02 -0.38620863961E+03  0.38831031457E+03  0.41800000000E+01 0. -1.
</event>
<event>
11    1  0.8453735E-009  0.1460875E+03  0.7561462E-02  0.1100945E+00
         22   -1    0    0    0    0  0.00000000000E+00  0.00000000000E+00  0.31403353441E+04  0.31403353441E+04  0.00000000000E+00 0.  1.
         22   -1    0    0    0    0 -0.00000000000E+00 -0.00000000000E+00 -0.12731685683E+03  0.12731685683E+03  0.00000000000E+00 0.  1.
         24    2    1    2    0    0  0.43193453154E+02  0.62173639294E+02 -0.95069597642E+02  0.14574223118E+03  0.80444600407E+02 0.  0.
         25    2    1    2    0    0 -0.15722124029E+02 -0.70743559118E+02  0.85349899571E+03  0.86565551036E+03  0.12508833119E+03 0.  0.
        -24    2    1    2    0    0 -0.27471329124E+02  0.85699198244E+01  0.22545890892E+04  0.22562544594E+04  0.81756387697E+02 0.  0.
        -13    1    3    3    0    0  0.19094527137E+02  0.66088203319E+02 -0.99463851542E+02  0.12093514521E+03  0.00000000000E+00 0.  1.
         14    1    3    3    0    0  0.24098926016E+02 -0.39145640257E+01  0.43942538998E+01  0.24807085963E+02  0.00000000000E+00 0. -1.
         13    1    5    5    0    0 -0.46764120592E+01 -0.27262284274E+02  0.31826958224E+03  0.31946929110E+03  0.00000000000E+00 0. -1.
        -14    1    5    5    0    0 -0.22794917065E+02  0.35832204098E+02  0.19363195070E+04  0.19367851683E+04  0.00000000000E+00 0.  1.
          5    1    4    4  501    0 -0.62509458571E+02 -0.70077815851E+02  0.65272069502E+03  0.65945440387E+03  0.41800000000E+01 0.  1.
         -5    1    4    4    0  501  0.46787334542E+02 -0.66574326730E+00  0.20077830069E+03  0.20620110649E+03  0.41800000000E+01 0.  1.
</event>
<event>
11    1  0.8453735E-009  0.3019895E+03  0.7561462E-02  0.9993527E-01
         22   -1    0    0    0    0  0.00000000000E+00  0.00000000000E+00  0.17167868602E+03  0.17167868602E+03  0.00000000000E+00 0. -1.
         22   -1    0    0    0    0 -0.00000000000E+00 -0.00000000000E+00 -0.80001690745E+03  0.80001690745E+03  0.00000000000E+00 0. -1.
        -24    2    1    2    0    0 -0.29392047972E+03  0.51179364017E+02 -0.31244737850E+03  0.43957318192E+03  0.81195087484E+02 0.  0.
         25    2    1    2    0    0  0.25696381559E+03  0.29763896974E+02 -0.29261945938E+03  0.41010873698E+03  0.12508691400E+03 0.  0.
         24    2    1    2    0    0  0.36956664132E+02 -0.80943260992E+02 -0.23271383541E+02  0.12201367456E+03  0.80175887679E+02 0.  0.
        -13    1    5    5    0    0 -0.23276089874E+02 -0.27106526962E+02  0.57189353372E+01  0.36183509851E+02  0.00000000000E+00 0.  1.
         14    1    5    5    0    0  0.60232754005E+02 -0.53836734029E+02 -0.28990318878E+02  0.85830164713E+02  0.00000000000E+00 0. -1.
         11    1    3    3    0    0 -0.16658802442E+03  0.62975343866E+02 -0.15010102616E+03  0.23291153228E+03  0.00000000000E+00 0. -1.
        -12    1    3    3    0    0 -0.12733245531E+03 -0.11795979848E+02 -0.16234635235E+03  0.20666164965E+03  0.00000000000E+00 0.  1.
          5    1    4    4  501    0  0.17607808360E+03  0.56437016768E+02 -0.25942651077E+03  0.31860353933E+03  0.41800000000E+01 0.  1.
         -5    1    4    4    0  501  0.80885731993E+02 -0.26673119793E+02 -0.33192948613E+02  0.91505197651E+02  0.41800000000E+01 0.  1.
</event>
<event>
11    1  0.8453735E-009  0.1992796E+03  0.7561462E-02  0.1055034E+00
         22   -1    0    0    0    0  0.00000000000E+00  0.00000000000E+00  0.32332034006E+03  0.32332034006E+03  0.00000000000E+00 0. -1.
         22   -1    0    0    0    0 -0.00000000000E+00 -0.00000000000E+00 -0.21461797214E+04  0.21461797214E+04  0.00000000000E+00 0.  1.
         24    2    1    2    0    0  0.10855327651E+03  0.64753256913E+02 -0.17235372050E+04  0.17299586883E+04  0.78738605742E+02 0.  0.
         25    2    1    2    0    0 -0.24439616071E+03  0.14051144870E+00 -0.34488978697E+03  0.44082431896E+03  0.12509041496E+03 0.  0.
        -24    2    1    2    0    0  0.13584288420E+03 -0.64893768362E+02  0.24556761065E+03  0.29871705420E+03  0.79145035902E+02 0.  0.
        -11    1    3    3    0    0  0.63766744921E+02  0.26850555661E+02 -0.13563379430E+04  0.13581015300E+04  0.00000000000E+00 0.  1.
         12    1    3    3    0    0  0.44786531586E+02  0.37902701252E+02 -0.36719926196E+03  0.37185715827E+03  0.00000000000E+00 0. -1.
         13    1    5    5    0    0  0.72210108233E+02 -0.19873064142E+02  0.18631449486E+03  0.20080420664E+03  0.00000000000E+00 0. -1.
        -14    1    5    5    0    0  0.63632775970E+02 -0.45020704220E+02  0.59253115788E+02  0.97912847556E+02  0.00000000000E+00 0.  1.
          5    1    4    4  501    0 -0.84513266637E+00 -0.45991716011E+01 -0.82607310399E+02  0.82845076860E+02  0.41800000000E+01 0. -1.
         -5    1    4    4    0  501 -0.24355102804E+03  0.47396830498E+01 -0.26228247657E+03  0.35797924210E+03  0.41800000000E+01 0. -1.
</event>
<event>
11    1  0.8453735E-009  0.1647391E+03  0.7561462E-02  0.1082703E+00
         22   -1    0    0    0    0  0.00000000000E+00  0.00000000000E+00  0.81878767772E+03  0.81878767772E+03  0.00000000000E+00 0.  1.
         22   -1    0    0    0    0 -0.00000000000E+00 -0.00000000000E+00 -0.74499160361E+02  0.74499160361E+02  0.00000000000E+00 0.  1.
         24    2    1    2    0    0 -0.15240445297E+02  0.60812098586E+02  0.16507568520E+02  0.10414072239E+03  0.81500967687E+02 0.  0.
         25    2    1    2    0    0  0.55290865884E+02 -0.13245667073E+03  0.48375623146E+03  0.51987678454E+03  0.12509968090E+03 0.  0.
        -24    2    1    2    0    0 -0.40050420587E+02  0.71644572144E+02  0.24402471738E+03  0.26926933115E+03  0.78872866681E+02 0.  0.
        -11    1    3    3    0    0 -0.45831727095E+02  0.46378720645E+02 -0.26677153691E+01  0.65258330062E+02  0.00000000000E+00 0.  1.
         12    1    3    3    0    0  0.30591281798E+02  0.14433377941E+02  0.19175283889E+02  0.38882392327E+02  0.00000000000E+00 0. -1.
         11    1    5    5    0    0 -0.66553121447E+01  0.78809242007E+02  0.15736986705E+03  0.17612627533E+03  0.00000000000E+00 0. -1.
        -12    1    5    5    0    0 -0.33395108442E+02 -0.71646698630E+01  0.86654850330E+02  0.93143055822E+02  0.00000000000E+00 0.  1.
          5    1    4    4  501    0 -0.34205969796E+02 -0.43446197189E+02  0.84067816086E+02  0.10070993259E+03  0.41800000000E+01 0. -1.
         -5    1    4    4    0  501  0.89496835680E+02 -0.89010473541E+02  0.39968841537E+03  0.41916685195E+03  0.41800000000E+01 0. -1.
</event>
<event>
11    1  0.8453735E-009  0.1554422E+03  0.7561462E-02  0.1091444E+00
         22   -1    0    0    0    0  0.00000000000E+00  0.00000000000E+00  0.12261575515E+03  0.12261575515E+03  0.00000000000E+00 0.  1.
         22   -1    0    0    0    0 -0.00000000000E+00 -0.00000000000E+00 -0.19140097623E+04  0.19140097623E+04  0.00000000000E+00 0. -1.
        -24    2    1    2    0    0 -0.19658452375E+02  0.72991785957E+02 -0.12391009132E+04  0.12434927231E+04  0.72033489461E+02 0.  0.
         25    2    1    2    0    0 -0.15591337796E+02 -0.15543270648E+03 -0.62778715466E+03  0.65891324597E+03  0.12509011993E+03 0.  0.
         24    2    1    2    0    0  0.35249790171E+02  0.82440920527E+02  0.75494060712E+02  0.13421954842E+03  0.65394807833E+02 0.  0.
        -13    1    5    5    0    0  0.42520345297E+01  0.75095722345E+02  0.68216325048E+02  0.10154267239E+03  0.00000000000E+00 0.  1.
         14    1    5    5    0    0  0.30997755641E+02  0.73451981822E+01  0.72777356637E+01  0.32676876037E+02  0.00000000000E+00 0. -1.
         11    1    3    3    0    0 -0.20703032813E+02  0.77233069127E+02 -0.12347197194E+04  0.12373060850E+04  0.00000000000E+00 0. -1.
        -12    1    3    3    0    0  0.10445804379E+01 -0.42412831701E+01 -0.43811938562E+01  0.61866380875E+01  0.00000000000E+00 0.  1.
          5    1    4    4  501    0  0.21556384844E+02 -0.30713405023E+02 -0.35107902704E+03  0.35310330868E+03  0.41800000000E+01 0.  1.
         -5    1    4    4    0  501 -0.37147722640E+02 -0.12471930146E+03 -0.27670812762E+03  0.30580993729E+03  0.41800000000E+01 0.  1.
</event>
<event>
11    1  0.8453735E-009  0.2871134E+03  0.7561462E-02  0.1005798E+00
         22   -1    0    0    0    0  0.00000000000E+00  0.00000000000E+00  0.84900460899E+03  0.84900460899E+03  0.00000000000E+00 0. -1.
         22   -1    0    0    0    0 -0.00000000000E+00 -0.00000000000E+00 -0.19266284362E+03  0.19266284362E+03  0.00000000000E+00 0.  1.
        -24    2    1    2    0    0 -0.16145291751E+03 -0.10297807912E+02  0.48638065404E+02  0.18745341453E+03  0.81240579706E+02 0.  0.
         25    2    1    2    0    0  0.25844436672E+03  0.21365563051E+03  0.32496789517E+03  0.48342005887E+03  0.12509436952E+03 0.  0.
         24    2    1    2    0    0 -0.96991449213E+02 -0.20335782260E+03  0.28273580480E+03  0.37079397922E+03  0.82382610255E+02 0.  0.
        -13    1    5    5    0    0 -0.10349724235E+03 -0.12970397340E+03  0.19358532966E+03  0.25497074293E+03  0.00000000000E+00 0.  1.
         14    1    5    5    0    0  0.65057931349E+01 -0.73653849198E+02  0.89150475141E+02  0.11582323629E+03  0.00000000000E+00 0. -1.
         11    1    3    3    0    0 -0.17103271218E+03 -0.82379126016E+01  0.45732037821E+02  0.17723281616E+03  0.00000000000E+00 0. -1.
        -12    1    3    3    0    0  0.95797946725E+01 -0.20598953099E+01  0.29060275836E+01  0.10220598367E+02  0.00000000000E+00 0.  1.
          5    1    4    4  501    0 -0.12337422454E+02  0.21494694373E+02  0.15636879948E+02  0.29600984671E+02  0.41800000000E+01 0. -1.
         -5    1    4    4    0  501  0.27078178918E+03  0.19216093614E+03  0.30933101522E+03  0.45381907419E+03  0.41800000000E+01 0. -1.
</event>
<event>
11    1  0.8453735E-009  0.1667795E+03  0.7561462E-02  0.1080869E+00
         22   -1    0    0    0    0  0.00000000000E+00  0.00000000000E+00  0.18550726544E+04  0.18550726544E+04  0.00000000000E+00 0.  1.
         22   -1    0    0    0    0 -0.00000000000E+00 -0.00000000000E+00 -0.87608867374E+02  0.87608867374E+02  0.00000000000E+00 0. -1.
         24    2    1    2    0    0 -0.27762504101E+02 -0.10939124830E+03 -0.17855283945E+02  0.13960066076E+03  0.80201817183E+02 0.  0.
         25    2    1    2    0    0 -0.55321520030E+01  0.79240129970E+02  0.81687447775E+03  0.83020685284E+03  0.12509957309E+03 0.  0.
        -24    2    1    2    0    0  0.33294656104E+02  0.30151118334E+02  0.96844459326E+03  0.97287400822E+03  0.81125098458E+02 0.  0.
        -13    1    3    3    0    0  0.28131596790E+02 -0.44884421900E+02 -0.97653254239E+01  0.53864270606E+02  0.00000000000E+00 0.  1.
         14    1    3    3    0    0 -0.55894100891E+02 -0.64506826404E+02 -0.80899585210E+01  0.85736390151E+02  0.00000000000E+00 0. -1.
         13    1    5    5    0    0 -0.10024407930E+02  0.79146693594E+01  0.24103453777E+02  0.27278328933E+02  0.00000000000E+00 0. -1.
        -14    1    5    5    0    0  0.43319064034E+02  0.22236448974E+02  0.94434113948E+03  0.94559567929E+03  0.00000000000E+00 0.  1.
          5    1    4    4  501    0 -0.51032781991E+02 -0.41488363755E+01  0.22894032148E+03  0.23463311974E+03  0.41800000000E+01 0.  1.
         -5    1    4    4    0  501  0.45500629988E+02  0.83388966346E+02  0.58793415628E+03  0.59557373310E+03  0.41800000000E+01 0.  1.
</event>
<event>
11    1  0.8453735E-009  0.1362406E+03  0.7561462E-02  0.1111831E+00
         22   -1    0    0    0    0  0.00000000000E+00  0.00000000000E+00  0.97434929336E+03  0.97434929336E+03  0.00000000000E+00 0.  1.
         22   -1    0    0    0    0 -0.00000000000E+00 -0.00000000000E+00 -0.17471366087E+03  0.17471366087E+03  0.00000000000E+00 0.  1.
        -24    2    1    2    0    0  0.30052903383E+02 -0.41877003234E+02 -0.11307582750E+03  0.14721749836E+03  0.78930277188E+02 0.  0.
         25    2    1    2    0    0 -0.42512223488E+02  0.57394255286E+02  0.79041841563E+02  0.16430337127E+03  0.12508635180E+03 0.  0.
         24    2    1    2    0    0  0.12459320105E+02 -0.15517252052E+02  0.83366961842E+03  0.83754208461E+03  0.77946719321E+02 0.  0.
        -13    1    5    5    0    0  0.32341365611E+02 -0.12029928156E+02  0.76948257605E+03  0.77025587822E+03  0.00000000000E+00 0.  1.
         14    1    5    5    0    0 -0.19882045506E+02 -0.34873238963E+01  0.64187042373E+02  0.67286206388E+02  0.00000000000E+00 0. -1.
         11    1    3    3    0    0  0.12490824110E+02 -0.50663638341E+02 -0.26656658764E+02  0.58595242071E+02  0.00000000000E+00 0. -1.
        -12    1    3    3    0    0  0.17562079273E+02  0.87866351073E+01 -0.86419168732E+02  0.88622256286E+02  0.00000000000E+00 0.  1.
          5    1    4    4  501    0  0.10207659762E+02  0.11737535307E+01 -0.29270986152E+02  0.31302348882E+02  0.41800000000E+01 0.  1.
         -5    1    4    4    0  501 -0.52719883250E+02  0.56220501755E+02  0.10831282772E+03  0.13300102238E+03  0.41800000000E+01 0.  1.
</event>
<event>
11    1  0.8453735E-009  0.1303984E+03  0.7561462E-02  0.1118780E+00
         22   -1    0    0    0    0  0.00000000000E+00  0.00000000000E+00  0.81067911145E+03  0.81067911145E+03  0.00000000000E+00 0. -1.
         22   -1    0    0    0    0 -0.00000000000E+00 -0.00000000000E+00 -0.10761204226E+04  0.10761204226E+04  0.00000000000E+00 0.  1.
        -24    2    1    2    0    0  0.17486243918E+02  0.13135387607E+02 -0.10593629350E+04  0.10621257604E+04  0.73368901393E+02 0.  0.
         25    2    1    2    0    0  0.16954973160E+02  0.14626732881E+02  0.38727937973E+03  0.40759622602E+03  0.12509177858E+03 0.  0.
         24    2    1    2    0    0 -0.34441217078E+02 -0.27762120488E+02  0.40664224404E+03  0.41707754773E+03  0.81479036621E+02 0.  0.
        -13    1    5    5    0    0  0.92184836753E+01 -0.22351883379E+02  0.33298284771E+02  0.41150490891E+02  0.00000000000E+00 0.  1.
         14    1    5    5    0    0 -0.43659700753E+02 -0.54102371086E+01  0.37334395927E+03  0.37592705684E+03  0.00000000000E+00 0. -1.
         13    1    3    3    0    0  0.30774631675E+01 -0.18161020754E+02 -0.77515524302E+02  0.79674023133E+02  0.00000000000E+00 0. -1.
        -14    1    3    3    0    0  0.14408780751E+02  0.31296408361E+02 -0.98184741066E+03  0.98245173722E+03  0.00000000000E+00 0.  1.
          5    1    4    4  501    0  0.46653309637E+02  0.47494984162E+02  0.12612965582E+03  0.14268310095E+03  0.41800000000E+01 0.  1.
         -5    1    4    4    0  501 -0.29698336477E+02 -0.32868251281E+02  0.26114972391E+03  0.26491312506E+03  0.41800000000E+01 0.  1.
</event>
<event>
11    1  0.8453735E-009  0.2162377E+03  0.7561462E-02  0.1043600E+00
         22   -1    0    0    0    0  0.00000000000E+00  0.00000000000E+00  0.49466152453E+03  0.49466152453E+03  0.00000000000E+00 0. -1.
         22   -1    0    0    0    0 -0.00000000000E+00 -0.00000000000E+00 -0.33561475231E+04  0.33561475231E+04  0.00000000000E+00 0.  1.
        -24    2    1    2    0    0  0.23538898086E+02 -0.30914236990E+02 -0.30427619483E+04  0.30446823665E+04  0.10089930285E+03 0.  0.
         25    2    1    2    0    0  0.14764382108E+03  0.77483540619E+02 -0.25270328820E+03  0.32758142759E+03  0.12509293692E+03 0.  0.
         24    2    1    2    0    0 -0.17118271917E+03 -0.46569303628E+02  0.43397923795E+03  0.47854525347E+03  0.95892425459E+02 0.  0.
        -13    1    5    5    0    0 -0.54938619040E+02 -0.56140477684E+02  0.11825886684E+03  0.14196888632E+03  0.00000000000E+00 0.  1.
         14    1    5    5    0    0 -0.11624410013E+03  0.95711740552E+01  0.31572037111E+03  0.33657636714E+03  0.00000000000E+00 0. -1.
         13    1    3    3    0    0 -0.10848225909E+02  0.22446244933E+02 -0.25908533720E+03  0.26028201987E+03  0.00000000000E+00 0. -1.
        -14    1    3    3    0    0  0.34387123995E+02 -0.53360481923E+02 -0.27836766111E+04  0.27844003467E+04  0.00000000000E+00 0.  1.
          5    1    4    4  501    0 -0.20855911924E+02  0.16253872310E+02 -0.51631551423E+02  0.58158807842E+02  0.41800000000E+01 0.  1.
         -5    1    4    4    0  501  0.16849973301E+03  0.61229668309E+02 -0.20107173677E+03  0.26942261975E+03  0.41800000000E+01 0.  1.
</event>
<event>
11    1  0.8453735E-009  0.1367583E+03  0.7561462E-02  0.1111233E+00
         22   -1    0    0    0    0  0.00000000000E+00  0.00000000000E+00  0.36411934264E+03  0.36411934264E+03  0.00000000000E+00 0. -1.
         22   -1    0    0    0    0 -0.00000000000E+00 -0.00000000000E+00 -0.13459259818E+04  0.13459259818E+04  0.00000000000E+00 0. -1.
         24    2    1    2    0    0  0.18243265929E+02  0.10931276629E+02 -0.11823162687E+04  0.11852929886E+04  0.81212067417E+02 0.  0.
         25    2    1    2    0    0  0.17293188550E+02  0.32543930121E+02 -0.12756061296E+03  0.18242184407E+03  0.12509139642E+03 0.  0.
        -24    2    1    2    0    0 -0.35536454479E+02 -0.43475206750E+02  0.32807024248E+03  0.34233049183E+03  0.80044665257E+02 0.  0.
        -11    1    3    3    0    0  0.40612075087E+02  0.22489061961E+02 -0.41941530946E+03  0.42197665854E+03  0.00000000000E+00 0.  1.
         12    1    3    3    0    0 -0.22368809158E+02 -0.11557785332E+02 -0.76290095928E+03  0.76331633003E+03  0.00000000000E+00 0. -1.
         13    1    5    5    0    0 -0.35958218307E+02 -0.21998569337E+02  0.31362316799E+03  0.31644339464E+03  0.00000000000E+00 0. -1.
        -14    1    5    5    0    0  0.42176382787E+00 -0.21476637413E+02  0.14447074499E+02  0.25887097189E+02  0.00000000000E+00 0.  1.
          5    1    4    4  501    0  0.64889083047E+02  0.32776625130E+02 -0.41043018239E+02  0.83587690480E+02  0.41800000000E+01 0.  1.
         -5    1    4    4    0  501 -0.47595894497E+02 -0.23269500830E+00 -0.86517594722E+02  0.98834153593E+02  0.41800000000E+01 0.  1.
</event>
<event>
11    1  0.8453735E-009  0.1366786E+03  0.7561462E-02  0.1111325E+00
         22   -1    0    0    0    0  0.00000000000E+00  0.00000000000E+00  0.10659302755E+04  0.10659302755E+04  0.00000000000E+00 0. -1.
         22   -1    0    0    0    0 -0.00000000000E+00 -0.00000000000E+00 -0.45548060709E+03  0.45548060709E+03  0.00000000000E+00 0.  1.
        -24    2    1    2    0    0 -0.43171595474E+02  0.88766536330E+00 -0.25172674668E+03  0.26844621179E+03  0.82658568965E+02 0.  0.
         25    2    1    2    0    0  0.11588557300E+01 -0.37122670693E+02 -0.17105596681E+03  0.21513763486E+03  0.12507846547E+03 0.  0.
         24    2    1    2    0    0  0.42012739744E+02  0.36235005329E+02  0.10332323819E+04  0.10378270359E+04  0.80235625435E+02 0.  0.
        -13    1    5    5    0    0 -0.51501982426E+01  0.38928015491E+02  0.71818289155E+03  0.71925557394E+03  0.00000000000E+00 0.  1.
         14    1    5    5    0    0  0.47162937987E+02 -0.26930101621E+01  0.31504949034E+03  0.31857146198E+03  0.00000000000E+00 0. -1.
         11    1    3    3    0    0 -0.43965879526E+02 -0.12026506285E+02 -0.25140499831E+03  0.25550363714E+03  0.00000000000E+00 0. -1.
        -12    1    3    3    0    0  0.79428405257E+00  0.12914171648E+02 -0.32174837006E+00  0.12942574648E+02  0.00000000000E+00 0.  1.
          5    1    4    4  501    0  0.17199779627E+01 -0.77894630595E+02 -0.65400698692E+02  0.10180989927E+03  0.41800000000E+01 0.  1.
         -5    1    4    4    0  501 -0.56112223278E+00  0.40771959903E+02 -0.10565526812E+03  0.11332773559E+03  0.41800000000E+01 0.  1.
</event>
<event>
11    1  0.8453735E-009  0.1433983E+03  0.7561462E-02  0.1103822E+00
         22   -1    0    0    0    0  0.00000000000E+00  0.00000000000E+00  0.16006979618E+04  0.16006979618E+04  0.00000000000E+00 0. -1.
         22   -1    0    0    0    0 -0.00000000000E+00 -0.00000000000E+00 -0.29206232453E+03  0.29206232453E+03  0.00000000000E+00 0. -1.
         24    2    1    2    0    0 -0.11408433217E+02  0.16517989413E+02 -0.26370976980E+03  0.27655113801E+03  0.80837447542E+02 0.  0.
         25    2    1    2    0    0 -0.12581641503E+02  0.51409043070E+02  0.21381332615E+03  0.25330782229E+03  0.12509007547E+03 0.  0.
        -24    2    1    2    0    0  0.23990074720E+02 -0.67927032483E+02  0.13585320809E+04  0.13629013260E+04  0.81859661483E+02 0.  0.
        -11    1    3    3    0    0  0.18260454797E+02  0.35958991899E+02 -0.81638105665E+02  0.91056430879E+02  0.00000000000E+00 0.  1.
         12    1    3    3    0    0 -0.29668888014E+02 -0.19441002486E+02 -0.18207166413E+03  0.18549470713E+03  0.00000000000E+00 0. -1.
         11    1    5    5    0    0 -0.21048950368E+02 -0.43483861883E+02  0.38464355846E+03  0.38766554092E+03  0.00000000000E+00 0. -1.
        -12    1    5    5    0    0  0.45039025088E+02 -0.24443170600E+02  0.97388852246E+03  0.97523578511E+03  0.00000000000E+00 0.  1.
          5    1    4    4  501    0 -0.56373577046E+02  0.66052958345E+02  0.11506357097E+03  0.14421536416E+03  0.41800000000E+01 0.  1.
         -5    1    4    4    0  501  0.43791935543E+02 -0.14643915275E+02  0.98749755178E+02  0.10909245813E+03  0.41800000000E+01 0.  1.
</event>
<event>
11    1  0.8453735E-009  0.1383032E+03  0.7561462E-02  0.1109468E+00
         22   -1    0    0    0    0  0.00000000000E+00  0.00000000000E+00  0.10519434219E+04  0.10519434219E+04  0.00000000000E+00 0.  1.
         22   -1    0    0    0    0 -0.00000000000E+00 -0.00000000000E+00 -0.22560174871E+03  0.22560174871E+03  0.00000000000E+00 0.  1.
        -24    2    1    2    0    0  0.46181246139E+02  0.45687656801E+02 -0.16555964047E+03  0.20176745826E+03  0.95289260584E+02 0.  0.
         25    2    1    2    0    0  0.80692976251E+01 -0.38359670028E+02  0.71798156058E+02  0.14946173580E+03  0.12508899794E+03 0.  0.
         24    2    1    2    0    0 -0.54250543764E+02 -0.73279867732E+01  0.92010315759E+03  0.92631597654E+03  0.92057845376E+02 0.  0.
        -13    1    5    5    0    0 -0.73053282038E+02  0.16118404976E+02  0.56266388920E+03  0.56761539550E+03  0.00000000000E+00 0.  1.
         14    1    5    5    0    0  0.18802738274E+02 -0.23446391749E+02  0.35743926839E+03  0.35870058104E+03  0.00000000000E+00 0. -1.
         13    1    3    3    0    0  0.36048611502E+02 -0.16077032019E+02 -0.22073307453E+02  0.45223934500E+02  0.00000000000E+00 0. -1.
        -14    1    3    3    0    0  0.10132634637E+02  0.61764688820E+02 -0.14348633302E+03  0.15654352376E+03  0.00000000000E+00 0.  1.
          5    1    4    4  501    0  0.75986831646E+01 -0.65044023370E+02  0.93901468015E+02  0.11455750983E+03  0.41800000000E+01 0. -1.
         -5    1    4    4    0  501  0.47061446045E+00  0.26684353342E+02 -0.22103311958E+02  0.34904225973E+02  0.41800000000E+01 0. -1.
</event>
<event>
11    1  0.8876100E-009  0.1984809E+03  0.7561462E-02  0.1055603E+00
         22   -1    0    0    0    0  0.00000000000E+00  0.00000000000E+00  0.11066594836E+04  0.11066594836E+04  0.00000000000E+00 0.  1.
         22   -1    0    0    0    0 -0.00000000000E+00 -0.00000000000E+00 -0.36095867899E+03  0.36095867899E+03  0.00000000000E+00 0.  1.
        -24    2    1    2    0    0 -0.18991639333E+02 -0.62967934631E+02 -0.23086808739E+03  0.25326499748E+03  0.80730675821E+02 0.  0.
         25    2    1    2    0    0 -0.13435177793E+03  0.34352919709E+02 -0.32933395482E+02  0.18963728578E+03  0.12508864175E+03 0.  0.
         24    2    1    2    0    0  0.15334341726E+03  0.28615014921E+02  0.10095022875E+04  0.10247158793E+04  0.81331065544E+02 0.  0.
        -11    1    5    5    0    0  0.12684157183E+03  0.46723071403E+02  0.65737297941E+03  0.67112671218E+03  0.00000000000E+00 0.  1.
         12    1    5    5    0    0  0.26501845430E+02 -0.18108056482E+02  0.35212930809E+03  0.35358916716E+03  0.00000000000E+00 0. -1.
         11    1    3    3    0    0 -0.40789058132E+02 -0.29494482626E+02 -0.62632982199E+02  0.80352736281E+02  0.00000000000E+00 0. -1.
        -12    1    3    3    0    0  0.21797418798E+02 -0.33473452005E+02 -0.16823510519E+03  0.17291226120E+03  0.00000000000E+00 0.  1.
          5    1    4    4  501    0 -0.13176883230E+02  0.56449890945E+02 -0.32093373175E+02  0.66390341475E+02  0.41800000000E+01 0. -1.
         -5    1    4    4    0  501 -0.12117489470E+03 -0.22096971236E+02 -0.84002230682E+00  0.12324694430E+03  0.41800000000E+01 0. -1.
</event>
<event>
11    1  0.8453735E-009  0.1833465E+03  0.7561462E-02  0.1066968E+00
         22   -1    0    0    0    0  0.00000000000E+00  0.00000000000E+00  0.17345814894E+04  0.17345814894E+04  0.00000000000E+00 0. -1.
         22   -1    0    0    0    0 -0.00000000000E+00 -0.00000000000E+00 -0.65283691019E+02  0.65283691019E+02  0.00000000000E+00 0.  1.
        -24    2    1    2    0    0  0.33242551659E-01  0.40020392129E+02  0.84219103540E+01  0.92016556573E+02  0.82428667455E+02 0.  0.
         25    2    1    2    0    0 -0.12691914547E+03 -0.74664124757E+02  0.48691283949E+03  0.52384680965E+03  0.12509262854E+03 0.  0.
         24    2    1    2    0    0  0.12688590292E+03  0.34643732628E+02  0.11739630485E+04  0.11840018142E+04  0.79817517511E+02 0.  0.
        -11    1    5    5    0    0  0.38286240198E+02  0.13269492326E+02  0.13247736921E+03  0.13853580392E+03  0.00000000000E+00 0.  1.
         12    1    5    5    0    0  0.88599662722E+02  0.21374240302E+02  0.10414856793E+04  0.10454660103E+04  0.00000000000E+00 0. -1.
         13    1    3    3    0    0 -0.17022647050E+02  0.10020670413E+02  0.40398977277E+02  0.44969564298E+02  0.00000000000E+00 0. -1.
        -14    1    3    3    0    0  0.17055889602E+02  0.29999721715E+02 -0.31977066923E+02  0.47046992275E+02  0.00000000000E+00 0.  1.
          5    1    4    4  501    0 -0.10707645437E+03 -0.41600060365E+02  0.46562067268E+03  0.47959984917E+03  0.41800000000E+01 0. -1.
         -5    1    4    4    0  501 -0.19842691099E+02 -0.33064064391E+02  0.21292166808E+02  0.44246960477E+02  0.41800000000E+01 0. -1.
</event>
<event>
11    1  0.8453735E-009  0.1462258E+03  0.7561462E-02  0.1100799E+00
         22   -1    0    0    0    0  0.00000000000E+00  0.00000000000E+00  0.48479520092E+03  0.48479520092E+03  0.00000000000E+00 0.  1.
         22   -1    0    0    0    0 -0.00000000000E+00 -0.00000000000E+00 -0.11216768551E+04  0.11216768551E+04  0.00000000000E+00 0. -1.
         24    2    1    2    0    0 -0.32806479415E+02 -0.48936974297E+02 -0.10746397195E+04  0.10791278014E+04  0.78709544078E+02 0.  0.
         25    2    1    2    0    0 -0.50093430876E+02  0.36333531463E+02  0.10438288953E+03  0.17428338967E+03  0.12509770167E+03 0.  0.
        -24    2    1    2    0    0  0.82899910291E+02  0.12603442834E+02  0.33337517583E+03  0.35306086499E+03  0.80509158692E+02 0.  0.
        -13    1    3    3    0    0 -0.24423568642E+02  0.89948978501E+01 -0.64427934248E+03  0.64480484648E+03  0.00000000000E+00 0.  1.
         14    1    3    3    0    0 -0.83829107731E+01 -0.57931872147E+02 -0.43036037706E+03  0.43432295490E+03  0.00000000000E+00 0. -1.
         13    1    5    5    0    0 -0.12286328208E+02  0.29414693600E+01  0.10879739979E+02  0.16672577631E+02  0.00000000000E+00 0. -1.
        -14    1    5    5    0    0  0.95186238499E+02  0.96619734742E+01  0.32249543585E+03  0.33638828736E+03  0.00000000000E+00 0.  1.
          5    1    4    4  501    0 -0.11595995173E+02  0.76703191731E+02  0.84822701226E+02  0.11502264894E+03  0.41800000000E+01 0.  1.
         -5    1    4    4    0  501 -0.38497435703E+02 -0.40369660268E+02  0.19560188305E+02  0.59260740734E+02  0.41800000000E+01 0.  1.
</event>
<event>
11    1  0.8453735E-009  0.1294095E+03  0.7561462E-02  0.1119997E+00
         22   -1    0    0    0    0  0.00000000000E+00  0.00000000000E+00  0.61211024749E+03  0.61211024749E+03  0.00000000000E+00 0. -1.
         22   -1    0    0    0    0 -0.00000000000E+00 -0.00000000000E+00 -0.28987792396E+04  0.28987792396E+04  0.00000000000E+00 0.  1.
        -24    2    1    2    0    0 -0.26889282164E+02 -0.23621514847E+01 -0.18076343470E+04  0.18096331955E+04  0.80633470260E+02 0.  0.
         25    2    1    2    0    0  0.15967344819E+01  0.23934908095E+02 -0.10832384535E+04  0.10906999418E+04  0.12508151952E+03 0.  0.
         24    2    1    2    0    0  0.25292547682E+02 -0.21572756610E+02  0.60420380838E+03  0.61055634980E+03  0.81312467840E+02 0.  0.
        -11    1    5    5    0    0  0.18953029069E+02  0.27033185651E+02  0.14333722904E+03  0.14709035205E+03  0.00000000000E+00 0.  1.
         12    1    5    5    0    0  0.63395186125E+01 -0.48605942261E+02  0.46086657934E+03  0.46346599775E+03  0.00000000000E+00 0. -1.
         13    1    3    3    0    0 -0.44521382902E+02  0.25588062884E+02 -0.98923938506E+03  0.99057128136E+03  0.00000000000E+00 0. -1.
        -14    1    3    3    0    0  0.17632100738E+02 -0.27950214368E+02 -0.81839496197E+03  0.81906191417E+03  0.00000000000E+00 0.  1.
          5    1    4    4  501    0  0.59066245907E+02 -0.36416972595E+01 -0.66095370453E+03  0.66361084627E+03  0.41800000000E+01 0.  1.
         -5    1    4    4    0  501 -0.57469511425E+02  0.27576605355E+02 -0.42228474893E+03  0.42708909549E+03  0.41800000000E+01 0.  1.
</event>
<event>
11    1  0.8453735E-009  0.1295338E+03  0.7561462E-02  0.1119843E+00
         22   -1    0    0    0    0  0.00000000000E+00  0.00000000000E+00  0.16743054686E+03  0.16743054686E+03  0.00000000000E+00 0. -1.
         22   -1    0    0    0    0 -0.00000000000E+00 -0.00000000000E+00 -0.24005034383E+03  0.24005034383E+03  0.00000000000E+00 0. -1.
         24    2    1    2    0    0  0.19089108443E+02 -0.17066361004E+02 -0.13684993321E+03  0.16018201467E+03  0.79213123069E+02 0.  0.
         25    2    1    2    0    0 -0.32645058474E+02 -0.15378506703E+02 -0.83757707991E+01  0.13045755975E+03  0.12508726174E+03 0.  0.
        -24    2    1    2    0    0  0.13555950031E+02  0.32444867707E+02  0.72605907045E+02  0.11684131626E+03  0.84521253106E+02 0.  0.
        -13    1    3    3    0    0 -0.15535858372E+01 -0.46827639830E+02 -0.82308324359E+02  0.94709565197E+02  0.00000000000E+00 0.  1.
         14    1    3    3    0    0  0.20642694280E+02  0.29761278826E+02 -0.54541608849E+02  0.65472449476E+02  0.00000000000E+00 0. -1.
         13    1    5    5    0    0 -0.80832985241E+01 -0.16747870723E+02  0.58348669593E+02  0.61240494218E+02  0.00000000000E+00 0. -1.
        -14    1    5    5    0    0  0.21639248555E+02  0.49192738430E+02  0.14257237452E+02  0.55600822045E+02  0.00000000000E+00 0.  1.
          5    1    4    4  501    0  0.22715867859E+02  0.41572696841E+02  0.10523296404E+02  0.48708438103E+02  0.41800000000E+01 0. -1.
         -5    1    4    4    0  501 -0.55360926334E+02 -0.56951203543E+02 -0.18899067203E+02  0.81749121651E+02  0.41800000000E+01 0. -1.
</event>
<event>
11    1  0.8453735E-009  0.1438415E+03  0.7561462E-02  0.1103343E+00
         22   -1    0    0    0    0  0.00000000000E+00  0.00000000000E+00  0.12424086165E+03  0.12424086165E+03  0.00000000000E+00 0. -1.
         22   -1    0    0    0    0 -0.00000000000E+00 -0.00000000000E+00 -0.95681705031E+03  0.95681705031E+03  0.00000000000E+00 0.  1.
        -24    2    1    2    0    0 -0.89803084360E+02  0.71831779906E+01 -0.47149192096E+03  0.48669296630E+03  0.80307035228E+02 0.  0.
         25    2    1    2    0    0  0.38364338358E+02 -0.39004387423E+02 -0.44340555213E+03  0.46394902496E+03  0.12508816650E+03 0.  0.
         24    2    1    2    0    0  0.51438746002E+02  0.31821209432E+02  0.82321284437E+02  0.13041592071E+03  0.81073944906E+02 0.  0.
        -13    1    5    5    0    0  0.50868885588E+02  0.10068371405E+01  0.10069809935E+02  0.51865772087E+02  0.00000000000E+00 0.  1.
         14    1    5    5    0    0  0.56986041318E+00  0.30814372292E+02  0.72251474502E+02  0.78550148621E+02  0.00000000000E+00 0. -1.
         13    1    3    3    0    0 -0.52861569112E+02  0.82551290165E+01 -0.10040419249E+03  0.11376947971E+03  0.00000000000E+00 0. -1.
        -14    1    3    3    0    0 -0.36941515248E+02 -0.10719510259E+01 -0.37108772847E+03  0.37292348658E+03  0.00000000000E+00 0.  1.
          5    1    4    4  501    0 -0.17746079542E+02 -0.11608274566E+02 -0.64794778538E+01  0.22563940498E+02  0.41800000000E+01 0. -1.
         -5    1    4    4    0  501  0.56110417901E+02 -0.27396112856E+02 -0.43692607428E+03  0.44138508446E+03  0.41800000000E+01 0. -1.
</event>
<event>
11    1  0.8453735E-009  0.1364218E+03  0.7561462E-02  0.1111621E+00
         22   -1    0    0    0    0  0.00000000000E+00  0.00000000000E+00  0.18541110277E+04  0.18541110277E+04  0.00000000000E+00 0.  1.
         22   -1    0    0    0    0 -0.00000000000E+00 -0.00000000000E+00 -0.26534343265E+03  0.26534343265E+03  0.00000000000E+00 0. -1.
         24    2    1    2    0    0  0.89047051506E+01 -0.44101121954E+02 -0.13889479694E+03  0.16722326508E+03  0.81533140723E+02 0.  0.
         25    2    1    2    0    0 -0.49755710784E+02  0.77329766478E+01 -0.70063453799E+02  0.15195935102E+03  0.12508927660E+03 0.  0.
        -24    2    1    2    0    0  0.40851005634E+02  0.36368145306E+02  0.17977258457E+04  0.18002718442E+04  0.78543299652E+02 0.  0.
        -13    1    3    3    0    0  0.25324019478E+01 -0.34538128800E+02 -0.76364147368E+01  0.35462800660E+02  0.00000000000E+00 0.  1.
         14    1    3    3    0    0  0.63723032028E+01 -0.95629931540E+01 -0.13125838220E+03  0.13176046442E+03  0.00000000000E+00 0. -1.
         13    1    5    5    0    0 -0.16344607562E+02  0.15752916028E+02  0.18310359063E+03  0.18450535347E+03  0.00000000000E+00 0. -1.
        -14    1    5    5    0    0  0.57195613195E+02  0.20615229279E+02  0.16146222551E+04  0.16157664907E+04  0.00000000000E+00 0.  1.
          5    1    4    4  501    0 -0.13273536811E+01  0.53182960248E+02 -0.66573455924E+02  0.85321079237E+02  0.41800000000E+01 0. -1.
         -5    1    4    4    0  501 -0.48428357103E+02 -0.45449983600E+02 -0.34899978743E+01  0.66638271782E+02  0.41800000000E+01 0. -1.
</event>
<event>
11    1  0.8453735E-009  0.1583071E+03  0.7561462E-02  0.1088680E+00
         22   -1    0    0    0    0  0.00000000000E+00  0.00000000000E+00  0.91487521742E+03  0.91487521742E+03  0.00000000000E+00 0. -1.
         22   -1    0    0    0    0 -0.00000000000E+00 -0.00000000000E+00 -0.62291206181E+03  0.62291206181E+03  0.00000000000E+00 0. -1.
         24    2    1    2    0    0  0.15332244379E+01 -0.13584690510E+03 -0.57803111029E+03  0.59916376148E+03  0.80128123686E+02 0.  0.
         25    2    1    2    0    0  0.18791187558E+02  0.15155832842E+02  0.12231308872E+03  0.17660849138E+03  0.12508900654E+03 0.  0.
        -24    2    1    2    0    0 -0.20324411996E+02  0.12069107225E+03  0.74768117718E+03  0.76201502638E+03  0.81610912673E+02 0.  0.
        -13    1    3    3    0    0  0.14625354070E+02  0.53961776981E+01 -0.47242101000E+02  0.49747721780E+02  0.00000000000E+00 0.  1.
         14    1    3    3    0    0 -0.13092129632E+02 -0.14124308279E+03 -0.53078900929E+03  0.54941603970E+03  0.00000000000E+00 0. -1.
         13    1    5    5    0    0 -0.10759802021E+02 -0.10672815092E+02  0.64903294747E+02  0.66649230983E+02  0.00000000000E+00 0. -1.
        -14    1    5    5    0    0 -0.95646099751E+01  0.13136388735E+03  0.68277788243E+03  0.69536579539E+03  0.00000000000E+00 0.  1.
          5    1    4    4  501    0  0.98513718171E+01 -0.42036502216E+02  0.10864346725E+03  0.11698287234E+03  0.41800000000E+01 0. -1.
         -5    1    4    4    0  501  0.89398157409E+01  0.57192335058E+02  0.13669621466E+02  0.59625619040E+02  0.41800000000E+01 0. -1.
</event>
<event>
11    1  0.8453735E-009  0.3001599E+03  0.7561462E-02  0.1000124E+00
         22   -1    0    0    0    0  0.00000000000E+00  0.00000000000E+00  0.76620345338E+02  0.76620345338E+02  0.00000000000E+00 0. -1.
         22   -1    0    0    0    0 -0.00000000000E+00 -0.00000000000E+00 -0.22525216943E+04  0.22525216943E+04  0.00000000000E+00 0. -1.
        -24    2    1    2    0    0 -0.13629095780E+03 -0.26300048058E+02 -0.67388713086E+03  0.69261425535E+03  0.79521845278E+02 0.  0.
         25    2    1    2    0    0  0.17907125953E+03  0.27863559410E+03 -0.10818625640E+04  0.11383224831E+04  0.12508859994E+03 0.  0.
         24    2    1    2    0    0 -0.42780301730E+02 -0.25233554604E+03 -0.42015165411E+03  0.49820530120E+03  0.78598522152E+02 0.  0.
        -11    1    5    5    0    0  0.67949057788E+00 -0.13608042706E+03 -0.27783913007E+03  0.30937505803E+03  0.00000000000E+00 0.  1.
         12    1    5    5    0    0 -0.43459792308E+02 -0.11625511898E+03 -0.14231252404E+03  0.18883024316E+03  0.00000000000E+00 0. -1.
         13    1    3    3    0    0 -0.68560064575E+02 -0.53375315438E+02 -0.38079079335E+03  0.39057782202E+03  0.00000000000E+00 0. -1.
        -14    1    3    3    0    0 -0.67730893226E+02  0.27075267380E+02 -0.29309633751E+03  0.30203643334E+03  0.00000000000E+00 0.  1.
          5    1    4    4  501    0  0.19000189709E+03  0.26417039884E+03 -0.92937700151E+03  0.98470594791E+03  0.41800000000E+01 0.  1.
         -5    1    4    4    0  501 -0.10930637556E+02  0.14465195258E+02 -0.15248556253E+03  0.15361653521E+03  0.41800000000E+01 0.  1.
</event>
<event>
11    1  0.8453735E-009  0.1361789E+03  0.7561462E-02  0.1111902E+00
         22   -1    0    0    0    0  0.00000000000E+00  0.00000000000E+00  0.20225396632E+04  0.20225396632E+04  0.00000000000E+00 0.  1.
         22   -1    0    0    0    0 -0.00000000000E+00 -0.00000000000E+00 -0.78167657059E+03  0.78167657059E+03  0.00000000000E+00 0.  1.
         24    2    1    2    0    0 -0.16259641718E+02 -0.20297917936E+02 -0.70163239781E+03  0.70672481364E+03  0.80595031697E+02 0.  0.
         25    2    1    2    0    0 -0.22040722446E+02  0.58044469793E+02 -0.12374459253E+02  0.14020133445E+03  0.12509329726E+03 0.  0.
        -24    2    1    2    0    0  0.38300364164E+02 -0.37746551857E+02  0.19548699497E+04  0.19572900857E+04  0.81094015733E+02 0.  0.
        -13    1    3    3    0    0 -0.40849806637E+02 -0.36544598528E+02 -0.48817591217E+03  0.49124325502E+03  0.00000000000E+00 0.  1.
         14    1    3    3    0    0  0.24590164918E+02  0.16246680592E+02 -0.21345648564E+03  0.21548155862E+03  0.00000000000E+00 0. -1.
         13    1    5    5    0    0  0.84340908149E+01  0.25767012402E+02  0.53505515667E+03  0.53574162942E+03  0.00000000000E+00 0. -1.
        -14    1    5    5    0    0  0.29866273349E+02 -0.63513564259E+02  0.14198147930E+04  0.14215484563E+04  0.00000000000E+00 0.  1.
          5    1    4    4  501    0  0.93935329568E+01  0.90577925409E+02  0.56279892400E+01  0.91333157701E+02  0.41800000000E+01 0. -1.
         -5    1    4    4    0  501 -0.31434255402E+02 -0.32533455616E+02 -0.18002448493E+02  0.48868176749E+02  0.41800000000E+01 0. -1.
</event>
<event>
11    1  0.8453735E-009  0.1632975E+03  0.7561462E-02  0.1084016E+00
         22   -1    0    0    0    0  0.00000000000E+00  0.00000000000E+00  0.15910903876E+03  0.15910903876E+03  0.00000000000E+00 0.  1.
         22   -1    0    0    0    0 -0.00000000000E+00 -0.00000000000E+00 -0.84109174435E+03  0.84109174435E+03  0.00000000000E+00 0.  1.
        -24    2    1    2    0    0  0.75418805146E+02  0.69510978863E+02 -0.67714032776E+03  0.68955676763E+03  0.80310273042E+02 0.  0.
         25    2    1    2    0    0 -0.67649220731E+02 -0.11639930898E+03 -0.71499848752E+02  0.19719233854E+03  0.12508946322E+03 0.  0.
         24    2    1    2    0    0 -0.77695844148E+01  0.46888330115E+02  0.66657470924E+02  0.11345167694E+03  0.78544144456E+02 0.  0.
        -13    1    5    5    0    0 -0.46239808614E+01  0.65076251171E+02  0.28760007390E+02  0.71298230627E+02  0.00000000000E+00 0.  1.
         14    1    5    5    0    0 -0.31456035534E+01 -0.18187921056E+02  0.37897463534E+02  0.42153446317E+02  0.00000000000E+00 0. -1.
         11    1    3    3    0    0 -0.99704090021E+01  0.35177255690E+02 -0.14644486448E+03  0.15094020904E+03  0.00000000000E+00 0. -1.
        -12    1    3    3    0    0  0.85389214148E+02  0.34333723173E+02 -0.53069546328E+03  0.53861655858E+03  0.00000000000E+00 0.  1.
          5    1    4    4  501    0  0.24433858062E+02  0.14908780432E+01  0.10021362065E+02  0.26779399448E+02  0.41800000000E+01 0.  1.
         -5    1    4    4    0  501 -0.92083078793E+02 -0.11789018702E+03 -0.81521210817E+02  0.17041293909E+03  0.41800000000E+01 0.  1.
</event>
<event>
11    1  0.8453735E-009  0.6378476E+03  0.7561462E-02  0.9129267E-01
         22   -1    0    0    0    0  0.00000000000E+00  0.00000000000E+00  0.49702958303E+03  0.49702958303E+03  0.00000000000E+00 0. -1.
         22   -1    0    0    0    0 -0.00000000000E+00 -0.00000000000E+00 -0.25073837181E+04  0.25073837181E+04  0.00000000000E+00 0. -1.
         24    2    1    2    0    0 -0.23701714183E+03 -0.27542550602E+03 -0.75088679427E+03  0.83788651431E+03  0.78654295304E+02 0.  0.
         25    2    1    2    0    0  0.54100390950E+03  0.75523896167E+03 -0.12868859597E+04  0.15921036473E+04  0.12508969307E+03 0.  0.
        -24    2    1    2    0    0 -0.30398676767E+03 -0.47981345565E+03  0.27418618855E+02  0.57442313950E+03  0.81124936949E+02 0.  0.
        -11    1    3    3    0    0 -0.24648837307E+02 -0.16389270043E+02 -0.11993255239E+03  0.12353133399E+03  0.00000000000E+00 0.  1.
         12    1    3    3    0    0 -0.21236830452E+03 -0.25903623598E+03 -0.63095424188E+03  0.71435518033E+03  0.00000000000E+00 0. -1.
         11    1    5    5    0    0 -0.14797130868E+03 -0.16441303020E+03 -0.31738923320E+01  0.22121759940E+03  0.00000000000E+00 0. -1.
        -12    1    5    5    0    0 -0.15601545899E+03 -0.31540042545E+03  0.30592511187E+02  0.35320554010E+03  0.00000000000E+00 0.  1.
          5    1    4    4  501    0  0.89211852639E+01 -0.18083709437E+01 -0.27866289511E+02  0.29611826068E+02  0.41800000000E+01 0.  1.
         -5    1    4    4    0  501  0.53208272423E+03  0.75704733261E+03 -0.12590196702E+04  0.15624918213E+04  0.41800000000E+01 0.  1.
</event>
<event>
11    1  0.8453735E-009  0.2369816E+03  0.7561462E-02  0.1031072E+00
         22   -1    0    0    0    0  0.00000000000E+00  0.00000000000E+00  0.95174086724E+03  0.95174086724E+03  0.00000000000E+00 0. -1.
         22   -1    0    0    0    0 -0.00000000000E+00 -0.00000000000E+00 -0.73449139770E+03  0.73449139770E+03  0.00000000000E+00 0.  1.
         24    2    1    2    0    0 -0.19978277604E+03  0.30083158531E+01 -0.67666505317E+03  0.71022221767E+03  0.81349841566E+02 0.  0.
         25    2    1    2    0    0  0.26190873064E+03 -0.10359967702E+02  0.66254725715E+03  0.72340887382E+03  0.12509204072E+03 0.  0.
        -24    2    1    2    0    0 -0.62125954600E+02  0.73516518488E+01  0.23136726556E+03  0.25260117345E+03  0.79767538734E+02 0.  0.
        -13    1    3    3    0    0 -0.24226648921E+02 -0.44110062525E+01 -0.21232092177E+03  0.21374414920E+03  0.00000000000E+00 0.  1.
         14    1    3    3    0    0 -0.17555612712E+03  0.74193221057E+01 -0.46434413139E+03  0.49647806847E+03  0.00000000000E+00 0. -1.
         11    1    5    5    0    0 -0.16744843922E+02 -0.96683154514E+01  0.18337917973E+03  0.18439574203E+03  0.00000000000E+00 0. -1.
        -12    1    5    5    0    0 -0.45381110677E+02  0.17019967300E+02  0.47988085834E+02  0.68205431420E+02  0.00000000000E+00 0.  1.
          5    1    4    4  501    0  0.24200877979E+03 -0.18030008181E+02  0.46373943522E+03  0.52341672391E+03  0.41800000000E+01 0. -1.
         -5    1    4    4    0  501  0.19899950843E+02  0.76700404787E+01  0.19880782193E+03  0.19999214991E+03  0.41800000000E+01 0. -1.
</event>
<event>
11    1  0.8453735E-009  0.1541844E+03  0.7561462E-02  0.1092678E+00
         22   -1    0    0    0    0  0.00000000000E+00  0.00000000000E+00  0.23506319988E+03  0.23506319988E+03  0.00000000000E+00 0. -1.
         22   -1    0    0    0    0 -0.00000000000E+00 -0.00000000000E+00 -0.10953178292E+04  0.10953178292E+04  0.00000000000E+00 0. -1.
        -24    2    1    2    0    0  0.57850943164E+01  0.61175213819E+02 -0.99646276999E+03  0.10015072256E+04  0.79390156220E+02 0.  0.
         25    2    1    2    0    0 -0.14659918248E+02  0.45326991688E+02 -0.52089519792E+01  0.13396359064E+03  0.12509860535E+03 0.  0.
         24    2    1    2    0    0  0.88748239314E+01 -0.10650220551E+03  0.14141709261E+03  0.19491021285E+03  0.81053776680E+02 0.  0.
        -13    1    5    5    0    0  0.22084030683E+02 -0.22649239370E+02  0.20168054615E+01  0.31697948821E+02  0.00000000000E+00 0.  1.
         14    1    5    5    0    0 -0.13209206751E+02 -0.83852966137E+02  0.13940028715E+03  0.16321226403E+03  0.00000000000E+00 0. -1.
         11    1    3    3    0    0  0.39618684748E+02  0.41683355204E+02 -0.72114697033E+03  0.72343631033E+03  0.00000000000E+00 0. -1.
        -12    1    3    3    0    0 -0.33833590431E+02  0.19491858616E+02 -0.27531579966E+03  0.27807091530E+03  0.00000000000E+00 0.  1.
          5    1    4    4  501    0  0.46354803625E+02 -0.68257004944E+01  0.17901544966E+02  0.50331855902E+02  0.41800000000E+01 0. -1.
         -5    1    4    4    0  501 -0.61014721873E+02  0.52152692182E+02 -0.23110496945E+02  0.83631734743E+02  0.41800000000E+01 0. -1.
</event>
<event>
11    1  0.8453735E-009  0.1547566E+03  0.7561462E-02  0.1092115E+00
         22   -1    0    0    0    0  0.00000000000E+00  0.00000000000E+00  0.10698733391E+03  0.10698733391E+03  0.00000000000E+00 0. -1.
         22   -1    0    0    0    0 -0.00000000000E+00 -0.00000000000E+00 -0.13725523967E+04  0.13725523967E+04  0.00000000000E+00 0. -1.
        -24    2    1    2    0    0 -0.93467327089E+02  0.10034640504E+02 -0.11653093294E+04  0.11718141259E+04  0.79785195090E+02 0.  0.
         25    2    1    2    0    0  0.65155270014E+02 -0.13583690029E+02 -0.15119292712E+03  0.20721053952E+03  0.12508869106E+03 0.  0.
         24    2    1    2    0    0  0.28312057075E+02  0.35490495245E+01  0.50937193676E+02  0.10051506518E+03  0.81819999392E+02 0.  0.
        -13    1    5    5    0    0  0.23783499538E+02 -0.16058867227E+02 -0.14429386951E+02  0.32120854202E+02  0.00000000000E+00 0.  1.
         14    1    5    5    0    0  0.45285575371E+01  0.19607916752E+02  0.65366580627E+02  0.68394210980E+02  0.00000000000E+00 0. -1.
         11    1    3    3    0    0 -0.84024755633E+02  0.35699234258E+02 -0.73703641392E+03  0.74266901802E+03  0.00000000000E+00 0. -1.
        -12    1    3    3    0    0 -0.94425714556E+01 -0.25664593754E+02 -0.42827291546E+03  0.42914510791E+03  0.00000000000E+00 0.  1.
          5    1    4    4  501    0  0.18689832146E+02 -0.47417230226E+02 -0.13926730393E+03  0.14835955612E+03  0.41800000000E+01 0.  1.
         -5    1    4    4    0  501  0.46465437868E+02  0.33833540197E+02 -0.11925623187E+02  0.58850983398E+02  0.41800000000E+01 0.  1.
</event>
<event>
11    1  0.8453735E-009  0.2047839E+03  0.7561462E-02  0.1051191E+00
         22   -1    0    0    0    0  0.00000000000E+00  0.00000000000E+00  0.10241412507E+04  0.10241412507E+04  0.00000000000E+00 0. -1.
         22   -1    0    0    0    0 -0.00000000000E+00 -0.00000000000E+00 -0.66745435454E+03  0.66745435454E+03  0.00000000000E+00 0.  1.
         24    2    1    2    0    0  0.14773922347E+03 -0.33585852643E+02 -0.26561603570E+03  0.31551727300E+03  0.77745633268E+02 0.  0.
         25    2    1    2    0    0 -0.17599708597E+03  0.12872668115E+02 -0.34364437943E+03  0.40605380935E+03  0.12509019435E+03 0.  0.
        -24    2    1    2    0    0  0.28257862504E+02  0.20713184527E+02  0.96594731130E+03  0.97002452290E+03  0.81644497717E+02 0.  0.
        -13    1    3    3    0    0  0.30857747317E+02 -0.29790358772E+01 -0.13105938613E+03  0.13467604805E+03  0.00000000000E+00 0.  1.
         14    1    3    3    0    0  0.11688147615E+03 -0.30606816765E+02 -0.13455664957E+03  0.18084122495E+03  0.00000000000E+00 0. -1.
         11    1    5    5    0    0  0.16011238090E+02  0.34341105673E+02  0.91664494780E+03  0.91742772555E+03  0.00000000000E+00 0. -1.
        -12    1    5    5    0    0  0.12246624414E+02 -0.13627921145E+02  0.49302363498E+02  0.52596797343E+02  0.00000000000E+00 0.  1.
          5    1    4    4  501    0 -0.14159425656E+03 -0.11010853294E+02 -0.14503577566E+03  0.20303453155E+03  0.41800000000E+01 0. -1.
         -5    1    4    4    0  501 -0.34402829408E+02  0.23883521409E+02 -0.19860860378E+03  0.20301927781E+03  0.41800000000E+01 0. -1.
</event>
<event>
11    1  0.8453735E-009  0.1785783E+03  0.7561462E-02  0.1070799E+00
         22   -1    0    0    0    0  0.00000000000E+00  0.00000000000E+00  0.10544001683E+04  0.10544001683E+04  0.00000000000E+00 0. -1.
         22   -1    0    0    0    0 -0.00000000000E+00 -0.00000000000E+00 -0.26213120006E+03  0.26213120006E+03  0.00000000000E+00 0.  1.
        -24    2    1    2    0    0  0.19988736541E+02  0.56037735976E+02 -0.10964999351E+03  0.14800462071E+03  0.79639621004E+02 0.  0.
         25    2    1    2    0    0  0.10092215350E+03 -0.96403336752E+02 -0.58431488712E+02  0.19631934846E+03  0.12509261890E+03 0.  0.
         24    2    1    2    0    0 -0.12091089004E+03  0.40365600777E+02  0.96035045042E+03  0.97220739915E+03  0.81641988487E+02 0.  0.
        -11    1    5    5    0    0 -0.19831553561E+02  0.45607928517E+02  0.28304606803E+03  0.28738206327E+03  0.00000000000E+00 0.  1.
         12    1    5    5    0    0 -0.10107933648E+03 -0.52423277399E+01  0.67730438238E+03  0.68482533588E+03  0.00000000000E+00 0. -1.
         13    1    3    3    0    0 -0.24528692094E+02  0.57773147621E+01 -0.58186774189E+02  0.63409264246E+02  0.00000000000E+00 0. -1.
        -14    1    3    3    0    0  0.44517428635E+02  0.50260421213E+02 -0.51463219323E+02  0.84595356468E+02  0.00000000000E+00 0.  1.
          5    1    4    4  501    0  0.26625775518E+02  0.11928756958E+02 -0.57810231685E+02  0.64890079766E+02  0.41800000000E+01 0. -1.
         -5    1    4    4    0  501  0.74296377979E+02 -0.10833209371E+03 -0.62125702730E+00  0.13142926869E+03  0.41800000000E+01 0. -1.
</event>
<event>
11    1  0.8453735E-009  0.1724983E+03  0.7561462E-02  0.1075878E+00
         22   -1    0    0    0    0  0.00000000000E+00  0.00000000000E+00  0.26160403436E+04  0.26160403436E+04  0.00000000000E+00 0. -1.
         22   -1    0    0    0    0 -0.00000000000E+00 -0.00000000000E+00 -0.11796956181E+03  0.11796956181E+03  0.00000000000E+00 0.  1.
        -24    2    1    2    0    0 -0.53710089021E+02  0.10872866445E+03 -0.59535532532E+02  0.15639505343E+03  0.78792366175E+02 0.  0.
         25    2    1    2    0    0  0.27147672605E+02 -0.82147698256E+02  0.63272935899E+03  0.65075304833E+03  0.12509135750E+03 0.  0.
         24    2    1    2    0    0  0.26562416416E+02 -0.26580966198E+02  0.19248769553E+04  0.19268618037E+04  0.78949398067E+02 0.  0.
        -13    1    5    5    0    0 -0.99268750861E+01 -0.18302218989E+01  0.33901160736E+02  0.35372040660E+02  0.00000000000E+00 0.  1.
         14    1    5    5    0    0  0.36489291502E+02 -0.24750744299E+02  0.18909757946E+04  0.18914897630E+04  0.00000000000E+00 0. -1.
         13    1    3    3    0    0 -0.43029830052E+02  0.93749380618E+01 -0.25170688188E+02  0.50724937475E+02  0.00000000000E+00 0. -1.
        -14    1    3    3    0    0 -0.10680258969E+02  0.99353726392E+02 -0.34364844344E+02  0.10567011596E+03  0.00000000000E+00 0.  1.
          5    1    4    4  501    0  0.60250962804E+02 -0.92907406116E+02  0.54738052667E+03  0.55848444742E+03  0.41800000000E+01 0.  1.
         -5    1    4    4    0  501 -0.33103290199E+02  0.10759707860E+02  0.85348832317E+02  0.92268600905E+02  0.41800000000E+01 0.  1.
</event>
<event>
11    1  0.8453735E-009  0.2100566E+03  0.7561462E-02  0.1047631E+00
         22   -1    0    0    0    0  0.00000000000E+00  0.00000000000E+00  0.20779495418E+03  0.20779495418E+03  0.00000000000E+00 0. -1.
         22   -1    0    0    0    0 -0.00000000000E+00 -0.00000000000E+00 -0.15927224322E+04  0.15927224322E+04  0.00000000000E+00 0.  1.
         24    2    1    2    0    0 -0.28322216364E+02 -0.16420236663E+03 -0.12918442934E+04  0.13050783117E+04  0.81259807053E+02 0.  0.
         25    2    1    2    0    0  0.13131438909E+02  0.18302609227E+03 -0.23916520349E+03  0.32637232297E+03  0.12509162043E+03 0.  0.
        -24    2    1    2    0    0  0.15190777456E+02 -0.18823725642E+02  0.14608201885E+03  0.16906675168E+03  0.81599742198E+02 0.  0.
        -11    1    3    3    0    0 -0.28241187847E+02 -0.11987170937E+03 -0.11472466808E+04  0.11538378300E+04  0.00000000000E+00 0.  1.
         12    1    3    3    0    0 -0.81028517652E-01 -0.44330657261E+02 -0.14459761255E+03  0.15124048167E+03  0.00000000000E+00 0. -1.
         11    1    5    5    0    0  0.45793651524E+02 -0.10676703996E+01  0.10675123918E+03  0.11616378741E+03  0.00000000000E+00 0. -1.
        -12    1    5    5    0    0 -0.30602874069E+02 -0.17756055243E+02  0.39330779672E+02  0.52902964271E+02  0.00000000000E+00 0.  1.
          5    1    4    4  501    0  0.46442246028E+02  0.90695723971E+02 -0.19197733192E+03  0.21738299136E+03  0.41800000000E+01 0.  1.
         -5    1    4    4    0  501 -0.33310807119E+02  0.92330368304E+02 -0.47187871574E+02  0.10898933161E+03  0.41800000000E+01 0.  1.
</event>
<event>
11    1  0.8453735E-009  0.1387373E+03  0.7561462E-02  0.1108977E+00
         22   -1    0    0    0    0  0.00000000000E+00  0.00000000000E+00  0.15964023740E+04  0.15964023740E+04  0.00000000000E+00 0.  1.
         22   -1    0    0    0    0 -0.00000000000E+00 -0.00000000000E+00 -0.40742650867E+02  0.40742650867E+02  0.00000000000E+00 0. -1.
         24    2    1    2    0    0 -0.91002118641E+01 -0.49190468220E+02  0.75375975495E+02  0.12070043243E+03  0.79903320880E+02 0.  0.
         25    2    1    2    0    0  0.33485945742E+02  0.95977800779E+02  0.38510430938E+03  0.41747538899E+03  0.12508926617E+03 0.  0.
        -24    2    1    2    0    0 -0.24385733878E+02 -0.46787332559E+02  0.10951794382E+04  0.10989692034E+04  0.74374657094E+02 0.  0.
        -11    1    3    3    0    0 -0.36895470629E+02  0.30613783284E+00  0.36481842739E+02  0.51887323336E+02  0.00000000000E+00 0.  1.
         12    1    3    3    0    0  0.27795258765E+02 -0.49496606053E+02  0.38894132756E+02  0.68813109096E+02  0.00000000000E+00 0. -1.
         11    1    5    5    0    0 -0.12909553949E+02 -0.53332344889E+01  0.84525263356E+03  0.84536803495E+03  0.00000000000E+00 0. -1.
        -12    1    5    5    0    0 -0.11476179929E+02 -0.41454098070E+02  0.24992680469E+03  0.25360116848E+03  0.00000000000E+00 0.  1.
          5    1    4    4  501    0 -0.17498160852E+02  0.73476839416E+02  0.92077108573E+02  0.11916668111E+03  0.41800000000E+01 0. -1.
         -5    1    4    4    0  501  0.50984106594E+02  0.22500961362E+02  0.29302720080E+03  0.29830870788E+03  0.41800000000E+01 0. -1.
</event>
<event>
11    1  0.8453735E-009  0.1611615E+03  0.7561462E-02  0.1085990E+00
         22   -1    0    0    0    0  0.00000000000E+00  0.00000000000E+00  0.94569707318E+03  0.94569707318E+03  0.00000000000E+00 0.  1.
         22   -1    0    0    0    0 -0.00000000000E+00 -0.00000000000E+00 -0.28952644282E+04  0.28952644282E+04  0.00000000000E+00 0. -1.
        -24    2    1    2    0    0 -0.12364112835E+01 -0.10701911317E+03 -0.25165457573E+04  0.25201215233E+04  0.80964956799E+02 0.  0.
         25    2    1    2    0    0 -0.18537703575E+02  0.61509527020E+02 -0.36137725021E+03  0.38777792664E+03  0.12510449651E+03 0.  0.
         24    2    1    2    0    0  0.19774114859E+02  0.45509586148E+02  0.92835565258E+03  0.93306205138E+03  0.79362686470E+02 0.  0.
        -11    1    5    5    0    0  0.43504080516E+02  0.43140148717E+02  0.81081872759E+03  0.81313017806E+03  0.00000000000E+00 0.  1.
         12    1    5    5    0    0 -0.23729965657E+02  0.23694374316E+01  0.11753692499E+03  0.11993187332E+03  0.00000000000E+00 0. -1.
         11    1    3    3    0    0  0.35187089211E+02 -0.75850765415E+02 -0.18262550148E+04  0.18281681676E+04  0.00000000000E+00 0. -1.
        -12    1    3    3    0    0 -0.36423500494E+02 -0.31168347754E+02 -0.69029074249E+03  0.69195335570E+03  0.00000000000E+00 0.  1.
          5    1    4    4  501    0  0.20671037656E+02  0.40423076810E+02 -0.33004184682E+03  0.33317624464E+03  0.41800000000E+01 0.  1.
         -5    1    4    4    0  501 -0.39208741232E+02  0.21086450210E+02 -0.31335403392E+02  0.54601682000E+02  0.41800000000E+01 0.  1.
</event>
<event>
11    1  0.8453735E-009  0.1267968E+03  0.7561462E-02  0.1123269E+00
         22   -1    0    0    0    0  0.00000000000E+00  0.00000000000E+00  0.25090496274E+04  0.25090496274E+04  0.00000000000E+00 0. -1.
         22   -1    0    0    0    0 -0.00000000000E+00 -0.00000000000E+00 -0.32515364183E+03  0.32515364183E+03  0.00000000000E+00 0. -1.
         24    2    1    2    0    0  0.72446328072E+01 -0.81931734116E+00 -0.20964481308E+03  0.22527824096E+03  0.82135146013E+02 0.  0.
         25    2    1    2    0    0  0.13576289707E+02  0.11830441536E+00 -0.69987781524E+02  0.14397234597E+03  0.12508164215E+03 0.  0.
        -24    2    1    2    0    0 -0.20820922514E+02  0.70101292580E+00  0.24635285802E+04  0.24649526823E+04  0.81145907913E+02 0.  0.
        -11    1    3    3    0    0 -0.23198013577E+02 -0.75727531392E+01 -0.16094945514E+02  0.29232545136E+02  0.00000000000E+00 0.  1.
         12    1    3    3    0    0  0.30442646384E+02  0.67534357981E+01 -0.19354986757E+03  0.19604569582E+03  0.00000000000E+00 0. -1.
         13    1    5    5    0    0 -0.27629835440E+02 -0.43696935956E+01  0.24356383587E+04  0.24357989893E+04  0.00000000000E+00 0. -1.
        -14    1    5    5    0    0  0.68089129253E+01  0.50707065214E+01  0.27890221528E+02  0.29153693020E+02  0.00000000000E+00 0.  1.
          5    1    4    4  501    0 -0.21285718209E+02  0.47063931583E+02 -0.67761593135E+02  0.85306514170E+02  0.41800000000E+01 0. -1.
         -5    1    4    4    0  501  0.34862007916E+02 -0.46945627168E+02 -0.22261883898E+01  0.58665831801E+02  0.41800000000E+01 0. -1.
</event>
<event>
11    1  0.8453735E-009  0.1347801E+03  0.7561462E-02  0.1113531E+00
         22   -1    0    0    0    0  0.00000000000E+00  0.00000000000E+00  0.28866117677E+03  0.28866117677E+03  0.00000000000E+00 0.  1.
         22   -1    0    0    0    0 -0.00000000000E+00 -0.00000000000E+00 -0.13832180525E+04  0.13832180525E+04  0.00000000000E+00 0. -1.
         24    2    1    2    0    0 -0.48307342939E+02  0.11333544645E+02 -0.12933035840E+04  0.12969095558E+04  0.82934835770E+02 0.  0.
         25    2    1    2    0    0  0.75388165242E+02  0.10782803643E+02 -0.12108339444E+02  0.14694886487E+03  0.12509081777E+03 0.  0.
        -24    2    1    2    0    0 -0.27080822302E+02 -0.22116348288E+02  0.21085504773E+03  0.22802080856E+03  0.79442647137E+02 0.  0.
        -11    1    3    3    0    0 -0.19142793487E+02 -0.40246194069E+01 -0.58847200489E+02  0.62013201088E+02  0.00000000000E+00 0.  1.
         12    1    3    3    0    0 -0.29164549452E+02  0.15358164052E+02 -0.12344563835E+04  0.12348963547E+04  0.00000000000E+00 0. -1.
         13    1    5    5    0    0  0.12289957784E+02 -0.12108097904E+02  0.46718474842E+01  0.17873870765E+02  0.00000000000E+00 0. -1.
        -14    1    5    5    0    0 -0.39370780087E+02 -0.10008250384E+02  0.20618320025E+03  0.21014693779E+03  0.00000000000E+00 0.  1.
          5    1    4    4  501    0  0.57605004367E+02 -0.27264814149E+02  0.43398814295E+02  0.77218107339E+02  0.41800000000E+01 0.  1.
         -5    1    4    4    0  501  0.17783160874E+02  0.38047617792E+02 -0.55507153738E+02  0.69730757535E+02  0.41800000000E+01 0.  1.
</event>
<event>
11    1  0.8453735E-009  0.1280953E+03  0.7561462E-02  0.1121632E+00
         22   -1    0    0    0    0  0.00000000000E+00  0.00000000000E+00  0.78847716554E+03  0.78847716554E+03  0.00000000000E+00 0.  1.
         22   -1    0    0    0    0 -0.00000000000E+00 -0.00000000000E+00 -0.52553421981E+02  0.52553421981E+02  0.00000000000E+00 0. -1.
        -24    2    1    2    0    0 -0.35188192102E+01 -0.50986411854E+01  0.27299130217E+02  0.86087348771E+02  0.81408911535E+02 0.  0.
         25    2    1    2    0    0 -0.23942864439E+02 -0.15860283688E+01  0.18608011257E+03  0.22549782105E+03  0.12509069814E+03 0.  0.
         24    2    1    2    0    0  0.27461683650E+02  0.66846695542E+01  0.52254450077E+03  0.52944541770E+03  0.80379513307E+02 0.  0.
        -11    1    5    5    0    0  0.53114280018E+02  0.10378953596E+00  0.42726818241E+03  0.43055689196E+03  0.00000000000E+00 0.  1.
         12    1    5    5    0    0 -0.25652596368E+02  0.65808800182E+01  0.95276318360E+02  0.98888525737E+02  0.00000000000E+00 0. -1.
         11    1    3    3    0    0 -0.13489994239E+02  0.93779965340E+01 -0.25558400716E+02  0.30383525317E+02  0.00000000000E+00 0. -1.
        -12    1    3    3    0    0  0.99711750293E+01 -0.14476637719E+02  0.52857530932E+02  0.55703823454E+02  0.00000000000E+00 0.  1.
          5    1    4    4  501    0  0.37498850849E+02 -0.25577406996E+02  0.26390609521E+02  0.52671664437E+02  0.41800000000E+01 0. -1.
         -5    1    4    4    0  501 -0.61441715289E+02  0.23991378627E+02  0.15968950304E+03  0.17282615661E+03  0.41800000000E+01 0. -1.
</event>
<event>
11    1  0.8453735E-009  0.2642991E+03  0.7561462E-02  0.1016546E+00
         22   -1    0    0    0    0  0.00000000000E+00  0.00000000000E+00  0.94198693767E+03  0.94198693767E+03  0.00000000000E+00 0. -1.
         22   -1    0    0    0    0 -0.00000000000E+00 -0.00000000000E+00 -0.20587861878E+03  0.20587861878E+03  0.00000000000E+00 0. -1.
        -24    2    1    2    0    0  0.53708454398E+02  0.20971121948E+03 -0.32037847606E+02  0.23291293139E+03  0.79740932256E+02 0.  0.
         25    2    1    2    0    0 -0.19591656194E+02 -0.30960198868E+03  0.38810998281E+03  0.51236064638E+03  0.12508736471E+03 0.  0.
         24    2    1    2    0    0 -0.34116798204E+02  0.99890769196E+02  0.38003618368E+03  0.40259197869E+03  0.80688776810E+02 0.  0.
        -11    1    5    5    0    0 -0.34039345714E+02  0.32216438988E+02  0.26510995103E+03  0.26922084268E+03  0.00000000000E+00 0.  1.
         12    1    5    5    0    0 -0.77452489289E-01  0.67674330207E+02  0.11492623266E+03  0.13337113601E+03  0.00000000000E+00 0. -1.
         11    1    3    3    0    0  0.58482882325E+02  0.10794918772E+03 -0.43821998551E+02  0.13035966482E+03  0.00000000000E+00 0. -1.
        -12    1    3    3    0    0 -0.47744279269E+01  0.10176203176E+03  0.11784150944E+02  0.10255326657E+03  0.00000000000E+00 0.  1.
          5    1    4    4  501    0  0.50623915058E+02 -0.11817656503E+03  0.17732096660E+03  0.21906318470E+03  0.41800000000E+01 0.  1.
         -5    1    4    4    0  501 -0.70215571252E+02 -0.19142542365E+03  0.21078901622E+03  0.29329746167E+03  0.41800000000E+01 0.  1.
</event>
<event>
11    1  0.8453735E-009  0.1504896E+03  0.7561462E-02  0.1096380E+00
         22   -1    0    0    0    0  0.00000000000E+00  0.00000000000E+00  0.35163517690E+03  0.35163517690E+03  0.00000000000E+00 0.  1.
         22   -1    0    0    0    0 -0.00000000000E+00 -0.00000000000E+00 -0.83071593202E+03  0.83071593202E+03  0.00000000000E+00 0. -1.
         24    2    1    2    0    0  0.16733421000E+02  0.21632692347E+02 -0.40280090041E+03  0.41167456956E+03  0.80494751956E+02 0.  0.
         25    2    1    2    0    0  0.35863369173E+02 -0.86505461350E+02 -0.39788041309E+03  0.42746136419E+03  0.12508004905E+03 0.  0.
        -24    2    1    2    0    0 -0.52596790173E+02  0.64872769004E+02  0.32160055838E+03  0.34321517517E+03  0.85993248695E+02 0.  0.
        -11    1    3    3    0    0  0.54399219270E+01  0.34104395945E+02 -0.66320146383E+02  0.74773420342E+02  0.00000000000E+00 0.  1.
         12    1    3    3    0    0  0.11293499073E+02 -0.12471703599E+02 -0.33648075402E+03  0.33690114921E+03  0.00000000000E+00 0. -1.
         13    1    5    5    0    0  0.22450311907E+02  0.24630325497E+02  0.68576182938E+02  0.76245408420E+02  0.00000000000E+00 0. -1.
        -14    1    5    5    0    0 -0.75047102080E+02  0.40242443507E+02  0.25302437544E+03  0.26696976675E+03  0.00000000000E+00 0.  1.
          5    1    4    4  501    0 -0.22463040283E+02 -0.11746876316E+02 -0.25274178972E+03  0.25404421259E+03  0.41800000000E+01 0.  1.
         -5    1    4    4    0  501  0.58326409455E+02 -0.74758585034E+02 -0.14513862337E+03  0.17341715160E+03  0.41800000000E+01 0.  1.
</event>
<event>
11    1  0.8453735E-009  0.1400226E+03  0.7561462E-02  0.1107533E+00
         22   -1    0    0    0    0  0.00000000000E+00  0.00000000000E+00  0.79704675890E+03  0.79704675890E+03  0.00000000000E+00 0.  1.
         22   -1    0    0    0    0 -0.00000000000E+00 -0.00000000000E+00 -0.14567139431E+03  0.14567139431E+03  0.00000000000E+00 0. -1.
        -24    2    1    2    0    0  0.16356262413E+01 -0.62562876589E+02 -0.10033218527E+03  0.14298621238E+03  0.80384828982E+02 0.  0.
         25    2    1    2    0    0 -0.47580495550E+02  0.64994277325E+02  0.26693020627E+03  0.30559407486E+03  0.12509134235E+03 0.  0.
         24    2    1    2    0    0  0.45944869308E+02 -0.24314007359E+01  0.48477734359E+03  0.49413786595E+03  0.83942331305E+02 0.  0.
        -11    1    5    5    0    0  0.80581521465E+01 -0.26667971780E+02  0.51672347166E+02  0.58703883998E+02  0.00000000000E+00 0.  1.
         12    1    5    5    0    0  0.37886717162E+02  0.24236571044E+02  0.43310499642E+03  0.43543398196E+03  0.00000000000E+00 0. -1.
         11    1    3    3    0    0 -0.31559675283E+02 -0.43077596058E+02 -0.87320058496E+02  0.10235470190E+03  0.00000000000E+00 0. -1.
        -12    1    3    3    0    0  0.33195301524E+02 -0.19485280530E+02 -0.13012126774E+02  0.40631510479E+02  0.00000000000E+00 0.  1.
          5    1    4    4  501    0 -0.50997381557E+02  0.64877505324E+02  0.27974254241E+03  0.29169022277E+03  0.41800000000E+01 0. -1.
         -5    1    4    4    0  501  0.34168860076E+01  0.11677200025E+00 -0.12812336142E+02  0.13903852096E+02  0.41800000000E+01 0. -1.
</event>
<event>
11    1  0.8453735E-009  0.1798481E+03  0.7561462E-02  0.1069766E+00
         22   -1    0    0    0    0  0.00000000000E+00  0.00000000000E+00  0.29037030819E+04  0.29037030819E+04  0.00000000000E+00 0.  1.
         22   -1    0    0    0    0 -0.00000000000E+00 -0.00000000000E+00 -0.16325843957E+04  0.16325843957E+04  0.00000000000E+00 0. -1.
         24    2    1    2    0    0 -0.12277884155E+03 -0.39108759155E+02 -0.16073987127E+04  0.16146100433E+04  0.81429916532E+02 0.  0.
         25    2    1    2    0    0  0.18371951908E+03  0.81051533179E+02  0.67139589256E+03  0.71185749187E+03  0.12508569650E+03 0.  0.
        -24    2    1    2    0    0 -0.60940677529E+02 -0.41942774024E+02  0.22071215064E+04  0.22098199424E+04  0.80286184481E+02 0.  0.
        -13    1    3    3    0    0 -0.79083666574E+02 -0.92096441745E+01 -0.53363569992E+03  0.53954249517E+03  0.00000000000E+00 0.  1.
         14    1    3    3    0    0 -0.43695174977E+02 -0.29899114981E+02 -0.10737630128E+04  0.10750675481E+04  0.00000000000E+00 0. -1.
         11    1    5    5    0    0 -0.52253621068E+01 -0.12104334942E+02  0.48116489402E+02  0.49890037943E+02  0.00000000000E+00 0. -1.
        -12    1    5    5    0    0 -0.55715315422E+02 -0.29838439082E+02  0.21590050169E+04  0.21599299044E+04  0.00000000000E+00 0.  1.
          5    1    4    4  501    0  0.11771498102E+03  0.86505070563E+02  0.29011627135E+03  0.32484591315E+03  0.41800000000E+01 0.  1.
         -5    1    4    4    0  501  0.66004538059E+02 -0.54535373843E+01  0.38127962121E+03  0.38701157872E+03  0.41800000000E+01 0.  1.
</event>
<event>
11    1  0.8453735E-009  0.1608684E+03  0.7561462E-02  0.1086263E+00
         22   -1    0    0    0    0  0.00000000000E+00  0.00000000000E+00  0.39514104874E+03  0.39514104874E+03  0.00000000000E+00 0. -1.
         22   -1    0    0    0    0 -0.00000000000E+00 -0.00000000000E+00 -0.11002000498E+04  0.11002000498E+04  0.00000000000E+00 0.  1.
         24    2    1    2    0    0  0.34411991380E+01 -0.57861467753E+01 -0.67401344608E+03  0.67838025173E+03  0.76552721012E+02 0.  0.
         25    2    1    2    0    0 -0.68334449686E+02 -0.71876859659E+02 -0.39764176398E+03  0.42848854937E+03  0.12509030542E+03 0.  0.
        -24    2    1    2    0    0  0.64893250548E+02  0.77663006434E+02  0.36659620898E+03  0.38847229745E+03  0.79216594955E+02 0.  0.
        -11    1    3    3    0    0  0.38231612240E+01  0.23361084850E+02 -0.56623090073E+03  0.56672549774E+03  0.00000000000E+00 0.  1.
         12    1    3    3    0    0 -0.38196208592E+00 -0.29147231625E+02 -0.10778254535E+03  0.11165475399E+03  0.00000000000E+00 0. -1.
         11    1    5    5    0    0  0.80539894918E+02  0.75980055711E+02  0.33993800165E+03  0.35751571785E+03  0.00000000000E+00 0. -1.
        -12    1    5    5    0    0 -0.15646644370E+02  0.16829507228E+01  0.26658207327E+02  0.30956579609E+02  0.00000000000E+00 0.  1.
          5    1    4    4  501    0 -0.74893304176E+02 -0.37805232759E+02 -0.38031569768E+03  0.38948137945E+03  0.41800000000E+01 0.  1.
         -5    1    4    4    0  501  0.65588544897E+01 -0.34071626900E+02 -0.17326066300E+02  0.39007169921E+02  0.41800000000E+01 0.  1.
</event>
<event>
11    1  0.8453735E-009  0.1610754E+03  0.7561462E-02  0.1086070E+00
         22   -1    0    0    0    0  0.00000000000E+00  0.00000000000E+00  0.38034670238E+03  0.38034670238E+03  0.00000000000E+00 0.  1.
         22   -1    0    0    0    0 -0.00000000000E+00 -0.00000000000E+00 -0.21890925328E+04  0.21890925328E+04  0.00000000000E+00 0.  1.
        -24    2    1    2    0    0 -0.49133493359E+02 -0.87918457638E+02 -0.20595321460E+04  0.20635356335E+04  0.79767755140E+02 0.  0.
         25    2    1    2    0    0  0.35214853396E+02  0.12625667662E+03 -0.53456939645E+02  0.18890303288E+03  0.12508348070E+03 0.  0.
         24    2    1    2    0    0  0.13918639962E+02 -0.38338218978E+02  0.30424325523E+03  0.31700056884E+03  0.79131881808E+02 0.  0.
        -13    1    5    5    0    0 -0.17872093225E+02 -0.24219388763E+02  0.25465910130E+03  0.25643176165E+03  0.00000000000E+00 0.  1.
         14    1    5    5    0    0  0.31790733187E+02 -0.14118830215E+02  0.49584153927E+02  0.60568807185E+02  0.00000000000E+00 0. -1.
         11    1    3    3    0    0  0.16727488811E+02 -0.38959231213E+02 -0.47836095586E+03  0.48023622799E+03  0.00000000000E+00 0. -1.
        -12    1    3    3    0    0 -0.65860982170E+02 -0.48959226425E+02 -0.15811711902E+04  0.15832994055E+04  0.00000000000E+00 0.  1.
          5    1    4    4  501    0  0.11172850341E+02  0.13158039793E+03 -0.24881700509E+01  0.13214347163E+03  0.41800000000E+01 0. -1.
         -5    1    4    4    0  501  0.24042003056E+02 -0.53237213112E+01 -0.50968769594E+02  0.56759561252E+02  0.41800000000E+01 0. -1.
</event>
<event>
11    1  0.8453735E-009  0.2061389E+03  0.7561462E-02  0.1050265E+00
         22   -1    0    0    0    0  0.00000000000E+00  0.00000000000E+00  0.16491936501E+03  0.16491936501E+03  0.00000000000E+00 0. -1.
         22   -1    0    0    0    0 -0.00000000000E+00 -0.00000000000E+00 -0.61080854140E+03  0.61080854140E+03  0.00000000000E+00 0.  1.
        -24    2    1    2    0    0 -0.33593573965E+01 -0.12719700873E+02 -0.31274006814E+03  0.32145544728E+03  0.73172250855E+02 0.  0.
         25    2    1    2    0    0  0.68389918926E+02  0.15937858514E+03 -0.16364081113E+03  0.26926604991E+03  0.12508867317E+03 0.  0.
         24    2    1    2    0    0 -0.65030561530E+02 -0.14665888427E+03  0.30491702872E+02  0.18500640922E+03  0.86947255504E+02 0.  0.
        -13    1    5    5    0    0  0.42685112014E+01  0.97050170167E+01  0.61328506587E+01  0.12248240705E+02  0.00000000000E+00 0.  1.
         14    1    5    5    0    0 -0.69299072731E+02 -0.15636390129E+03  0.24358852213E+02  0.17275816851E+03  0.00000000000E+00 0. -1.
         11    1    3    3    0    0  0.34917669264E+02 -0.57943894243E+01 -0.14301093814E+03  0.14732598889E+03  0.00000000000E+00 0. -1.
        -12    1    3    3    0    0 -0.38277026660E+02 -0.69253114484E+01 -0.16972913000E+03  0.17412945839E+03  0.00000000000E+00 0.  1.
          5    1    4    4  501    0  0.46307171749E+02 -0.29323860670E+00 -0.66093293756E+02  0.80809875781E+02  0.41800000000E+01 0. -1.
         -5    1    4    4    0  501  0.22082747178E+02  0.15967182375E+03 -0.97547517378E+02  0.18845617413E+03  0.41800000000E+01 0. -1.
</event>
<event>
11    1  0.8453735E-009  0.1547044E+03  0.7561462E-02  0.1092167E+00
         22   -1    0    0    0    0  0.00000000000E+00  0.00000000000E+00  0.61026150757E+03  0.61026150757E+03  0.00000000000E+00 0.  1.
         22   -1    0    0    0    0 -0.00000000000E+00 -0.00000000000E+00 -0.88392482362E+03  0.88392482362E+03  0.00000000000E+00 0.  1.
        -24    2    1    2    0    0 -0.42076193169E+02 -0.10234827380E+03 -0.48841052596E+03  0.50693171464E+03  0.78672398358E+02 0.  0.
         25    2    1    2    0    0  0.53059950132E+02  0.43459251660E+02 -0.36861158404E+03  0.39525578027E+03  0.12509423282E+03 0.  0.
         24    2    1    2    0    0 -0.10983756962E+02  0.58889022136E+02  0.58335879396E+03  0.59199883627E+03  0.81034435945E+02 0.  0.
        -13    1    5    5    0    0 -0.54530242263E+01  0.69876405852E+01  0.42828364491E+03  0.42837535304E+03  0.00000000000E+00 0.  1.
         14    1    5    5    0    0 -0.55307327359E+01  0.51901381551E+02  0.15507514905E+03  0.16362348323E+03  0.00000000000E+00 0. -1.
         13    1    3    3    0    0 -0.75882585359E+01 -0.11406496020E+02 -0.62484511155E+01  0.15057654545E+02  0.00000000000E+00 0. -1.
        -14    1    3    3    0    0 -0.34487934633E+02 -0.90941777776E+02 -0.48216207484E+03  0.49187406010E+03  0.00000000000E+00 0.  1.
          5    1    4    4  501    0 -0.35387088643E+01  0.56147197430E+01  0.87659705022E+01  0.11762745303E+02  0.41800000000E+01 0.  1.
         -5    1    4    4    0  501  0.56598658996E+02  0.37844531917E+02 -0.37737755455E+03  0.38349303497E+03  0.41800000000E+01 0.  1.
</event>
<event>
11    1  0.8453735E-009  0.2160004E+03  0.7561462E-02  0.1043752E+00
         22   -1    0    0    0    0  0.00000000000E+00  0.00000000000E+00  0.20217103671E+04  0.20217103671E+04  0.00000000000E+00 0. -1.
         22   -1    0    0    0    0 -0.00000000000E+00 -0.00000000000E+00 -0.11386258245E+03  0.11386258245E+03  0.00000000000E+00 0.  1.
        -24    2    1    2    0    0 -0.59916817089E+02  0.24266162044E+02 -0.37144518181E+02  0.10931931287E+03  0.79950768255E+02 0.  0.
         25    2    1    2    0    0 -0.12453644395E+03 -0.14473782123E+02  0.18991267072E+03  0.25967906226E+03  0.12509027394E+03 0.  0.
         24    2    1    2    0    0  0.18445326104E+03 -0.97923799209E+01  0.17550796322E+04  0.17665745745E+04  0.79764125544E+02 0.  0.
        -11    1    5    5    0    0  0.12473142138E+03  0.31274778031E+02  0.10918885587E+04  0.10994347020E+04  0.00000000000E+00 0.  1.
         12    1    5    5    0    0  0.59721839668E+02 -0.41067157952E+02  0.66319107340E+03  0.66713987247E+03  0.00000000000E+00 0. -1.
         11    1    3    3    0    0 -0.32427597821E+02 -0.76820004310E+01  0.19579601311E+02  0.38651300347E+02  0.00000000000E+00 0. -1.
        -12    1    3    3    0    0 -0.27489219269E+02  0.31948162475E+02 -0.56724119491E+02  0.70668012520E+02  0.00000000000E+00 0.  1.
          5    1    4    4  501    0  0.23910986197E+02 -0.14591188524E+02  0.25280784037E+02  0.37963515183E+02  0.41800000000E+01 0. -1.
         -5    1    4    4    0  501 -0.14844743015E+03  0.11740640155E+00  0.16463188669E+03  0.22171554708E+03  0.41800000000E+01 0. -1.
</event>
<event>
11    1  0.8453735E-009  0.1314808E+03  0.7561462E-02  0.1117463E+00
         22   -1    0    0    0    0  0.00000000000E+00  0.00000000000E+00  0.29120486968E+03  0.29120486968E+03  0.00000000000E+00 0. -1.
         22   -1    0    0    0    0 -0.00000000000E+00 -0.00000000000E+00 -0.10527266328E+04  0.10527266328E+04  0.00000000000E+00 0. -1.
        -24    2    1    2    0    0 -0.12881465574E+02  0.34798079046E+02 -0.87485164743E+03  0.87883561617E+03  0.74898576607E+02 0.  0.
         25    2    1    2    0    0 -0.15723880557E+01  0.46998578210E+01 -0.14517409340E+03  0.19169762452E+03  0.12509156959E+03 0.  0.
         24    2    1    2    0    0  0.14453853629E+02 -0.39497936867E+02  0.25850397767E+03  0.27339826184E+03  0.78442986967E+02 0.  0.
        -13    1    5    5    0    0  0.87731223215E+01 -0.44834150191E+02  0.63433280062E+02  0.78171924103E+02  0.00000000000E+00 0.  1.
         14    1    5    5    0    0  0.56807313080E+01  0.53362133234E+01  0.19507069760E+03  0.19522633773E+03  0.00000000000E+00 0. -1.
         11    1    3    3    0    0 -0.34870749356E+02  0.33833804544E+02 -0.77794498334E+03  0.77946077040E+03  0.00000000000E+00 0. -1.
        -12    1    3    3    0    0  0.21989283782E+02  0.96427450216E+00 -0.96906664086E+02  0.99374845765E+02  0.00000000000E+00 0.  1.
          5    1    4    4  501    0 -0.62961258037E+02  0.70776418561E+01 -0.69552306618E+02  0.94176476806E+02  0.41800000000E+01 0.  1.
         -5    1    4    4    0  501  0.61388869981E+02 -0.23777840351E+01 -0.75621786781E+02  0.97521147709E+02  0.41800000000E+01 0.  1.
</event>
<event>
11    1  0.8453735E-009  0.1831867E+03  0.7561462E-02  0.1067094E+00
         22   -1    0    0    0    0  0.00000000000E+00  0.00000000000E+00  0.57835501176E+03  0.57835501176E+03  0.00000000000E+00 0. -1.
         22   -1    0    0    0    0 -0.00000000000E+00 -0.00000000000E+00 -0.19216676123E+03  0.19216676123E+03  0.00000000000E+00 0.  1.
         24    2    1    2    0    0 -0.52877890831E+02  0.99845994238E+02 -0.33582371624E+02  0.14935052011E+03  0.91719726721E+02 0.  0.
         25    2    1    2    0    0  0.88366253359E+02 -0.15654378924E+03  0.33401179490E+02  0.22153567893E+03  0.12509142883E+03 0.  0.
        -24    2    1    2    0    0 -0.35488362527E+02  0.56697795000E+02  0.38636944267E+03  0.39963557395E+03  0.77156865557E+02 0.  0.
        -13    1    3    3    0    0 -0.28972218936E+02  0.94118331505E+02  0.10338983664E+02  0.99017899284E+02  0.00000000000E+00 0.  1.
         14    1    3    3    0    0 -0.23905671895E+02  0.57276627330E+01 -0.43921355288E+02  0.50332620829E+02  0.00000000000E+00 0. -1.
         13    1    5    5    0    0 -0.34485581730E+02  0.75405137634E+02  0.32884004704E+03  0.33913266823E+03  0.00000000000E+00 0. -1.
        -14    1    5    5    0    0 -0.10027807972E+01 -0.18707342634E+02  0.57529395633E+02  0.60502905713E+02  0.00000000000E+00 0.  1.
          5    1    4    4  501    0  0.43378026731E+02 -0.14711651247E+03  0.63905017745E+02  0.16621144707E+03  0.41800000000E+01 0.  1.
         -5    1    4    4    0  501  0.44988226628E+02 -0.94272767646E+01 -0.30503838255E+02  0.55324231858E+02  0.41800000000E+01 0.  1.
</event>
<event>
11    1  0.8453735E-009  0.1868749E+03  0.7561462E-02  0.1064214E+00
         22   -1    0    0    0    0  0.00000000000E+00  0.00000000000E+00  0.27701538983E+03  0.27701538983E+03  0.00000000000E+00 0. -1.
         22   -1    0    0    0    0 -0.00000000000E+00 -0.00000000000E+00 -0.11371855274E+04  0.11371855274E+04  0.00000000000E+00 0.  1.
         24    2    1    2    0    0 -0.32155395442E+02 -0.13513167485E+02 -0.98651766858E+03  0.99064641702E+03  0.83346493540E+02 0.  0.
         25    2    1    2    0    0 -0.17659680117E+02 -0.12157704417E+03 -0.49354742701E+02  0.18214297506E+03  0.12508929118E+03 0.  0.
        -24    2    1    2    0    0  0.49815075559E+02  0.13509021166E+03  0.17570227371E+03  0.24141152516E+03  0.81714921854E+02 0.  0.
        -13    1    3    3    0    0 -0.45089809739E+02 -0.38866658562E+02 -0.55284041870E+03  0.55603618285E+03  0.00000000000E+00 0.  1.
         14    1    3    3    0    0  0.12934414297E+02  0.25353491077E+02 -0.43367724988E+03  0.43461023417E+03  0.00000000000E+00 0. -1.
         13    1    5    5    0    0  0.60519035857E+02  0.11363156863E+03  0.17521283983E+03  0.21742636991E+03  0.00000000000E+00 0. -1.
        -14    1    5    5    0    0 -0.10703960298E+02  0.21458643025E+02  0.48943387379E+00  0.23985155243E+02  0.00000000000E+00 0.  1.
          5    1    4    4  501    0 -0.61059225131E+02 -0.11497574590E+03 -0.28355508856E+02  0.13330100676E+03  0.41800000000E+01 0.  1.
         -5    1    4    4    0  501  0.43399545014E+02 -0.66012982693E+01 -0.20999233845E+02  0.48841968309E+02  0.41800000000E+01 0.  1.
</event>
<event>
11    1  0.8453735E-009  0.3680796E+03  0.7561462E-02  0.9748939E-01
         22   -1    0    0    0    0  0.00000000000E+00  0.00000000000E+00  0.64270460552E+03  0.64270460552E+03  0.00000000000E+00 0. -1.
         22   -1    0    0    0    0 -0.00000000000E+00 -0.00000000000E+00 -0.25691992321E+04  0.25691992321E+04  0.00000000000E+00 0.  1.
        -24    2    1    2    0    0 -0.31864907213E+03  0.35922712699E+02 -0.17763023861E+04  0.18068804000E+04  0.82091051645E+02 0.  0.
         25    2    1    2    0    0  0.50632778864E+03  0.63970480779E+02 -0.66201206785E+03  0.84520276242E+03  0.12509068580E+03 0.  0.
         24    2    1    2    0    0 -0.18767871650E+03 -0.99893193477E+02  0.51181982735E+03  0.55982067517E+03  0.78979123507E+02 0.  0.
        -13    1    5    5    0    0  0.38169465542E+01 -0.18062953055E+02  0.46278447147E+02  0.49825034114E+02  0.00000000000E+00 0.  1.
         14    1    5    5    0    0 -0.19149566306E+03 -0.81830240423E+02  0.46554138020E+03  0.50999564105E+03  0.00000000000E+00 0. -1.
         11    1    3    3    0    0 -0.61758456064E+02  0.36734221398E+02 -0.48242966313E+03  0.48775187317E+03  0.00000000000E+00 0. -1.
        -12    1    3    3    0    0 -0.25689061607E+03 -0.81150869944E+00 -0.12938727229E+04  0.13191285268E+04  0.00000000000E+00 0.  1.
          5    1    4    4  501    0  0.11832971435E+03 -0.37041064786E+02 -0.17149720568E+03  0.21166654373E+03  0.41800000000E+01 0.  1.
         -5    1    4    4    0  501  0.38799807428E+03  0.10101154556E+03 -0.49051486217E+03  0.63353621869E+03  0.41800000000E+01 0.  1.
</event>
<event>
11    1  0.8453735E-009  0.1365113E+03  0.7561462E-02  0.1111518E+00
         22   -1    0    0    0    0  0.00000000000E+00  0.00000000000E+00  0.33186153769E+03  0.33186153769E+03  0.00000000000E+00 0. -1.
         22   -1    0    0    0    0 -0.00000000000E+00 -0.00000000000E+00 -0.47528673918E+03  0.47528673918E+03  0.00000000000E+00 0.  1.
         24    2    1    2    0    0 -0.70567112866E+01 -0.14995438153E+02 -0.22900791634E+03  0.24191182665E+03  0.76171161114E+02 0.  0.
         25    2    1    2    0    0 -0.22042997818E+02 -0.31953175719E+02 -0.21355803125E+03  0.25051364956E+03  0.12507260577E+03 0.  0.
        -24    2    1    2    0    0  0.29099709105E+02  0.46948613872E+02  0.29914074610E+03  0.31472280066E+03  0.80711150811E+02 0.  0.
        -11    1    3    3    0    0  0.15198401212E+02 -0.39695797493E+02 -0.15604986162E+03  0.16173529933E+03  0.00000000000E+00 0.  1.
         12    1    3    3    0    0 -0.22255112499E+02  0.24700359340E+02 -0.72958054720E+02  0.80176527316E+02  0.00000000000E+00 0. -1.
         11    1    5    5    0    0 -0.16717742248E+02  0.44811405008E+02  0.19755460197E+03  0.20326181560E+03  0.00000000000E+00 0. -1.
        -12    1    5    5    0    0  0.45817451353E+02  0.21372088639E+01  0.10158614413E+03  0.11146098506E+03  0.00000000000E+00 0.  1.
          5    1    4    4  501    0  0.25803081847E+02 -0.44367219767E+02 -0.28361922858E+02  0.58788776913E+02  0.41800000000E+01 0. -1.
         -5    1    4    4    0  501 -0.47846079665E+02  0.12414044048E+02 -0.18519610839E+03  0.19172487265E+03  0.41800000000E+01 0. -1.
</event>
<event>
11    1  0.8453735E-009  0.1470767E+03  0.7561462E-02  0.1099904E+00
         22   -1    0    0    0    0  0.00000000000E+00  0.00000000000E+00  0.26458420615E+04  0.26458420615E+04  0.00000000000E+00 0.  1.
         22   -1    0    0    0    0 -0.00000000000E+00 -0.00000000000E+00 -0.66842967103E+02  0.66842967103E+02  0.00000000000E+00 0. -1.
         24    2    1    2    0    0  0.50353837587E+02  0.62328209552E+02 -0.22586969277E+00  0.11218511475E+03  0.78518369119E+02 0.  0.
         25    2    1    2    0    0 -0.64688941305E+02 -0.12435805061E+02  0.51298662003E+03  0.53211155576E+03  0.12509247404E+03 0.  0.
        -24    2    1    2    0    0  0.14335103718E+02 -0.49892404491E+02  0.20662383441E+04  0.20683883581E+04  0.78706786395E+02 0.  0.
        -13    1    3    3    0    0  0.13746356806E+02  0.59323112144E+02  0.26851934642E+02  0.66552388040E+02  0.00000000000E+00 0.  1.
         14    1    3    3    0    0  0.36607480780E+02  0.30050974080E+01 -0.27077804334E+02  0.45632726711E+02  0.00000000000E+00 0. -1.
         13    1    5    5    0    0 -0.31986371128E+02 -0.13480156302E+02  0.65219951394E+03  0.65312253715E+03  0.00000000000E+00 0. -1.
        -14    1    5    5    0    0  0.46321474846E+02 -0.36412248188E+02  0.14140388301E+04  0.14152658210E+04  0.00000000000E+00 0.  1.
          5    1    4    4  501    0 -0.16342135815E+02  0.55320274612E+02  0.22422538439E+03  0.23156401618E+03  0.41800000000E+01 0. -1.
         -5    1    4    4    0  501 -0.48346805490E+02 -0.67756079673E+02  0.28876123565E+03  0.30054753958E+03  0.41800000000E+01 0. -1.
</event>
<event>
11    1  0.8453735E-009  0.1342130E+03  0.7561462E-02  0.1114198E+00
         22   -1    0    0    0    0  0.00000000000E+00  0.00000000000E+00  0.26929355602E+04  0.26929355602E+04  0.00000000000E+00 0.  1.
         22   -1    0    0    0    0 -0.00000000000E+00 -0.00000000000E+00 -0.84448303252E+02  0.84448303252E+02  0.00000000000E+00 0.  1.
         24    2    1    2    0    0  0.47090981852E+02 -0.66552221390E+01 -0.48475431063E+02  0.10517812527E+03  0.80316362370E+02 0.  0.
         25    2    1    2    0    0 -0.77452731759E+02  0.38129147315E+02  0.88284998317E+03  0.89583760150E+03  0.12509259751E+03 0.  0.
        -24    2    1    2    0    0  0.30361749907E+02 -0.31473925176E+02  0.17741127048E+04  0.17763681367E+04  0.78073194621E+02 0.  0.
        -13    1    3    3    0    0  0.51630513543E+02 -0.10484850906E+02 -0.67282759961E+02  0.85455320579E+02  0.00000000000E+00 0.  1.
         14    1    3    3    0    0 -0.45395316913E+01  0.38296287669E+01  0.18807328898E+02  0.19722804688E+02  0.00000000000E+00 0. -1.
         11    1    5    5    0    0  0.69084404219E+01  0.25931298860E+02  0.44340102192E+03  0.44421236481E+03  0.00000000000E+00 0. -1.
        -12    1    5    5    0    0  0.23453309485E+02 -0.57405224036E+02  0.13307116829E+04  0.13321557719E+04  0.00000000000E+00 0.  1.
          5    1    4    4  501    0  0.16873919191E+02  0.50605647874E+02  0.23432931543E+03  0.24036089785E+03  0.41800000000E+01 0. -1.
         -5    1    4    4    0  501 -0.94326650950E+02 -0.12476500559E+02  0.64852066774E+03  0.65547670365E+03  0.41800000000E+01 0. -1.
</event>
<event>
11    1  0.8453735E-009  0.1484024E+03  0.7561462E-02  0.1098522E+00
         22   -1    0    0    0    0  0.00000000000E+00  0.00000000000E+00  0.13635347271E+04  0.13635347271E+04  0.00000000000E+00 0. -1.
         22   -1    0    0    0    0 -0.00000000000E+00 -0.00000000000E+00 -0.11491708856E+03  0.11491708856E+03  0.00000000000E+00 0.  1.
        -24    2    1    2    0    0  0.67957758562E+02 -0.45401549799E+02 -0.16867825862E+02  0.10825012684E+03  0.68949320070E+02 0.  0.
         25    2    1    2    0    0  0.15328209546E+02  0.44194032248E+02  0.40001365024E+02  0.13941117564E+03  0.12508916897E+03 0.  0.
         24    2    1    2    0    0 -0.83285968108E+02  0.12075175514E+01  0.12254840994E+04  0.12307905132E+04  0.78076878528E+02 0.  0.
        -11    1    5    5    0    0 -0.58599055696E+02 -0.36541106986E+02  0.74605061017E+03  0.74924002480E+03  0.00000000000E+00 0.  1.
         12    1    5    5    0    0 -0.24686912412E+02  0.37748624537E+02  0.47943348919E+03  0.48155048838E+03  0.00000000000E+00 0. -1.
         13    1    3    3    0    0  0.66740027273E+02 -0.52511041525E+02  0.51534812428E+01  0.85077606286E+02  0.00000000000E+00 0. -1.
        -14    1    3    3    0    0  0.12177312885E+01  0.71094917256E+01 -0.22021307105E+02  0.23172520551E+02  0.00000000000E+00 0.  1.
          5    1    4    4  501    0 -0.20019323665E+02  0.12974998098E+01 -0.38216520601E+02  0.43363944385E+02  0.41800000000E+01 0.  1.
         -5    1    4    4    0  501  0.35347533211E+02  0.42896532438E+02  0.78217885625E+02  0.96047231251E+02  0.41800000000E+01 0.  1.
</event>
<event>
11    1  0.8453735E-009  0.1606056E+03  0.7561462E-02  0.1086509E+00
         22   -1    0    0    0    0  0.00000000000E+00  0.00000000000E+00  0.32723177781E+03  0.32723177781E+03  0.00000000000E+00 0. -1.
         22   -1    0    0    0    0 -0.00000000000E+00 -0.00000000000E+00 -0.15827633251E+04  0.15827633251E+04  0.00000000000E+00 0.  1.
         24    2    1    2    0    0  0.82337071525E+02 -0.21205582047E+02 -0.36232685551E+03  0.38119037682E+03  0.82439572423E+02 0.  0.
         25    2    1    2    0    0 -0.17965808093E+03  0.43520398370E+02 -0.11880273751E+04  0.12088125381E+04  0.12509059577E+03 0.  0.
        -24    2    1    2    0    0  0.97321009405E+02 -0.22314816323E+02  0.29482268331E+03  0.31999218800E+03  0.74197411583E+02 0.  0.
        -13    1    3    3    0    0  0.68940310474E+02  0.97855709919E+01 -0.14049189848E+03  0.15680082062E+03  0.00000000000E+00 0.  1.
         14    1    3    3    0    0  0.13396761051E+02 -0.30991153038E+02 -0.22183495703E+03  0.22438955621E+03  0.00000000000E+00 0. -1.
         13    1    5    5    0    0  0.54637034667E+02  0.14564499265E+02  0.21458576168E+03  0.22191074628E+03  0.00000000000E+00 0. -1.
        -14    1    5    5    0    0  0.42683974738E+02 -0.36879315588E+02  0.80236921628E+02  0.98081441721E+02  0.00000000000E+00 0.  1.
          5    1    4    4  501    0 -0.78950124431E+01  0.40700833625E+02 -0.11951221660E+03  0.12656828748E+03  0.41800000000E+01 0.  1.
         -5    1    4    4    0  501 -0.17176306849E+03  0.28195647441E+01 -0.10685151585E+04  0.10822442506E+04  0.41800000000E+01 0.  1.
</event>
<event>
11    1  0.8453735E-009  0.1771679E+03  0.7561462E-02  0.1071957E+00
         22   -1    0    0    0    0  0.00000000000E+00  0.00000000000E+00  0.66348091990E+03  0.66348091990E+03  0.00000000000E+00 0.  1.
         22   -1    0    0    0    0 -0.00000000000E+00 -0.00000000000E+00 -0.17656928515E+04  0.17656928515E+04  0.00000000000E+00 0.  1.
         24    2    1    2    0    0 -0.66730615161E+02  0.10526622311E+03 -0.14873495914E+04  0.14946173503E+04  0.78347074585E+02 0.  0.
         25    2    1    2    0    0  0.12497131691E+03 -0.76718807428E+02 -0.23609826572E+03  0.30478402873E+03  0.12508919870E+03 0.  0.
        -24    2    1    2    0    0 -0.58240701751E+02 -0.28547415685E+02  0.62123592554E+03  0.62977239232E+03  0.80450336668E+02 0.  0.
        -13    1    3    3    0    0 -0.44356537635E+02  0.48837888427E+02 -0.11470796457E+04  0.11489753502E+04  0.00000000000E+00 0.  1.
         14    1    3    3    0    0 -0.22374077526E+02  0.56428334686E+02 -0.34026994577E+03  0.34564200019E+03  0.00000000000E+00 0. -1.
         13    1    5    5    0    0 -0.18283260640E+02 -0.37495894142E+02  0.12350324433E+03  0.13035824123E+03  0.00000000000E+00 0. -1.
        -14    1    5    5    0    0 -0.39957441111E+02  0.89484784568E+01  0.49773268121E+03  0.49941415109E+03  0.00000000000E+00 0.  1.
          5    1    4    4  501    0  0.50621623796E+02  0.72006828354E+01 -0.16298535245E+03  0.17086865173E+03  0.41800000000E+01 0. -1.
         -5    1    4    4    0  501  0.74349693116E+02 -0.83919490263E+02 -0.73112913268E+02  0.13391537701E+03  0.41800000000E+01 0. -1.
</event>
<event>
11    1  0.8453735E-009  0.1304251E+03  0.7561462E-02  0.1118748E+00
         22   -1    0    0    0    0  0.00000000000E+00  0.00000000000E+00  0.20785684885E+04  0.20785684885E+04  0.00000000000E+00 0.  1.
         22   -1    0    0    0    0 -0.00000000000E+00 -0.00000000000E+00 -0.52519035393E+03  0.52519035393E+03  0.00000000000E+00 0.  1.
         24    2    1    2    0    0 -0.30781297939E+02  0.96130448951E+01 -0.48080322529E+03  0.48837014916E+03  0.79333235200E+02 0.  0.
         25    2    1    2    0    0 -0.10669788847E+01  0.10537826172E+02  0.59905638817E+02  0.13909989171E+03  0.12509160678E+03 0.  0.
        -24    2    1    2    0    0  0.31848276823E+02 -0.20150871067E+02  0.19742757211E+04  0.19762888016E+04  0.80823475197E+02 0.  0.
        -13    1    3    3    0    0  0.49104138738E+01  0.15398348554E+02 -0.39407866542E+03  0.39440995910E+03  0.00000000000E+00 0.  1.
         14    1    3    3    0    0 -0.35691711813E+02 -0.57853036585E+01 -0.86724559867E+02  0.93960190052E+02  0.00000000000E+00 0. -1.
         11    1    5    5    0    0  0.40818431238E+02 -0.37423109685E+01  0.44142440095E+03  0.44332341578E+03  0.00000000000E+00 0. -1.
        -12    1    5    5    0    0 -0.89701544146E+01 -0.16408560099E+02  0.15328513201E+04  0.15329653858E+04  0.00000000000E+00 0.  1.
          5    1    4    4  501    0  0.78052241885E+01  0.65896722796E+02  0.46980982403E+02  0.81412435828E+02  0.41800000000E+01 0.  1.
         -5    1    4    4    0  501 -0.88722030732E+01 -0.55358896624E+02  0.12924656414E+02  0.57687455882E+02  0.41800000000E+01 0.  1.
</event>
<event>
11    1  0.8453735E-009  0.1298238E+03  0.7561462E-02  0.1119486E+00
         22   -1    0    0    0    0  0.00000000000E+00  0.00000000000E+00  0.14113954259E+03  0.14113954259E+03  0.00000000000E+00 0.  1.
         22   -1    0    0    0    0 -0.00000000000E+00 -0.00000000000E+00 -0.11033538993E+04  0.11033538993E+04  0.00000000000E+00 0.  1.
         24    2    1    2    0    0  0.28751168909E+02 -0.19257917927E+01 -0.75925949727E+03  0.76425707176E+03  0.82362304221E+02 0.  0.
         25    2    1    2    0    0  0.72077917784E+01 -0.14715428188E+00 -0.31410799426E+03  0.33817878309E+03  0.12509629634E+03 0.  0.
        -24    2    1    2    0    0 -0.35958960688E+02  0.20729460746E+01  0.11115313482E+03  0.14205758704E+03  0.80796006684E+02 0.  0.
        -11    1    3    3    0    0  0.59095784819E+01 -0.13894155801E+02 -0.69288146972E+03  0.69304595934E+03  0.00000000000E+00 0.  1.
         12    1    3    3    0    0  0.22841590427E+02  0.11968364008E+02 -0.66378027550E+02  0.71211112418E+02  0.00000000000E+00 0. -1.
         11    1    5    5    0    0 -0.11008242698E+02 -0.94448996862E+01 -0.10135242445E+02  0.17694933648E+02  0.00000000000E+00 0. -1.
        -12    1    5    5    0    0 -0.24950717990E+02  0.11517845761E+02  0.12128837726E+03  0.12436265339E+03  0.00000000000E+00 0.  1.
          5    1    4    4  501    0  0.62849699455E+02 -0.19400436392E+02 -0.15271754925E+03  0.16633275054E+03  0.41800000000E+01 0. -1.
         -5    1    4    4    0  501 -0.55641907677E+02  0.19253282110E+02 -0.16139044501E+03  0.17184603255E+03  0.41800000000E+01 0. -1.
</event>
<event>
11    1  0.8453735E-009  0.1256201E+03  0.7561462E-02  0.1124771E+00
         22   -1    0    0    0    0  0.00000000000E+00  0.00000000000E+00  0.42180470900E+03  0.42180470900E+03  0.00000000000E+00 0. -1.
         22   -1    0    0    0    0 -0.00000000000E+00 -0.00000000000E+00 -0.84003990782E+03  0.84003990782E+03  0.00000000000E+00 0.  1.
         24    2    1    2    0    0 -0.14224248241E+02  0.11698448045E+02 -0.49846463581E+03  0.50543979012E+03  0.81628459251E+02 0.  0.
         25    2    1    2    0    0 -0.11176412288E+00  0.26145988886E+02 -0.32225470164E+03  0.34666908007E+03  0.12509089943E+03 0.  0.
        -24    2    1    2    0    0  0.14336012363E+02 -0.37844436931E+02  0.40248413862E+03  0.40973574663E+03  0.65208723064E+02 0.  0.
        -13    1    3    3    0    0 -0.53890845072E+00 -0.47058195374E+01 -0.46911241981E+03  0.46913633155E+03  0.00000000000E+00 0.  1.
         14    1    3    3    0    0 -0.13685339790E+02  0.16404267582E+02 -0.29352215996E+02  0.36303458567E+02  0.00000000000E+00 0. -1.
         13    1    5    5    0    0  0.29354377967E+02 -0.16118289032E+01  0.26919839754E+03  0.27079891937E+03  0.00000000000E+00 0. -1.
        -14    1    5    5    0    0 -0.15018365604E+02 -0.36232608028E+02  0.13328574109E+03  0.13893682725E+03  0.00000000000E+00 0.  1.
          5    1    4    4  501    0 -0.45591328603E+02  0.44667622500E+02 -0.25731432883E+03  0.26514505834E+03  0.41800000000E+01 0.  1.
         -5    1    4    4    0  501  0.45479564480E+02 -0.18521633614E+02 -0.64940372812E+02  0.81524021723E+02  0.41800000000E+01 0.  1.
</event>
<event>
11    1  0.8453735E-009  0.3378797E+03  0.7561462E-02  0.9853228E-01
         22   -1    0    0    0    0  0.00000000000E+00  0.00000000000E+00  0.11641766753E+04  0.11641766753E+04  0.00000000000E+00 0. -1.
         22   -1    0    0    0    0 -0.00000000000E+00 -0.00000000000E+00 -0.41736002646E+03  0.41736002646E+03  0.00000000000E+00 0. -1.
        -24    2    1    2    0    0  0.36495826486E+03 -0.12202949429E+03 -0.20315286855E+03  0.44249970079E+03  0.80306691103E+02 0.  0.
         25    2    1    2    0    0 -0.20730704179E+03  0.32693425833E+02  0.95667681901E+02  0.26237949104E+03  0.12508246196E+03 0.  0.
         24    2    1    2    0    0 -0.15765122307E+03  0.89336068459E+02  0.85430183548E+03  0.87665750992E+03  0.76563191730E+02 0.  0.
        -13    1    5    5    0    0 -0.37279934741E+02  0.30170711779E+02  0.40307896769E+03  0.40592206096E+03  0.00000000000E+00 0.  1.
         14    1    5    5    0    0 -0.12037128833E+03  0.59165356681E+02  0.45122286779E+03  0.47073544896E+03  0.00000000000E+00 0. -1.
         11    1    3    3    0    0  0.29077188068E+03 -0.12721926732E+03 -0.17859049267E+03  0.36418071427E+03  0.00000000000E+00 0. -1.
        -12    1    3    3    0    0  0.74186384176E+02  0.51897730266E+01 -0.24562375872E+02  0.78318986521E+02  0.00000000000E+00 0.  1.
          5    1    4    4  501    0 -0.88925861539E+01 -0.32313543020E+02  0.24601902283E+02  0.41784795643E+02  0.41800000000E+01 0.  1.
         -5    1    4    4    0  501 -0.19841445564E+03  0.65006968853E+02  0.71065779618E+02  0.22059469540E+03  0.41800000000E+01 0.  1.
</event>
<event>
11    1  0.8453735E-009  0.1540225E+03  0.7561462E-02  0.1092838E+00
         22   -1    0    0    0    0  0.00000000000E+00  0.00000000000E+00  0.71494143276E+03  0.71494143276E+03  0.00000000000E+00 0. -1.
         22   -1    0    0    0    0 -0.00000000000E+00 -0.00000000000E+00 -0.63370187110E+02  0.63370187110E+02  0.00000000000E+00 0.  1.
        -24    2    1    2    0    0  0.40512672372E+02 -0.25675983970E+02  0.42886492676E+02  0.10379877289E+03  0.81451833766E+02 0.  0.
         25    2    1    2    0    0  0.33742008774E+02 -0.46586171391E+02  0.18068781263E+03  0.22716662554E+03  0.12509114920E+03 0.  0.
         24    2    1    2    0    0 -0.74254681146E+02  0.72262155361E+02  0.42799694035E+03  0.44734622144E+03  0.78750772178E+02 0.  0.
        -13    1    5    5    0    0 -0.73224176923E+02  0.21322092384E+02  0.20841571733E+03  0.22193134736E+03  0.00000000000E+00 0.  1.
         14    1    5    5    0    0 -0.10305042230E+01  0.50940062977E+02  0.21958122302E+03  0.22541487408E+03  0.00000000000E+00 0. -1.
         13    1    3    3    0    0 -0.24085858549E+02  0.21039984742E+01  0.98639403367E+01  0.26112309560E+02  0.00000000000E+00 0. -1.
        -14    1    3    3    0    0  0.64598530920E+02 -0.27779982444E+02  0.33022552339E+02  0.77686463330E+02  0.00000000000E+00 0.  1.
          5    1    4    4  501    0  0.20002898695E+01 -0.79946071187E+02  0.15451972095E+03  0.17403790397E+03  0.41800000000E+01 0. -1.
         -5    1    4    4    0  501  0.31741718904E+02  0.33359899796E+02  0.26168091681E+02  0.53128721570E+02  0.41800000000E+01 0. -1.
</event>
<event>
11    1  0.8453735E-009  0.1586062E+03  0.7561462E-02  0.1088396E+00
         22   -1    0    0    0    0  0.00000000000E+00  0.00000000000E+00  0.35007609856E+03  0.35007609856E+03  0.00000000000E+00 0.  1.
         22   -1    0    0    0    0 -0.00000000000E+00 -0.00000000000E+00 -0.50765655559E+03  0.50765655559E+03  0.00000000000E+00 0. -1.
         24    2    1    2    0    0  0.65108046206E+02 -0.69938332198E+02 -0.42364472735E+03  0.44174044764E+03  0.80804332043E+02 0.  0.
         25    2    1    2    0    0 -0.89985777210E+02  0.83096196186E+02  0.47865902621E+02  0.18150302203E+03  0.12509909852E+03 0.  0.
        -24    2    1    2    0    0  0.24877731004E+02 -0.13157863988E+02  0.21819836770E+03  0.23448918448E+03  0.81133341415E+02 0.  0.
        -11    1    3    3    0    0  0.40029312748E+02 -0.82144929410E+02 -0.25664558526E+03  0.27242814051E+03  0.00000000000E+00 0.  1.
         12    1    3    3    0    0  0.25078733458E+02  0.12206597212E+02 -0.16699914208E+03  0.16931230713E+03  0.00000000000E+00 0. -1.
         11    1    5    5    0    0 -0.19401212766E+02  0.21308574648E+02  0.91260571891E+02  0.95702426260E+02  0.00000000000E+00 0. -1.
        -12    1    5    5    0    0  0.44278943771E+02 -0.34466438636E+02  0.12693779581E+03  0.13878675822E+03  0.00000000000E+00 0.  1.
          5    1    4    4  501    0 -0.94406910906E+02  0.11069413381E+03  0.31741480632E+02  0.14896593597E+03  0.41800000000E+01 0. -1.
         -5    1    4    4    0  501  0.44211336962E+01 -0.27597937629E+02  0.16124421990E+02  0.32537086056E+02  0.41800000000E+01 0. -1.
</event>
<event>
11    1  0.8453735E-009  0.1316613E+03  0.7561462E-02  0.1117244E+00
         22   -1    0    0    0    0  0.00000000000E+00  0.00000000000E+00  0.13985300115E+03  0.13985300115E+03  0.00000000000E+00 0.  1.
         22   -1    0    0    0    0 -0.00000000000E+00 -0.00000000000E+00 -0.91550373740E+03  0.91550373740E+03  0.00000000000E+00 0. -1.
         24    2    1    2    0    0  0.36568923118E+02 -0.18279234816E+02 -0.56671562865E+03  0.57362804373E+03  0.78810609906E+02 0.  0.
         25    2    1    2    0    0  0.57525959507E+00 -0.35028120931E+01 -0.31666635628E+03  0.34049551546E+03  0.12508802593E+03 0.  0.
        -24    2    1    2    0    0 -0.37144182713E+02  0.21782046909E+02  0.10773124868E+03  0.14123317935E+03  0.80539686682E+02 0.  0.
        -13    1    3    3    0    0 -0.23054155380E+01  0.56107654473E+01 -0.10876675749E+01  0.61626820834E+01  0.00000000000E+00 0.  1.
         14    1    3    3    0    0  0.38874338656E+02 -0.23890000263E+02 -0.56562796108E+03  0.56746536165E+03  0.00000000000E+00 0. -1.
         11    1    5    5    0    0  0.77596604982E+01 -0.15944737257E+01 -0.10188561533E+02  0.12905869348E+02  0.00000000000E+00 0. -1.
        -12    1    5    5    0    0 -0.44903843211E+02  0.23376520635E+02  0.11791981022E+03  0.12832731001E+03  0.00000000000E+00 0.  1.
          5    1    4    4  501    0 -0.93611821884E+01 -0.19153146663E+02  0.14869380218E+01  0.21775172645E+02  0.41800000000E+01 0.  1.
         -5    1    4    4    0  501  0.99364417835E+01  0.15650334569E+02 -0.31815329430E+03  0.31872034281E+03  0.41800000000E+01 0.  1.
</event>
<event>
11    1  0.8453735E-009  0.1362086E+03  0.7561462E-02  0.1111868E+00
         22   -1    0    0    0    0  0.00000000000E+00  0.00000000000E+00  0.67869263052E+03  0.67869263052E+03  0.00000000000E+00 0. -1.
         22   -1    0    0    0    0 -0.00000000000E+00 -0.00000000000E+00 -0.41441176551E+03  0.41441176551E+03  0.00000000000E+00 0. -1.
        -24    2    1    2    0    0  0.19132225081E+01 -0.55259867965E+02 -0.29149663034E+03  0.30733381854E+03  0.80165311000E+02 0.  0.
         25    2    1    2    0    0  0.18569073489E+02  0.47000098998E+02 -0.72054747728E+02  0.15293918114E+03  0.12507872186E+03 0.  0.
         24    2    1    2    0    0 -0.20482295997E+02  0.82597689666E+01  0.62783224308E+03  0.63283139636E+03  0.76252885402E+02 0.  0.
        -13    1    5    5    0    0 -0.20370995724E+02  0.24225822325E+02  0.59930238980E+03  0.60013766950E+03  0.00000000000E+00 0.  1.
         14    1    5    5    0    0 -0.11130027240E+00 -0.15966053358E+02  0.28529853280E+02  0.32693726856E+02  0.00000000000E+00 0. -1.
         13    1    3    3    0    0 -0.11448720284E+02 -0.42366080773E+02 -0.28389913656E+03  0.28727108754E+03  0.00000000000E+00 0. -1.
        -14    1    3    3    0    0  0.13361942792E+02 -0.12893787191E+02 -0.75974937814E+01  0.20062730997E+02  0.00000000000E+00 0.  1.
          5    1    4    4  501    0 -0.33923033701E+02  0.51347146576E+02  0.22966371595E+01  0.61725591283E+02  0.41800000000E+01 0. -1.
         -5    1    4    4    0  501  0.52492107190E+02 -0.43470475780E+01 -0.74351384888E+02  0.91213589857E+02  0.41800000000E+01 0. -1.
</event>
<event>
11    1  0.8453735E-009  0.1691160E+03  0.7561462E-02  0.1078804E+00
         22   -1    0    0    0    0  0.00000000000E+00  0.00000000000E+00  0.29108049448E+03  0.29108049448E+03  0.00000000000E+00 0. -1.
         22   -1    0    0    0    0 -0.00000000000E+00 -0.00000000000E+00 -0.48762396834E+03  0.48762396834E+03  0.00000000000E+00 0. -1.
         24    2    1    2    0    0  0.39975641363E+02  0.11279469915E+02 -0.12626353924E+03  0.15443254552E+03  0.78623478875E+02 0.  0.
         25    2    1    2    0    0 -0.10399256825E+03  0.81905066422E+02 -0.30293730571E+03  0.35347102841E+03  0.12509141689E+03 0.  0.
        -24    2    1    2    0    0  0.64016926888E+02 -0.93184536337E+02  0.23265737109E+03  0.27080088889E+03  0.80138282724E+02 0.  0.
        -11    1    3    3    0    0  0.17204230449E+02  0.43007437193E+02 -0.46568806255E+02  0.65683170715E+02  0.00000000000E+00 0.  1.
         12    1    3    3    0    0  0.22771410914E+02 -0.31727967278E+02 -0.79694732989E+02  0.88749374808E+02  0.00000000000E+00 0. -1.
         11    1    5    5    0    0  0.54415759229E+02 -0.98804342744E+02  0.23382951050E+03  0.25961435434E+03  0.00000000000E+00 0. -1.
        -12    1    5    5    0    0  0.96011676590E+01  0.56198064072E+01 -0.11721394058E+01  0.11186534551E+02  0.00000000000E+00 0.  1.
          5    1    4    4  501    0 -0.97657797444E+01 -0.31673940498E+02 -0.42034400305E+02  0.53693315875E+02  0.41800000000E+01 0. -1.
         -5    1    4    4    0  501 -0.94226788506E+02  0.11357900692E+03 -0.26090290540E+03  0.29977771253E+03  0.41800000000E+01 0. -1.
</event>
<event>
11    1  0.8453735E-009  0.2032894E+03  0.7561462E-02  0.1052222E+00
         22   -1    0    0    0    0  0.00000000000E+00  0.00000000000E+00  0.10240617329E+04  0.10240617329E+04  0.00000000000E+00 0.  1.
         22   -1    0    0    0    0 -0.00000000000E+00 -0.00000000000E+00 -0.93655827908E+02  0.93655827908E+02  0.00000000000E+00 0. -1.
        -24    2    1    2    0    0  0.10770048772E+03  0.11277287320E+03  0.60644566615E+02  0.18526365521E+03  0.79547108667E+02 0.  0.
         25    2    1    2    0    0 -0.14780080802E+03 -0.10077065297E+03  0.41982390360E+03  0.47317986614E+03  0.12508905761E+03 0.  0.
         24    2    1    2    0    0  0.40100320303E+02 -0.12002220231E+02  0.44993743476E+03  0.45927403944E+03  0.82078371861E+02 0.  0.
        -13    1    5    5    0    0  0.47316950115E+02 -0.90257786250E+01  0.44880893566E+03  0.45138655184E+03  0.00000000000E+00 0.  1.
         14    1    5    5    0    0 -0.72166298113E+01 -0.29764416063E+01  0.11284990945E+01  0.78874876022E+01  0.00000000000E+00 0. -1.
         11    1    3    3    0    0  0.85551705246E+02  0.12357957488E+03  0.49797488734E+02  0.15833759971E+03  0.00000000000E+00 0. -1.
        -12    1    3    3    0    0  0.22148782472E+02 -0.10806701679E+02  0.10847077881E+02  0.26926055499E+02  0.00000000000E+00 0.  1.
          5    1    4    4  501    0 -0.43051134787E+02 -0.68266273584E+02  0.29996197471E+03  0.31065791956E+03  0.41800000000E+01 0.  1.
         -5    1    4    4    0  501 -0.10474967323E+03 -0.32504379386E+02  0.11986192890E+03  0.16252194658E+03  0.41800000000E+01 0.  1.
</event>
<event>
11    1  0.1107050E-008  0.1405734E+03  0.7561462E-02  0.1106920E+00
         22   -1    0    0    0    0  0.00000000000E+00  0.00000000000E+00  0.58167797572E+03  0.58167797572E+03  0.00000000000E+00 0.  1.
         22   -1    0    0    0    0 -0.00000000000E+00 -0.00000000000E+00 -0.51154855882E+03  0.51154855882E+03  0.00000000000E+00 0.  1.
        -24    2    1    2    0    0  0.46866939033E+02  0.41976464222E+02 -0.33010401890E+03  0.34546008529E+03  0.80096652337E+02 0.  0.
         25    2    1    2    0    0  0.17356603075E+02 -0.53592813205E+02 -0.14099155816E+03  0.19670522830E+03  0.12506352813E+03 0.  0.
         24    2    1    2    0    0 -0.64223542109E+02  0.11616348982E+02  0.54122499396E+03  0.55106122095E+03  0.80525599847E+02 0.  0.
        -11    1    5    5    0    0 -0.57492657754E+02  0.40870095594E+02  0.43476167914E+03  0.44044691855E+03  0.00000000000E+00 0.  1.
         12    1    5    5    0    0 -0.67308843550E+01 -0.29253746612E+02  0.10646331482E+03  0.11061430241E+03  0.00000000000E+00 0. -1.
         11    1    3    3    0    0  0.11817151413E+02  0.17151903547E+02 -0.11146382772E+02  0.23623604968E+02  0.00000000000E+00 0. -1.
        -12    1    3    3    0    0  0.35049787620E+02  0.24824560675E+02 -0.31895763613E+03  0.32183648033E+03  0.00000000000E+00 0.  1.
          5    1    4    4  501    0  0.21503117245E+02  0.37915013124E+02 -0.31794659023E+02  0.54113815369E+02  0.41800000000E+01 0.  1.
         -5    1    4    4    0  501 -0.41465141694E+01 -0.91507826328E+02 -0.10919689914E+03  0.14259141293E+03  0.41800000000E+01 0.  1.
</event>
<event>
11    1  0.8453735E-009  0.1392654E+03  0.7561462E-02  0.1108381E+00
         22   -1    0    0    0    0  0.00000000000E+00  0.00000000000E+00  0.22950008773E+04  0.22950008773E+04  0.00000000000E+00 0.  1.
         22   -1    0    0    0    0 -0.00000000000E+00 -0.00000000000E+00 -0.53539329066E+03  0.53539329066E+03  0.00000000000E+00 0.  1.
        -24    2    1    2    0    0  0.85188562249E+01 -0.31698930360E+02 -0.51876079079E+03  0.52558395642E+03  0.77771100603E+02 0.  0.
         25    2    1    2    0    0 -0.29616653530E+02  0.85508974506E+02  0.49154606397E+03  0.51522284116E+03  0.12509241449E+03 0.  0.
         24    2    1    2    0    0  0.21097797306E+02 -0.53810044145E+02  0.17868223135E+04  0.17895873704E+04  0.80921804650E+02 0.  0.
        -11    1    5    5    0    0 -0.72792168018E+01 -0.52764736908E+02  0.58246962122E+03  0.58489996076E+03  0.00000000000E+00 0.  1.
         12    1    5    5    0    0  0.28377014107E+02 -0.10453072378E+01  0.12043526923E+04  0.12046874097E+04  0.00000000000E+00 0. -1.
         13    1    3    3    0    0 -0.10991909429E+02 -0.24148035211E+02 -0.52214161027E+02  0.58568492291E+02  0.00000000000E+00 0. -1.
        -14    1    3    3    0    0  0.19510765653E+02 -0.75508951491E+01 -0.46654662976E+03  0.46701546413E+03  0.00000000000E+00 0.  1.
          5    1    4    4  501    0 -0.47443831259E+02  0.93702964054E+02  0.22968153650E+03  0.25259105923E+03  0.41800000000E+01 0.  1.
         -5    1    4    4    0  501  0.17827177728E+02 -0.81939895487E+01  0.26186452747E+03  0.26263178193E+03  0.41800000000E+01 0.  1.
</event>
<event>
11    1  0.8453735E-009  0.2160948E+03  0.7561462E-02  0.1043692E+00
         22   -1    0    0    0    0  0.00000000000E+00  0.00000000000E+00  0.39072320468E+03  0.39072320468E+03  0.00000000000E+00 0.  1.
         22   -1    0    0    0    0 -0.00000000000E+00 -0.00000000000E+00 -0.60442825898E+03  0.60442825898E+03  0.00000000000E+00 0. -1.
         24    2    1    2    0    0  0.67444728478E+02  0.25682681704E+02 -0.12743516453E+03  0.16697383896E+03  0.80200687033E+02 0.  0.
         25    2    1    2    0    0 -0.23959466221E+03 -0.21496530696E+02 -0.38709547679E+03  0.47260820793E+03  0.12509159469E+03 0.  0.
        -24    2    1    2    0    0  0.17214993373E+03 -0.41861510073E+01  0.30082558702E+03  0.35556941676E+03  0.79249307794E+02 0.  0.
        -11    1    3    3    0    0 -0.17470194990E+02 -0.30319955891E+01 -0.15344697724E+02  0.23449103575E+02  0.00000000000E+00 0.  1.
         12    1    3    3    0    0  0.84914923468E+02  0.28714677293E+02 -0.11209046680E+03  0.14352473539E+03  0.00000000000E+00 0. -1.
         11    1    5    5    0    0  0.82015865226E+02 -0.14178255105E+02  0.74320820223E+02  0.11158498728E+03  0.00000000000E+00 0. -1.
        -12    1    5    5    0    0  0.90134068505E+02  0.99921040981E+01  0.22650476680E+03  0.24398442949E+03  0.00000000000E+00 0.  1.
          5    1    4    4  501    0 -0.14838463020E+03 -0.73779973085E+02 -0.22897657269E+03  0.28268219992E+03  0.41800000000E+01 0.  1.
         -5    1    4    4    0  501 -0.91210032007E+02  0.52283442389E+02 -0.15811890410E+03  0.18992600802E+03  0.41800000000E+01 0.  1.
</event>
<event>
11    1  0.8453735E-009  0.1344644E+03  0.7561462E-02  0.1113902E+00
         22   -1    0    0    0    0  0.00000000000E+00  0.00000000000E+00  0.26292006722E+03  0.26292006722E+03  0.00000000000E+00 0. -1.
         22   -1    0    0    0    0 -0.00000000000E+00 -0.00000000000E+00 -0.10015936033E+04  0.10015936033E+04  0.00000000000E+00 0. -1.
        -24    2    1    2    0    0 -0.44982575651E+02  0.23810120876E+02 -0.81758193199E+03  0.82324459897E+03  0.81860248265E+02 0.  0.
         25    2    1    2    0    0  0.32339948336E+02 -0.16133489777E+02 -0.14987798895E+03  0.19853009648E+03  0.12507847891E+03 0.  0.
         24    2    1    2    0    0  0.12642627315E+02 -0.76766310994E+01  0.22878638488E+03  0.24273897504E+03  0.79751071499E+02 0.  0.
        -11    1    5    5    0    0  0.14385694343E+02 -0.16216970066E+02  0.10163374932E+02  0.23942274534E+02  0.00000000000E+00 0.  1.
         12    1    5    5    0    0 -0.17430670278E+01  0.85403389667E+01  0.21862300995E+03  0.21879670051E+03  0.00000000000E+00 0. -1.
         13    1    3    3    0    0 -0.58085183818E+02  0.10998468924E+02 -0.76983909636E+03  0.77210562048E+03  0.00000000000E+00 0. -1.
        -14    1    3    3    0    0  0.13102608167E+02  0.12811651953E+02 -0.47742835634E+02  0.51138978489E+02  0.00000000000E+00 0.  1.
          5    1    4    4  501    0 -0.33720288329E+02 -0.40453941165E+02 -0.33822917773E+02  0.62729908077E+02  0.41800000000E+01 0.  1.
         -5    1    4    4    0  501  0.66060236665E+02  0.24320451388E+02 -0.11605507117E+03  0.13580018840E+03  0.41800000000E+01 0.  1.
</event>
<event>
11    1  0.8453735E-009  0.1281626E+03  0.7561462E-02  0.1121547E+00
         22   -1    0    0    0    0  0.00000000000E+00  0.00000000000E+00  0.30558756045E+03  0.30558756045E+03  0.00000000000E+00 0.  1.
         22   -1    0    0    0    0 -0.00000000000E+00 -0.00000000000E+00 -0.16760044877E+03  0.16760044877E+03  0.00000000000E+00 0.  1.
        -24    2    1    2    0    0  0.18997327419E+02 -0.26900847479E+02 -0.96763181371E+02  0.13000228474E+03  0.80330110946E+02 0.  0.
         25    2    1    2    0    0  0.14438976740E+01  0.31569677950E+01  0.40614248583E+02  0.13156493798E+03  0.12509102458E+03 0.  0.
         24    2    1    2    0    0 -0.20441225093E+02  0.23743879684E+02  0.19413604447E+03  0.21162078650E+03  0.78185280016E+02 0.  0.
        -11    1    5    5    0    0 -0.13986107887E+02  0.27966123955E+02  0.19968533851E+03  0.20211865258E+03  0.00000000000E+00 0.  1.
         12    1    5    5    0    0 -0.64551172057E+01 -0.42222442710E+01 -0.55492940394E+01  0.95021339266E+01  0.00000000000E+00 0. -1.
         11    1    3    3    0    0  0.36654668899E+02  0.15551948527E+02 -0.35065863458E+02  0.53056975368E+02  0.00000000000E+00 0. -1.
        -12    1    3    3    0    0 -0.17657341480E+02 -0.42452796006E+02 -0.61697317913E+02  0.76945309373E+02  0.00000000000E+00 0.  1.
          5    1    4    4  501    0 -0.10366690164E+02 -0.59293483834E+02  0.28492880967E+02  0.66727072136E+02  0.41800000000E+01 0.  1.
         -5    1    4    4    0  501  0.11810587838E+02  0.62450451629E+02  0.12121367616E+02  0.64837865839E+02  0.41800000000E+01 0.  1.
</event>
<event>
11    1  0.8453735E-009  0.1830153E+03  0.7561462E-02  0.1067230E+00
         22   -1    0    0    0    0  0.00000000000E+00  0.00000000000E+00  0.18462561473E+03  0.18462561473E+03  0.00000000000E+00 0.  1.
         22   -1    0    0    0    0 -0.00000000000E+00 -0.00000000000E+00 -0.12336307286E+04  0.12336307286E+04  0.00000000000E+00 0.  1.
        -24    2    1    2    0    0  0.15243440838E+02  0.16019674581E+02 -0.88832035586E+03  0.89225254885E+03  0.80700457426E+02 0.  0.
         25    2    1    2    0    0  0.57437347900E+02  0.99042597925E+02 -0.28005797393E+03  0.32739621093E+03  0.12508926825E+03 0.  0.
         24    2    1    2    0    0 -0.72680788737E+02 -0.11506227251E+03  0.11937321597E+03  0.19860758351E+03  0.81689558290E+02 0.  0.
        -13    1    5    5    0    0 -0.70121827095E+02 -0.38747489509E+02  0.44399243267E+02  0.91595476859E+02  0.00000000000E+00 0.  1.
         14    1    5    5    0    0 -0.25589616428E+01 -0.76314782997E+02  0.74973972699E+02  0.10701210666E+03  0.00000000000E+00 0. -1.
         11    1    3    3    0    0 -0.26426148414E+02  0.14984913789E+02 -0.16781879729E+03  0.17054629191E+03  0.00000000000E+00 0. -1.
        -12    1    3    3    0    0  0.41669589252E+02  0.10347607918E+01 -0.72050155857E+03  0.72170625693E+03  0.00000000000E+00 0.  1.
          5    1    4    4  501    0 -0.84839070657E+01  0.85866352691E+02 -0.85641048007E+02  0.12164238039E+03  0.41800000000E+01 0.  1.
         -5    1    4    4    0  501  0.65921254965E+02  0.13176245234E+02 -0.19441692593E+03  0.20575383054E+03  0.41800000000E+01 0.  1.
</event>
<event>
11    1  0.8453735E-009  0.1453225E+03  0.7561462E-02  0.1101756E+00
         22   -1    0    0    0    0  0.00000000000E+00  0.00000000000E+00  0.32436333254E+04  0.32436333254E+04  0.00000000000E+00 0.  1.
         22   -1    0    0    0    0 -0.00000000000E+00 -0.00000000000E+00 -0.57673198493E+03  0.57673198493E+03  0.00000000000E+00 0. -1.
         24    2    1    2    0    0 -0.27908308002E+02  0.17364373593E+00 -0.40688803863E+03  0.41965648588E+03  0.98867519204E+02 0.  0.
         25    2    1    2    0    0  0.94646388648E+02  0.31374617686E+02 -0.12316896630E+03  0.20189388097E+03  0.12509292305E+03 0.  0.
        -24    2    1    2    0    0 -0.66738080646E+02 -0.31548261422E+02  0.31969583454E+04  0.31988149435E+04  0.80156822378E+02 0.  0.
        -13    1    3    3    0    0  0.36205447897E+02 -0.10567153608E+02 -0.14689286496E+03  0.15165755164E+03  0.00000000000E+00 0.  1.
         14    1    3    3    0    0 -0.64113755899E+02  0.10740797344E+02 -0.25999517367E+03  0.26799893424E+03  0.00000000000E+00 0. -1.
         13    1    5    5    0    0 -0.36188936705E+02  0.23699302646E+02  0.97369527819E+03  0.97465572940E+03  0.00000000000E+00 0. -1.
        -14    1    5    5    0    0 -0.30549143940E+02 -0.55247564068E+02  0.22232630672E+04  0.22241592141E+04  0.00000000000E+00 0.  1.
          5    1    4    4  501    0  0.12282898703E+03  0.81295804434E+01 -0.93156757115E+02  0.15443025587E+03  0.41800000000E+01 0.  1.
         -5    1    4    4    0  501 -0.28182598379E+02  0.23245037243E+02 -0.30012209182E+02  0.47463625102E+02  0.41800000000E+01 0.  1.
</event>
<event>
11    1  0.8453735E-009  0.1415787E+03  0.7561462E-02  0.1105808E+00
         22   -1    0    0    0    0  0.00000000000E+00  0.00000000000E+00  0.17402960308E+03  0.17402960308E+03  0.00000000000E+00 0. -1.
         22   -1    0    0    0    0 -0.00000000000E+00 -0.00000000000E+00 -0.17056863458E+04  0.17056863458E+04  0.00000000000E+00 0. -1.
         24    2    1    2    0    0 -0.45772783551E+02  0.40601956164E+02 -0.84492049701E+03  0.85073366980E+03  0.78188644273E+02 0.  0.
         25    2    1    2    0    0  0.26861698760E+02 -0.81346639671E+02 -0.83843733364E+03  0.85203490149E+03  0.12508990476E+03 0.  0.
        -24    2    1    2    0    0  0.18911084791E+02  0.40744683507E+02  0.15170108798E+03  0.17694737754E+03  0.79242639800E+02 0.  0.
        -13    1    3    3    0    0 -0.58711218716E+02  0.17925894629E+02 -0.36683316890E+03  0.37193402467E+03  0.00000000000E+00 0.  1.
         14    1    3    3    0    0  0.12938435165E+02  0.22676061535E+02 -0.47808732811E+03  0.47879964513E+03  0.00000000000E+00 0. -1.
         13    1    5    5    0    0  0.17351464077E+02  0.62999518399E+02  0.13154459011E+03  0.14688087626E+03  0.00000000000E+00 0. -1.
        -14    1    5    5    0    0  0.15596207135E+01 -0.22254834892E+02  0.20156497872E+02  0.30066501281E+02  0.00000000000E+00 0.  1.
          5    1    4    4  501    0  0.54559069906E+02 -0.96630621087E+02 -0.74656721207E+03  0.75478092423E+03  0.41800000000E+01 0. -1.
         -5    1    4    4    0  501 -0.27697371146E+02  0.15283981416E+02 -0.91870121573E+02  0.97253977266E+02  0.41800000000E+01 0. -1.
</event>
<event>
11    1  0.8453735E-009  0.1386912E+03  0.7561462E-02  0.1109029E+00
         22   -1    0    0    0    0  0.00000000000E+00  0.00000000000E+00  0.83475627597E+03  0.83475627597E+03  0.00000000000E+00 0.  1.
         22   -1    0    0    0    0 -0.00000000000E+00 -0.00000000000E+00 -0.15826486428E+03  0.15826486428E+03  0.00000000000E+00 0. -1.
        -24    2    1    2    0    0  0.50499749526E+02  0.49763249429E+02 -0.46707902716E+02  0.12468509917E+03  0.91313416773E+02 0.  0.
         25    2    1    2    0    0 -0.53618023215E+02  0.29621830666E+01 -0.26226227469E+01  0.13615627798E+03  0.12509191397E+03 0.  0.
         24    2    1    2    0    0  0.31182736889E+01 -0.52725432496E+02  0.72582193716E+03  0.73217976310E+03  0.80498609753E+02 0.  0.
        -13    1    5    5    0    0  0.10360866039E+02 -0.63768749595E+02  0.70179633938E+03  0.70476372135E+03  0.00000000000E+00 0.  1.
         14    1    5    5    0    0 -0.72425923504E+01  0.11043317099E+02  0.24025597782E+02  0.27416041751E+02  0.00000000000E+00 0. -1.
         13    1    3    3    0    0 -0.33048962618E+01 -0.51216046558E+01 -0.47432766429E+02  0.47822803187E+02  0.00000000000E+00 0. -1.
        -14    1    3    3    0    0  0.53804645788E+02  0.54884854085E+02  0.72486371332E+00  0.76862295982E+02  0.00000000000E+00 0.  1.
          5    1    4    4  501    0 -0.16407520010E+02  0.62963046126E+02  0.24727747922E+01  0.65246753984E+02  0.41800000000E+01 0. -1.
         -5    1    4    4    0  501 -0.37210503204E+02 -0.60000863059E+02 -0.50953975392E+01  0.70909523991E+02  0.41800000000E+01 0. -1.
</event>
<event>
11    1  0.8453735E-009  0.3353122E+03  0.7561462E-02  0.9862631E-01
         22   -1    0    0    0    0  0.00000000000E+00  0.00000000000E+00  0.11424793869E+04  0.11424793869E+04  0.00000000000E+00 0. -1.
         22   -1    0    0    0    0 -0.00000000000E+00 -0.00000000000E+00 -0.48157433457E+03  0.48157433457E+03  0.00000000000E+00 0. -1.
        -24    2    1    2    0    0  0.67451788839E+02  0.12031444386E+02 -0.10047516390E+03  0.14560999074E+03  0.80078157879E+02 0.  0.
         25    2    1    2    0    0  0.24493945476E+03 -0.57222748066E+02 -0.27433713678E+03  0.39265538756E+03  0.12509040478E+03 0.  0.
         24    2    1    2    0    0 -0.31239124360E+03  0.45191303680E+02  0.10357173530E+04  0.10857883432E+04  0.81211746912E+02 0.  0.
        -11    1    5    5    0    0 -0.18819143108E+03 -0.32272954089E+01  0.69157001311E+03  0.71672554943E+03  0.00000000000E+00 0.  1.
         12    1    5    5    0    0 -0.12419981252E+03  0.48418599089E+02  0.34414733993E+03  0.36906279378E+03  0.00000000000E+00 0. -1.
         13    1    3    3    0    0  0.69399493686E+01 -0.93096544311E+01 -0.76084964825E+02  0.76965930354E+02  0.00000000000E+00 0. -1.
        -14    1    3    3    0    0  0.60511839470E+02  0.21341098817E+02 -0.24390199080E+02  0.68644060384E+02  0.00000000000E+00 0.  1.
          5    1    4    4  501    0  0.20033208725E+03 -0.94081605240E+02 -0.23320700907E+03  0.32153891694E+03  0.41800000000E+01 0. -1.
         -5    1    4    4    0  501  0.44607367506E+02  0.36858857174E+02 -0.41130127713E+02  0.71116470622E+02  0.41800000000E+01 0. -1.
</event>
<event>
11    1  0.8453735E-009  0.1629845E+03  0.7561462E-02  0.1084303E+00
         22   -1    0    0    0    0  0.00000000000E+00  0.00000000000E+00  0.15383509889E+04  0.15383509889E+04  0.00000000000E+00 0.  1.
         22   -1    0    0    0    0 -0.00000000000E+00 -0.00000000000E+00 -0.12334615572E+04  0.12334615572E+04  0.00000000000E+00 0. -1.
         24    2    1    2    0    0 -0.23307910427E+02 -0.80500015018E+02 -0.11795926895E+04  0.11852995409E+04  0.80452330204E+02 0.  0.
         25    2    1    2    0    0 -0.27638365866E+02  0.16753978649E+03  0.18445262505E+03  0.28018474015E+03  0.12508900191E+03 0.  0.
        -24    2    1    2    0    0  0.50946276293E+02 -0.87039771475E+02  0.13000294962E+04  0.13063282650E+04  0.79027843948E+02 0.  0.
        -13    1    3    3    0    0 -0.34801497892E+02 -0.96861075508E+01 -0.21241714591E+03  0.21546695526E+03  0.00000000000E+00 0.  1.
         14    1    3    3    0    0  0.11493587465E+02 -0.70813907467E+02 -0.96717554363E+03  0.96983258567E+03  0.00000000000E+00 0. -1.
         13    1    5    5    0    0 -0.19753069711E+02 -0.24073558472E+02  0.44083309475E+03  0.44193159811E+03  0.00000000000E+00 0. -1.
        -14    1    5    5    0    0  0.70699346004E+02 -0.62966213003E+02  0.85919640141E+03  0.86439666687E+03  0.00000000000E+00 0.  1.
          5    1    4    4  501    0 -0.45866433197E+02  0.55191938196E+02  0.11057787102E+02  0.72729820512E+02  0.41800000000E+01 0. -1.
         -5    1    4    4    0  501  0.18228067331E+02  0.11234784830E+03  0.17339483795E+03  0.20745491964E+03  0.41800000000E+01 0. -1.
</event>
<event>
11    1  0.8453735E-009  0.1445287E+03  0.7561462E-02  0.1102604E+00
         22   -1    0    0    0    0  0.00000000000E+00  0.00000000000E+00  0.57588710241E+03  0.57588710241E+03  0.00000000000E+00 0. -1.
         22   -1    0    0    0    0 -0.00000000000E+00 -0.00000000000E+00 -0.18098086345E+04  0.18098086345E+04  0.00000000000E+00 0.  1.
        -24    2    1    2    0    0  0.17325918363E+02  0.76121900486E+02 -0.16140547753E+04  0.16179149890E+04  0.79883433510E+02 0.  0.
         25    2    1    2    0    0 -0.12180418551E+02 -0.81598253820E+01 -0.16802720957E+03  0.20998949129E+03  0.12508995942E+03 0.  0.
         24    2    1    2    0    0 -0.51454998119E+01 -0.67962075104E+02  0.54816045280E+03  0.55779125656E+03  0.77497639092E+02 0.  0.
        -13    1    5    5    0    0  0.22118636684E+02  0.58375953166E+01  0.86436210149E+02  0.89412135825E+02  0.00000000000E+00 0.  1.
         14    1    5    5    0    0 -0.27264136495E+02 -0.73799670421E+02  0.46172424265E+03  0.46837912074E+03  0.00000000000E+00 0. -1.
         13    1    3    3    0    0  0.12601837634E+01 -0.45758332557E+01 -0.55315254154E+01  0.72886272043E+01  0.00000000000E+00 0. -1.
        -14    1    3    3    0    0  0.16065734599E+02  0.80697733742E+02 -0.16085232499E+04  0.16106263618E+04  0.00000000000E+00 0.  1.
          5    1    4    4  501    0  0.21609635071E+02 -0.40001273581E+02 -0.15500324875E+03  0.16158761630E+03  0.41800000000E+01 0. -1.
         -5    1    4    4    0  501 -0.33790053622E+02  0.31841448199E+02 -0.13023960820E+02  0.48401874991E+02  0.41800000000E+01 0. -1.
</event>
<event>
11    1  0.8453735E-009  0.2457905E+03  0.7561462E-02  0.1026166E+00
         22   -1    0    0    0    0  0.00000000000E+00  0.00000000000E+00  0.64280323297E+03  0.64280323297E+03  0.00000000000E+00 0. -1.
         22   -1    0    0    0    0 -0.00000000000E+00 -0.00000000000E+00 -0.13716545517E+04  0.13716545517E+04  0.00000000000E+00 0. -1.
         24    2    1    2    0    0  0.49820478934E+02 -0.20691254978E+03 -0.10210374278E+04  0.10456351393E+04  0.74434751545E+02 0.  0.
         25    2    1    2    0    0 -0.14975429070E+03  0.17100361852E+03 -0.27976974413E+03  0.38155573600E+03  0.12508031343E+03 0.  0.
        -24    2    1    2    0    0  0.99933811770E+02  0.35908931261E+02  0.57195585323E+03  0.58726690933E+03  0.80453133348E+02 0.  0.
        -11    1    3    3    0    0  0.19114751917E+02 -0.13425213682E+03 -0.47672859483E+03  0.49564015486E+03  0.00000000000E+00 0.  1.
         12    1    3    3    0    0  0.30705727017E+02 -0.72660412964E+02 -0.54430883298E+03  0.54999498447E+03  0.00000000000E+00 0. -1.
         11    1    5    5    0    0  0.10239713330E+03  0.29373160831E+02  0.57019933203E+03  0.58006485304E+03  0.00000000000E+00 0. -1.
        -12    1    5    5    0    0 -0.24633215263E+01  0.65357704304E+01  0.17565212039E+01  0.72020562897E+01  0.00000000000E+00 0.  1.
          5    1    4    4  501    0 -0.41036623045E+01  0.45943153767E+02 -0.13009292060E+03  0.13809146900E+03  0.41800000000E+01 0.  1.
         -5    1    4    4    0  501 -0.14565062840E+03  0.12506046476E+03 -0.14967682354E+03  0.24346426699E+03  0.41800000000E+01 0.  1.
</event>
<event>
11    1  0.8453735E-009  0.2483829E+03  0.7561462E-02  0.1024764E+00
         22   -1    0    0    0    0  0.00000000000E+00  0.00000000000E+00  0.14267046118E+04  0.14267046118E+04  0.00000000000E+00 0.  1.
         22   -1    0    0    0    0 -0.00000000000E+00 -0.00000000000E+00 -0.74101101949E+03  0.74101101949E+03  0.00000000000E+00 0. -1.
        -24    2    1    2    0    0 -0.15691374017E+03 -0.14469155325E+03 -0.66709898532E+03  0.70504244352E+03  0.80661164816E+02 0.  0.
         25    2    1    2    0    0  0.19890211869E+03  0.13091471924E+03  0.28784702567E+03  0.39395839525E+03  0.12508633203E+03 0.  0.
         24    2    1    2    0    0 -0.41988378525E+02  0.13776834001E+02  0.10649455520E+04  0.10687147925E+04  0.78034954118E+02 0.  0.
        -11    1    5    5    0    0 -0.18774139080E+02  0.13575058312E+02  0.98966109527E+03  0.98993223707E+03  0.00000000000E+00 0.  1.
         12    1    5    5    0    0 -0.23214239445E+02  0.20177568856E+00  0.75284456690E+02  0.78782555464E+02  0.00000000000E+00 0. -1.
         11    1    3    3    0    0 -0.69235643062E+02 -0.65677201798E+02 -0.42658207539E+03  0.43712622450E+03  0.00000000000E+00 0. -1.
        -12    1    3    3    0    0 -0.87678097104E+02 -0.79014351447E+02 -0.24051690993E+03  0.26791621901E+03  0.00000000000E+00 0.  1.
          5    1    4    4  501    0  0.19482782618E+03  0.15133363810E+03  0.25486017553E+03  0.35472656137E+03  0.41800000000E+01 0. -1.
         -5    1    4    4    0  501  0.40742925151E+01 -0.20418918852E+02  0.32986850147E+02  0.39231833875E+02  0.41800000000E+01 0. -1.
</event>
<event>
11    1  0.8453735E-009  0.1148704E+04  0.7561462E-02  0.8549161E-01
         22   -1    0    0    0    0  0.00000000000E+00  0.00000000000E+00  0.11727942356E+03  0.11727942356E+03  0.00000000000E+00 0. -1.
         22   -1    0    0    0    0 -0.00000000000E+00 -0.00000000000E+00 -0.28127714627E+04  0.28127714627E+04  0.00000000000E+00 0. -1.
        -24    2    1    2    0    0  0.15946317001E+03 -0.28351470610E+03 -0.14012716238E+04  0.14407633441E+04  0.80173304258E+02 0.  0.
         25    2    1    2    0    0 -0.32352140611E+03  0.37161479900E+03 -0.74978057501E+03  0.90586006965E+03  0.12509155080E+03 0.  0.
         24    2    1    2    0    0  0.16405823609E+03 -0.88100092904E+02 -0.54443984031E+03  0.58342747254E+03  0.96416517285E+02 0.  0.
        -13    1    5    5    0    0  0.12168243850E+02 -0.51295807239E+02 -0.11762299033E+03  0.12889722205E+03  0.00000000000E+00 0.  1.
         14    1    5    5    0    0  0.15188999224E+03 -0.36804285664E+02 -0.42681684998E+03  0.45453025049E+03  0.00000000000E+00 0. -1.
         13    1    3    3    0    0  0.78278827625E+02 -0.19125762039E+03 -0.99848056898E+03  0.10196423387E+04  0.00000000000E+00 0. -1.
        -14    1    3    3    0    0  0.81184342386E+02 -0.92257085712E+02 -0.40279105483E+03  0.42112100537E+03  0.00000000000E+00 0.  1.
          5    1    4    4  501    0 -0.19478492224E+03  0.18302257855E+03 -0.30277105368E+03  0.40388886285E+03  0.41800000000E+01 0. -1.
         -5    1    4    4    0  501 -0.12873648387E+03  0.18859222045E+03 -0.44700952134E+03  0.50197120680E+03  0.41800000000E+01 0. -1.
</event>
<event>
11    1  0.8453735E-009  0.1494619E+03  0.7561462E-02  0.1097430E+00
         22   -1    0    0    0    0  0.00000000000E+00  0.00000000000E+00  0.22890094695E+04  0.22890094695E+04  0.00000000000E+00 0. -1.
         22   -1    0    0    0    0 -0.00000000000E+00 -0.00000000000E+00 -0.86719228878E+02  0.86719228878E+02  0.00000000000E+00 0.  1.
        -24    2    1    2    0    0 -0.64188580371E+02 -0.49274371301E+02 -0.20099398991E+02  0.11517222854E+03  0.79451361666E+02 0.  0.
         25    2    1    2    0    0  0.89511434188E+02  0.26578403532E+02  0.31975696184E+03  0.35582471017E+03  0.12509197153E+03 0.  0.
         24    2    1    2    0    0 -0.25322853817E+02  0.22695967768E+02  0.19026326777E+04  0.19047317596E+04  0.82677783242E+02 0.  0.
        -11    1    5    5    0    0  0.84523278959E+01 -0.24139740852E+02  0.31025648511E+03  0.31130893898E+03  0.00000000000E+00 0.  1.
         12    1    5    5    0    0 -0.33775181713E+02  0.46835708620E+02  0.15923761926E+04  0.15934228206E+04  0.00000000000E+00 0. -1.
         11    1    3    3    0    0 -0.70971737073E+01  0.64176813350E+00  0.25639220767E+02  0.26611113891E+02  0.00000000000E+00 0. -1.
        -12    1    3    3    0    0 -0.57091406664E+02 -0.49916139434E+02 -0.45738619759E+02  0.88561114651E+02  0.00000000000E+00 0.  1.
          5    1    4    4  501    0  0.53992586880E+02 -0.24868427157E+02  0.26803127431E+03  0.27457580832E+03  0.41800000000E+01 0. -1.
         -5    1    4    4    0  501  0.35518847308E+02  0.51446830689E+02  0.51725687528E+02  0.81248901853E+02  0.41800000000E+01 0. -1.
</event>
<event>
11    1  0.8453735E-009  0.1393940E+03  0.7561462E-02  0.1108237E+00
         22   -1    0    0    0    0  0.00000000000E+00  0.00000000000E+00  0.31488118635E+03  0.31488118635E+03  0.00000000000E+00 0. -1.
         22   -1    0    0    0    0 -0.00000000000E+00 -0.00000000000E+00 -0.29376134821E+03  0.29376134821E+03  0.00000000000E+00 0. -1.
        -24    2    1    2    0    0 -0.35900316721E+01  0.48856521842E+02 -0.15613498729E+03  0.18268885592E+03  0.81223369589E+02 0.  0.
         25    2    1    2    0    0 -0.10483223212E+02  0.15177181456E+02 -0.78859635186E+02  0.14901960442E+03  0.12509098942E+03 0.  0.
         24    2    1    2    0    0  0.14073254884E+02 -0.64033703298E+02  0.25611446061E+03  0.27693407423E+03  0.82459037562E+02 0.  0.
        -13    1    5    5    0    0  0.44771670114E+01  0.19069476671E+02  0.29879621256E+02  0.35727884507E+02  0.00000000000E+00 0.  1.
         14    1    5    5    0    0  0.95960878731E+01 -0.83103179969E+02  0.22623483935E+03  0.24120618972E+03  0.00000000000E+00 0. -1.
         11    1    3    3    0    0  0.17783550434E+02  0.80336716405E+01 -0.12628929996E+03  0.12778803477E+03  0.00000000000E+00 0. -1.
        -12    1    3    3    0    0 -0.21373582107E+02  0.40822850201E+02 -0.29845687327E+02  0.54900821147E+02  0.00000000000E+00 0.  1.
          5    1    4    4  501    0  0.54756669244E+02 -0.47363059740E+01 -0.19399981515E+02  0.58434211758E+02  0.41800000000E+01 0. -1.
         -5    1    4    4    0  501 -0.65239892456E+02  0.19913487430E+02 -0.59459653671E+02  0.90585392663E+02  0.41800000000E+01 0. -1.
</event>
<event>
11    1  0.8453735E-009  0.1842305E+03  0.7561462E-02  0.1066271E+00
         22   -1    0    0    0    0  0.00000000000E+00  0.00000000000E+00  0.24446338232E+04  0.24446338232E+04  0.00000000000E+00 0.  1.
         22   -1    0    0    0    0 -0.00000000000E+00 -0.00000000000E+00 -0.18700377546E+03  0.18700377546E+03  0.00000000000E+00 0.  1.
         24    2    1    2    0    0  0.12804509954E+03  0.39506095594E+02 -0.13064761490E+03  0.20354342109E+03  0.80030281038E+02 0.  0.
         25    2    1    2    0    0 -0.12528320950E+03 -0.12364586913E+03  0.62873069755E+03  0.66478113953E+03  0.12508992727E+03 0.  0.
        -24    2    1    2    0    0 -0.27618900469E+01  0.84139773537E+02  0.17595469651E+04  0.17633130381E+04  0.78614364086E+02 0.  0.
        -13    1    3    3    0    0  0.12475929528E+03  0.30219332436E+02 -0.14001243566E+03  0.18995149895E+03  0.00000000000E+00 0.  1.
         14    1    3    3    0    0  0.32858042576E+01  0.92867631581E+01  0.93648207609E+01  0.13591922140E+02  0.00000000000E+00 0. -1.
         11    1    5    5    0    0  0.20299397399E+01  0.82378043293E+02  0.90328712429E+03  0.90703797692E+03  0.00000000000E+00 0. -1.
        -12    1    5    5    0    0 -0.47918297868E+01  0.17617302447E+01  0.85625984084E+03  0.85627506116E+03  0.00000000000E+00 0.  1.
          5    1    4    4  501    0 -0.84382960090E+02 -0.53030872845E+01  0.18038320705E+03  0.19925907878E+03  0.41800000000E+01 0. -1.
         -5    1    4    4    0  501 -0.40900249405E+02 -0.11834278185E+03  0.44834749050E+03  0.46552206076E+03  0.41800000000E+01 0. -1.
</event>
<event>
11    1  0.8453735E-009  0.2491322E+03  0.7561462E-02  0.1024363E+00
         22   -1    0    0    0    0  0.00000000000E+00  0.00000000000E+00  0.27840920269E+04  0.27840920269E+04  0.00000000000E+00 0. -1.
         22   -1    0    0    0    0 -0.00000000000E+00 -0.00000000000E+00 -0.14085020637E+03  0.14085020637E+03  0.00000000000E+00 0.  1.
         24    2    1    2    0    0  0.20993426602E+02 -0.27436580871E+02 -0.89826764230E+02  0.12565472793E+03  0.80788446875E+02 0.  0.
         25    2    1    2    0    0 -0.17839688609E+03  0.16532927203E+03  0.66403725199E+03  0.71815855223E+03  0.12508803685E+03 0.  0.
        -24    2    1    2    0    0  0.15740345949E+03 -0.13789269116E+03  0.20690313327E+04  0.20811289531E+04  0.80105057059E+02 0.  0.
        -13    1    3    3    0    0  0.39390563256E+02 -0.41904135947E+01 -0.87342475622E+02  0.95905599875E+02  0.00000000000E+00 0.  1.
         14    1    3    3    0    0 -0.18397136654E+02 -0.23246167276E+02 -0.24842886084E+01  0.29749128054E+02  0.00000000000E+00 0. -1.
         13    1    5    5    0    0  0.99721258883E+02 -0.13050593361E+03  0.16324337465E+04  0.16406754904E+04  0.00000000000E+00 0. -1.
        -14    1    5    5    0    0  0.57682200609E+02 -0.73867575503E+01  0.43659758626E+03  0.44045346268E+03  0.00000000000E+00 0.  1.
          5    1    4    4  501    0 -0.16863073158E+03  0.86805502722E+02  0.40414711555E+03  0.44645703303E+03  0.41800000000E+01 0. -1.
         -5    1    4    4    0  501 -0.97661545157E+01  0.78523769304E+02  0.25989013644E+03  0.27170151920E+03  0.41800000000E+01 0. -1.
</event>
<event>
11    1  0.8453735E-009  0.1341307E+03  0.7561462E-02  0.1114295E+00
         22   -1    0    0    0    0  0.00000000000E+00  0.00000000000E+00  0.63497209055E+02  0.63497209055E+02  0.00000000000E+00 0. -1.
         22   -1    0    0    0    0 -0.00000000000E+00 -0.00000000000E+00 -0.66975077031E+03  0.66975077031E+03  0.00000000000E+00 0. -1.
        -24    2    1    2    0    0 -0.32168785528E+02  0.30771221664E+02 -0.37188997897E+03  0.38297001772E+03  0.79888542168E+02 0.  0.
         25    2    1    2    0    0  0.45060796612E+02 -0.42805737039E+02 -0.23016697637E+03  0.26923388971E+03  0.12508894371E+03 0.  0.
         24    2    1    2    0    0 -0.12892011085E+02  0.12034515375E+02 -0.41966059060E+01  0.81044071935E+02  0.78990484139E+02 0.  0.
        -11    1    5    5    0    0  0.43741712205E+01  0.38565299834E+01 -0.40021057552E+02  0.40443679914E+02  0.00000000000E+00 0.  1.
         12    1    5    5    0    0 -0.17266182305E+02  0.81779853916E+01  0.35824451646E+02  0.40600392021E+02  0.00000000000E+00 0. -1.
         13    1    3    3    0    0 -0.52726665401E+02  0.13241326896E+02 -0.15205573211E+03  0.16148182451E+03  0.00000000000E+00 0. -1.
        -14    1    3    3    0    0  0.20557879874E+02  0.17529894768E+02 -0.21983424686E+03  0.22148819321E+03  0.00000000000E+00 0.  1.
          5    1    4    4  501    0 -0.30964578225E+02  0.12648466077E+02 -0.11821434229E+03  0.12292636789E+03  0.41800000000E+01 0. -1.
         -5    1    4    4    0  501  0.76025374837E+02 -0.55454203115E+02 -0.11195263408E+03  0.14630752182E+03  0.41800000000E+01 0. -1.
</event>
<event>
11    1  0.8453735E-009  0.1392842E+03  0.7561462E-02  0.1108360E+00
         22   -1    0    0    0    0  0.00000000000E+00  0.00000000000E+00  0.10218671784E+04  0.10218671784E+04  0.00000000000E+00 0.  1.
         22   -1    0    0    0    0 -0.00000000000E+00 -0.00000000000E+00 -0.28562133122E+03  0.28562133122E+03  0.00000000000E+00 0.  1.
        -24    2    1    2    0    0 -0.21451304444E+02  0.16394701419E+02 -0.11736059695E+03  0.13585188961E+03  0.62875126209E+02 0.  0.
         25    2    1    2    0    0  0.81509442851E+02 -0.26243901750E+02 -0.11962547939E+03  0.19310717116E+03  0.12509033769E+03 0.  0.
         24    2    1    2    0    0 -0.60058138407E+02  0.98492003314E+01  0.97323192352E+03  0.97852944883E+03  0.81458692281E+02 0.  0.
        -13    1    5    5    0    0 -0.67198289910E+02  0.27534966936E+02  0.89748203648E+03  0.90041534326E+03  0.00000000000E+00 0.  1.
         14    1    5    5    0    0  0.71401515033E+01 -0.17685766604E+02  0.75749887040E+02  0.78114105579E+02  0.00000000000E+00 0. -1.
         11    1    3    3    0    0 -0.70508193667E+01 -0.96829373027E+01  0.25922742751E+01  0.12255334123E+02  0.00000000000E+00 0. -1.
        -12    1    3    3    0    0 -0.14400485078E+02  0.26077638721E+02 -0.11995287123E+03  0.12359655549E+03  0.00000000000E+00 0.  1.
          5    1    4    4  501    0  0.10392576130E+03 -0.52139782765E+02 -0.83923164566E+02  0.14345623291E+03  0.41800000000E+01 0. -1.
         -5    1    4    4    0  501 -0.22416318449E+02  0.25895881014E+02 -0.35702314823E+02  0.49650938259E+02  0.41800000000E+01 0. -1.
</event>
<event>
11    1  0.8453735E-009  0.1345543E+03  0.7561462E-02  0.1113796E+00
         22   -1    0    0    0    0  0.00000000000E+00  0.00000000000E+00  0.29730915731E+04  0.29730915731E+04  0.00000000000E+00 0.  1.
         22   -1    0    0    0    0 -0.00000000000E+00 -0.00000000000E+00 -0.38988277418E+02  0.38988277418E+02  0.00000000000E+00 0. -1.
         24    2    1    2    0    0 -0.29793101965E+02 -0.45911152725E+02  0.12642611890E+03  0.15973950307E+03  0.80855936282E+02 0.  0.
         25    2    1    2    0    0  0.51251672744E+02  0.96179385002E+01  0.19206245076E+03  0.23506276285E+03  0.12508908341E+03 0.  0.
        -24    2    1    2    0    0 -0.21458570780E+02  0.36293214225E+02  0.26156147260E+04  0.26172775846E+04  0.83209928351E+02 0.  0.
        -13    1    3    3    0    0 -0.29374448710E+02 -0.38917413686E+02  0.13791632388E+03  0.14628169987E+03  0.00000000000E+00 0.  1.
         14    1    3    3    0    0 -0.41865325506E+00 -0.69937390393E+01 -0.11490204984E+02  0.13457803196E+02  0.00000000000E+00 0. -1.
         13    1    5    5    0    0 -0.40869395802E+01  0.48932536284E+01  0.13650963531E+02  0.15066380174E+02  0.00000000000E+00 0. -1.
        -14    1    5    5    0    0 -0.17371631200E+02  0.31399960596E+02  0.26019637625E+04  0.26022112044E+04  0.00000000000E+00 0.  1.
          5    1    4    4  501    0  0.32372748873E+02  0.42991373666E+02  0.18186613596E+02  0.56960322974E+02  0.41800000000E+01 0. -1.
         -5    1    4    4    0  501  0.18878923872E+02 -0.33373435166E+02  0.17387583716E+03  0.17810243988E+03  0.41800000000E+01 0. -1.
</event>
<event>
11    1  0.8453735E-009  0.1482995E+03  0.7561462E-02  0.1098629E+00
         22   -1    0    0    0    0  0.00000000000E+00  0.00000000000E+00  0.19313718889E+04  0.19313718889E+04  0.00000000000E+00 0. -1.
         22   -1    0    0    0    0 -0.00000000000E+00 -0.00000000000E+00 -0.55924548105E+02  0.55924548105E+02  0.00000000000E+00 0. -1.
        -24    2    1    2    0    0 -0.73296881247E+02  0.16112599713E+02  0.52532239400E+02  0.12170846574E+03  0.80132800947E+02 0.  0.
         25    2    1    2    0    0  0.10669591965E+03  0.47569053357E+02  0.35847037787E+03  0.39723312936E+03  0.12508522353E+03 0.  0.
         24    2    1    2    0    0 -0.33399038406E+02 -0.63681653070E+02  0.14644447235E+04  0.14683548419E+04  0.79352030543E+02 0.  0.
        -13    1    5    5    0    0  0.14843381662E+02  0.89208627442E+01  0.14432132164E+03  0.14535663608E+03  0.00000000000E+00 0.  1.
         14    1    5    5    0    0 -0.48242420068E+02 -0.72602515814E+02  0.13201234018E+04  0.13229982058E+04  0.00000000000E+00 0. -1.
         13    1    3    3    0    0 -0.20188591181E+02  0.18725757997E+02 -0.18356669436E+02  0.33093814214E+02  0.00000000000E+00 0. -1.
        -14    1    3    3    0    0 -0.53108290066E+02 -0.26131582841E+01  0.70888908836E+02  0.88614651531E+02  0.00000000000E+00 0.  1.
          5    1    4    4  501    0 -0.93603237335E+01  0.39692782302E+02  0.17666213102E+03  0.18135631659E+03  0.41800000000E+01 0. -1.
         -5    1    4    4    0  501  0.11605624339E+03  0.78762710548E+01  0.18180824684E+03  0.21587681278E+03  0.41800000000E+01 0. -1.
</event>
<event>
11    1  0.8453735E-009  0.1501350E+03  0.7561462E-02  0.1096741E+00
         22   -1    0    0    0    0  0.00000000000E+00  0.00000000000E+00  0.23910862413E+03  0.23910862413E+03  0.00000000000E+00 0. -1.
         22   -1    0    0    0    0 -0.00000000000E+00 -0.00000000000E+00 -0.48744612693E+03  0.48744612693E+03  0.00000000000E+00 0.  1.
         24    2    1    2    0    0 -0.10148545542E+01 -0.75336482176E+02 -0.32058368429E+03  0.33767675044E+03  0.74666416033E+02 0.  0.
         25    2    1    2    0    0 -0.33905446288E+02  0.14194547742E+03 -0.73887830411E+02  0.20592814314E+03  0.12509552671E+03 0.  0.
        -24    2    1    2    0    0  0.34920300842E+02 -0.66608995246E+02  0.14613401190E+03  0.18294985749E+03  0.80369865384E+02 0.  0.
        -11    1    3    3    0    0  0.12182290298E+02 -0.65792294844E+02 -0.31233249955E+03  0.31941919876E+03  0.00000000000E+00 0.  1.
         12    1    3    3    0    0 -0.13197144852E+02 -0.95441873326E+01 -0.82511847338E+01  0.18257551687E+02  0.00000000000E+00 0. -1.
         13    1    5    5    0    0 -0.20434438609E+02 -0.41521942992E+02  0.84797584949E+02  0.96603666826E+02  0.00000000000E+00 0. -1.
        -14    1    5    5    0    0  0.55354739451E+02 -0.25087052254E+02  0.61336426952E+02  0.86346190661E+02  0.00000000000E+00 0.  1.
          5    1    4    4  501    0 -0.62179797793E+02  0.20030704319E+02 -0.37894926479E+02  0.75637650822E+02  0.41800000000E+01 0.  1.
         -5    1    4    4    0  501  0.28274351505E+02  0.12191477310E+03 -0.35992903932E+02  0.13029049231E+03  0.41800000000E+01 0.  1.
</event>
<event>
11    1  0.8453735E-009  0.1320473E+03  0.7561462E-02  0.1116779E+00
         22   -1    0    0    0    0  0.00000000000E+00  0.00000000000E+00  0.23591294436E+04  0.23591294436E+04  0.00000000000E+00 0. -1.
         22   -1    0    0    0    0 -0.00000000000E+00 -0.00000000000E+00 -0.34419305546E+02  0.34419305546E+02  0.00000000000E+00 0. -1.
        -24    2    1    2    0    0 -0.38887109358E+02 -0.19834853874E+02  0.90002810788E+02  0.12846163613E+03  0.80599362934E+02 0.  0.
         25    2    1    2    0    0  0.30792191666E+02  0.24018855064E+02  0.28469724403E+03  0.31341110446E+03  0.12509570405E+03 0.  0.
         24    2    1    2    0    0  0.80949176918E+01 -0.41840011903E+01  0.19500100832E+04  0.19516760085E+04  0.80105456138E+02 0.  0.
        -13    1    5    5    0    0  0.34795718273E+02 -0.19365487218E+02  0.60179108347E+03  0.60310718140E+03  0.00000000000E+00 0.  1.
         14    1    5    5    0    0 -0.26700800581E+02  0.15181486028E+02  0.13482189997E+04  0.13485688271E+04  0.00000000000E+00 0. -1.
         11    1    3    3    0    0 -0.48557909370E+02  0.18495495118E+02  0.54957476296E+02  0.75632520141E+02  0.00000000000E+00 0. -1.
        -12    1    3    3    0    0  0.96708000117E+01 -0.38330348992E+02  0.35045334492E+02  0.52829115990E+02  0.00000000000E+00 0.  1.
          5    1    4    4  501    0 -0.26091425915E+02 -0.12777868367E+02  0.10874785068E+02  0.31301274360E+02  0.41800000000E+01 0. -1.
         -5    1    4    4    0  501  0.56883617581E+02  0.36796723431E+02  0.27382245897E+03  0.28210983010E+03  0.41800000000E+01 0. -1.
</event>
<event>
11    1  0.8453735E-009  0.1396630E+03  0.7561462E-02  0.1107935E+00
         22   -1    0    0    0    0  0.00000000000E+00  0.00000000000E+00  0.51142938580E+03  0.51142938580E+03  0.00000000000E+00 0. -1.
         22   -1    0    0    0    0 -0.00000000000E+00 -0.00000000000E+00 -0.16976233209E+03  0.16976233209E+03  0.00000000000E+00 0. -1.
         24    2    1    2    0    0 -0.59319188513E+02 -0.14262880824E+02 -0.11446527455E+03  0.15262876772E+03  0.80442810498E+02 0.  0.
         25    2    1    2    0    0  0.57454046968E+02  0.74106888158E+02  0.20086833994E+03  0.25453513393E+03  0.12508895247E+03 0.  0.
        -24    2    1    2    0    0  0.18651415451E+01 -0.59844007334E+02  0.25526398833E+03  0.27402781624E+03  0.79666532291E+02 0.  0.
        -11    1    3    3    0    0 -0.21867882942E+02 -0.26325716186E+02 -0.29204061491E+01  0.34347873430E+02  0.00000000000E+00 0.  1.
         12    1    3    3    0    0 -0.37451305571E+02  0.12062835362E+02 -0.11154486840E+03  0.11828089429E+03  0.00000000000E+00 0. -1.
         11    1    5    5    0    0 -0.25015596544E+02 -0.17087677394E+02  0.18518398084E+03  0.18764561159E+03  0.00000000000E+00 0. -1.
        -12    1    5    5    0    0  0.26880738089E+02 -0.42756329940E+02  0.70080007490E+02  0.86382204649E+02  0.00000000000E+00 0.  1.
          5    1    4    4  501    0 -0.32700083933E+02  0.51564670087E+02  0.10065729200E+03  0.11780311338E+03  0.41800000000E+01 0. -1.
         -5    1    4    4    0  501  0.90154130902E+02  0.22542218071E+02  0.10021104794E+03  0.13673202055E+03  0.41800000000E+01 0. -1.
</event>
<event>
11    1  0.8453735E-009  0.1803264E+03  0.7561462E-02  0.1069379E+00
         22   -1    0    0    0    0  0.00000000000E+00  0.00000000000E+00  0.38482500573E+03  0.38482500573E+03  0.00000000000E+00 0. -1.
         22   -1    0    0    0    0 -0.00000000000E+00 -0.00000000000E+00 -0.11612995014E+04  0.11612995014E+04  0.00000000000E+00 0.  1.
         24    2    1    2    0    0 -0.80807503223E+02 -0.91568001773E+02 -0.74543229356E+03  0.76232914561E+03  0.10277096106E+03 0.  0.
         25    2    1    2    0    0  0.12009541711E+03  0.96506417622E+02 -0.37686184429E+03  0.42591415481E+03  0.12506646124E+03 0.  0.
        -24    2    1    2    0    0 -0.39287913891E+02 -0.49384158484E+01  0.34581964222E+03  0.35788120669E+03  0.83185365466E+02 0.  0.
        -13    1    3    3    0    0 -0.19493460938E+02 -0.84208965775E+01 -0.42762827651E+03  0.42815516975E+03  0.00000000000E+00 0.  1.
         14    1    3    3    0    0 -0.61314042285E+02 -0.83147105196E+02 -0.31780401706E+03  0.33417397586E+03  0.00000000000E+00 0. -1.
         13    1    5    5    0    0 -0.40608471796E+02 -0.42416423931E+00  0.34953567687E+03  0.35188693823E+03  0.00000000000E+00 0. -1.
        -14    1    5    5    0    0  0.13205579052E+01 -0.45142516091E+01 -0.37160346497E+01  0.59942684532E+01  0.00000000000E+00 0.  1.
          5    1    4    4  501    0  0.14364831409E+03  0.65792959683E+02 -0.28012840638E+03  0.32164102373E+03  0.41800000000E+01 0.  1.
         -5    1    4    4    0  501 -0.23552896974E+02  0.30713457939E+02 -0.96733437911E+02  0.10427313108E+03  0.41800000000E+01 0.  1.
</event>
<event>
11    1  0.8453735E-009  0.1294844E+03  0.7561462E-02  0.1119904E+00
         22   -1    0    0    0    0  0.00000000000E+00  0.00000000000E+00  0.28796699603E+03  0.28796699603E+03  0.00000000000E+00 0. -1.
         22   -1    0    0    0    0 -0.00000000000E+00 -0.00000000000E+00 -0.16152315291E+03  0.16152315291E+03  0.00000000000E+00 0.  1.
        -24    2    1    2    0    0  0.11584465119E+02 -0.14557869072E+02 -0.91246833810E+02  0.12333437697E+03  0.80865644609E+02 0.  0.
         25    2    1    2    0    0 -0.40949957701E+02  0.22213882856E+02  0.59735214655E+02  0.14624247963E+03  0.12509281095E+03 0.  0.
         24    2    1    2    0    0  0.29365492583E+02 -0.76560137842E+01  0.15795546227E+03  0.17991329234E+03  0.80609664437E+02 0.  0.
        -13    1    5    5    0    0  0.21630525676E+02  0.27739125617E+02  0.27875035846E+02  0.44881581461E+02  0.00000000000E+00 0.  1.
         14    1    5    5    0    0  0.77349669063E+01 -0.35395139402E+02  0.13008042642E+03  0.13503171088E+03  0.00000000000E+00 0. -1.
         13    1    3    3    0    0 -0.85454635145E+01  0.16258133670E+01  0.13162795081E+02  0.15777432938E+02  0.00000000000E+00 0. -1.
        -14    1    3    3    0    0  0.20129928633E+02 -0.16183682439E+02 -0.10440962889E+03  0.10755694403E+03  0.00000000000E+00 0.  1.
          5    1    4    4  501    0 -0.46564682004E+02 -0.34417723212E+02  0.67075331602E+02  0.88709761530E+02  0.41800000000E+01 0.  1.
         -5    1    4    4    0  501  0.56147243024E+01  0.56631606068E+02 -0.73401169465E+01  0.57532718097E+02  0.41800000000E+01 0.  1.
</event>
<event>
11    1  0.8453735E-009  0.1314236E+03  0.7561462E-02  0.1117532E+00
         22   -1    0    0    0    0  0.00000000000E+00  0.00000000000E+00  0.40632396416E+03  0.40632396416E+03  0.00000000000E+00 0.  1.
         22   -1    0    0    0    0 -0.00000000000E+00 -0.00000000000E+00 -0.33664935786E+03  0.33664935786E+03  0.00000000000E+00 0. -1.
        -24    2    1    2    0    0 -0.36992978757E+02  0.46056066057E+00 -0.27005506325E+03  0.28420947753E+03  0.80477309426E+02 0.  0.
         25    2    1    2    0    0 -0.72412879135E+01  0.38186300435E+01  0.21471190406E+02  0.12718039581E+03  0.12508726105E+03 0.  0.
         24    2    1    2    0    0  0.44234266671E+02 -0.42791907041E+01  0.31825847915E+03  0.33158344868E+03  0.81756602600E+02 0.  0.
        -13    1    5    5    0    0  0.68381899497E+02 -0.64073501637E+01  0.22726860120E+03  0.23741978731E+03  0.00000000000E+00 0.  1.
         14    1    5    5    0    0 -0.24147632826E+02  0.21281594596E+01  0.90989877943E+02  0.94163661366E+02  0.00000000000E+00 0. -1.
         11    1    3    3    0    0  0.14890935618E+02 -0.17721760145E+02 -0.29742870855E+02  0.37688713336E+02  0.00000000000E+00 0. -1.
        -12    1    3    3    0    0 -0.51883914375E+02  0.18182320806E+02 -0.24031219240E+03  0.24652076419E+03  0.00000000000E+00 0.  1.
          5    1    4    4  501    0 -0.57176082287E+02  0.33930783470E+02  0.72209843728E+01  0.67007592614E+02  0.41800000000E+01 0.  1.
         -5    1    4    4    0  501  0.49934794373E+02 -0.30112153426E+02  0.14250206033E+02  0.60172803201E+02  0.41800000000E+01 0.  1.
</event>
<event>
11    1  0.8453735E-009  0.2898238E+03  0.7561462E-02  0.1004592E+00
         22   -1    0    0    0    0  0.00000000000E+00  0.00000000000E+00  0.54608125825E+03  0.54608125825E+03  0.00000000000E+00 0. -1.
         22   -1    0    0    0    0 -0.00000000000E+00 -0.00000000000E+00 -0.24669634332E+03  0.24669634332E+03  0.00000000000E+00 0.  1.
         24    2    1    2    0    0 -0.10195740720E+03  0.23773312161E+03 -0.47882893173E+02  0.27820602688E+03  0.90517799045E+02 0.  0.
         25    2    1    2    0    0  0.93098581511E+02 -0.25332407120E+03  0.27555661651E+03  0.40548730136E+03  0.12509225287E+03 0.  0.
        -24    2    1    2    0    0  0.88588256932E+01  0.15590949598E+02  0.71711191588E+02  0.10908427332E+03  0.80220491051E+02 0.  0.
        -13    1    3    3    0    0 -0.71490318744E+02  0.23131301461E+03 -0.49137144645E+02  0.24704460202E+03  0.00000000000E+00 0.  1.
         14    1    3    3    0    0 -0.30467088460E+02  0.64201069979E+01  0.12542514719E+01  0.31161424869E+02  0.00000000000E+00 0. -1.
         11    1    5    5    0    0  0.43553101888E+02  0.10192171200E+02  0.27047671755E+02  0.52271690094E+02  0.00000000000E+00 0. -1.
        -12    1    5    5    0    0 -0.34694276195E+02  0.53987783983E+01  0.44663519833E+02  0.56812583225E+02  0.00000000000E+00 0.  1.
          5    1    4    4  501    0  0.98386500513E+02 -0.11200710919E+03  0.18449553266E+03  0.23723737050E+03  0.41800000000E+01 0.  1.
         -5    1    4    4    0  501 -0.52879190016E+01 -0.14131696201E+03  0.91061083855E+02  0.16824993086E+03  0.41800000000E+01 0.  1.
</event>
<event>
11    1  0.8453735E-009  0.1520102E+03  0.7561462E-02  0.1094842E+00
         22   -1    0    0    0    0  0.00000000000E+00  0.00000000000E+00  0.66612219319E+03  0.66612219319E+03  0.00000000000E+00 0. -1.
         22   -1    0    0    0    0 -0.00000000000E+00 -0.00000000000E+00 -0.74052229601E+03  0.74052229601E+03  0.00000000000E+00 0. -1.
        -24    2    1    2    0    0 -0.13170477464E+02 -0.85338219376E+02 -0.65934899649E+03  0.66973735752E+03  0.79692883741E+02 0.  0.
         25    2    1    2    0    0  0.65522940862E+02  0.76905202825E+02  0.17866958366E+02  0.16178015288E+03  0.12508366666E+03 0.  0.
         24    2    1    2    0    0 -0.52352463398E+02  0.84330165512E+01  0.56708193531E+03  0.57512697880E+03  0.79857524345E+02 0.  0.
        -13    1    5    5    0    0  0.17308661957E+02  0.14236871620E+02  0.21557571257E+03  0.21673755130E+03  0.00000000000E+00 0.  1.
         14    1    5    5    0    0 -0.69661125356E+02 -0.58038550691E+01  0.35150622274E+03  0.35838942750E+03  0.00000000000E+00 0. -1.
         11    1    3    3    0    0 -0.11271003920E+02 -0.60099572517E+02 -0.61962882200E+03  0.62263863613E+03  0.00000000000E+00 0. -1.
        -12    1    3    3    0    0 -0.18994735443E+01 -0.25238646859E+02 -0.39720174491E+02  0.47098721390E+02  0.00000000000E+00 0.  1.
          5    1    4    4  501    0  0.91112758581E+02  0.71965111008E+02 -0.17665824470E+02  0.11751623604E+03  0.41800000000E+01 0. -1.
         -5    1    4    4    0  501 -0.25589817719E+02  0.49400918172E+01  0.35532782836E+02  0.44263916841E+02  0.41800000000E+01 0. -1.
</event>
<event>
11    1  0.8453735E-009  0.1340807E+03  0.7561462E-02  0.1114354E+00
         22   -1    0    0    0    0  0.00000000000E+00  0.00000000000E+00  0.11880002693E+04  0.11880002693E+04  0.00000000000E+00 0. -1.
         22   -1    0    0    0    0 -0.00000000000E+00 -0.00000000000E+00 -0.17058893782E+04  0.17058893782E+04  0.00000000000E+00 0.  1.
         24    2    1    2    0    0  0.38797915737E+02  0.32319415557E+02 -0.13739916867E+04  0.13772545719E+04  0.80169681349E+02 0.  0.
         25    2    1    2    0    0 -0.42192449977E+02  0.51694318634E+01 -0.31528921552E+03  0.34184993154E+03  0.12508861023E+03 0.  0.
        -24    2    1    2    0    0  0.33945342398E+01 -0.37488847420E+02  0.11713917933E+04  0.11747851441E+04  0.80897867200E+02 0.  0.
        -13    1    3    3    0    0  0.58304847171E+02  0.33952042492E+01 -0.97138596333E+03  0.97314010932E+03  0.00000000000E+00 0.  1.
         14    1    3    3    0    0 -0.19506931434E+02  0.28924211307E+02 -0.40260572332E+03  0.40411446253E+03  0.00000000000E+00 0. -1.
         13    1    5    5    0    0  0.41959672679E+02 -0.15079944449E+02  0.56880019752E+03  0.57054507583E+03  0.00000000000E+00 0. -1.
        -14    1    5    5    0    0 -0.38565138440E+02 -0.22408902971E+02  0.60259159575E+03  0.60424006827E+03  0.00000000000E+00 0.  1.
          5    1    4    4  501    0 -0.82281500915E+02 -0.17507815435E+02 -0.17669609679E+03  0.19574409829E+03  0.41800000000E+01 0. -1.
         -5    1    4    4    0  501  0.40089050938E+02  0.22677247298E+02 -0.13859311874E+03  0.14610583326E+03  0.41800000000E+01 0. -1.
</event>
<event>
11    1  0.8453735E-009  0.1294612E+03  0.7561462E-02  0.1119933E+00
         22   -1    0    0    0    0  0.00000000000E+00  0.00000000000E+00  0.71062322976E+03  0.71062322976E+03  0.00000000000E+00 0.  1.
         22   -1    0    0    0    0 -0.00000000000E+00 -0.00000000000E+00 -0.43336900962E+03  0.43336900962E+03  0.00000000000E+00 0.  1.
        -24    2    1    2    0    0 -0.30618075155E+02  0.96456537034E+01 -0.36445705339E+03  0.37471041529E+03  0.80922471526E+02 0.  0.
         25    2    1    2    0    0  0.54303347448E+02  0.48517126111E+00  0.15012371673E+02  0.13719440666E+03  0.12509134654E+03 0.  0.
         24    2    1    2    0    0 -0.23685272293E+02 -0.10130824964E+02  0.62669890185E+03  0.63208741744E+03  0.78226363575E+02 0.  0.
        -11    1    5    5    0    0  0.69472415906E+01 -0.31458250146E+02  0.46592888439E+03  0.46704133755E+03  0.00000000000E+00 0.  1.
         12    1    5    5    0    0 -0.30632513883E+02  0.21327425182E+02  0.16077001746E+03  0.16504607989E+03  0.00000000000E+00 0. -1.
         11    1    3    3    0    0 -0.12568661743E+02 -0.14358252498E+02 -0.15833877220E+02  0.24796014612E+02  0.00000000000E+00 0. -1.
        -12    1    3    3    0    0 -0.18049413412E+02  0.24003906202E+02 -0.34862317617E+03  0.34991440068E+03  0.00000000000E+00 0.  1.
          5    1    4    4  501    0  0.30174917145E+02  0.62441601106E+02  0.33169780088E+01  0.69555401777E+02  0.41800000000E+01 0. -1.
         -5    1    4    4    0  501  0.24128430303E+02 -0.61956429844E+02  0.11695393664E+02  0.67639004878E+02  0.41800000000E+01 0. -1.
</event>
<event>
11    1  0.8453735E-009  0.1416588E+03  0.7561462E-02  0.1105720E+00
         22   -1    0    0    0    0  0.00000000000E+00  0.00000000000E+00  0.33115252271E+03  0.33115252271E+03  0.00000000000E+00 0.  1.
         22   -1    0    0    0    0 -0.00000000000E+00 -0.00000000000E+00 -0.20603668277E+03  0.20603668277E+03  0.00000000000E+00 0. -1.
        -24    2    1    2    0    0  0.58025094667E+02  0.24661989206E+02 -0.97652783556E+02  0.14169552024E+03  0.81033505404E+02 0.  0.
         25    2    1    2    0    0 -0.36481153314E+02 -0.86339392536E+02  0.77084049009E+01  0.15650030662E+03  0.12509021231E+03 0.  0.
         24    2    1    2    0    0 -0.21543941353E+02  0.61677403330E+02  0.21506021859E+03  0.23899337861E+03  0.81232345210E+02 0.  0.
        -13    1    5    5    0    0  0.23526237383E+02  0.35660725682E+02  0.14838908311E+03  0.15441661564E+03  0.00000000000E+00 0.  1.
         14    1    5    5    0    0 -0.45070178736E+02  0.26016677649E+02  0.66671135490E+02  0.84576762971E+02  0.00000000000E+00 0. -1.
         13    1    3    3    0    0  0.41658825950E+02  0.38116229552E+02 -0.17987161354E+02  0.59260802461E+02  0.00000000000E+00 0. -1.
        -14    1    3    3    0    0  0.16366268717E+02 -0.13454240345E+02 -0.79665622202E+02  0.82434717782E+02  0.00000000000E+00 0.  1.
          5    1    4    4  501    0  0.34640904824E+02 -0.76840482792E+02  0.60054368041E+01  0.84604903841E+02  0.41800000000E+01 0.  1.
         -5    1    4    4    0  501 -0.71122058137E+02 -0.94989097441E+01  0.17029680969E+01  0.71895402776E+02  0.41800000000E+01 0.  1.
</event>
<event>
11    1  0.8453735E-009  0.1311044E+03  0.7561462E-02  0.1117919E+00
         22   -1    0    0    0    0  0.00000000000E+00  0.00000000000E+00  0.68569063628E+03  0.68569063628E+03  0.00000000000E+00 0.  1.
         22   -1    0    0    0    0 -0.00000000000E+00 -0.00000000000E+00 -0.99020496513E+02  0.99020496513E+02  0.00000000000E+00 0. -1.
         24    2    1    2    0    0 -0.22201777525E+02  0.12849568306E+02 -0.57484587053E+02  0.10250057835E+03  0.80894131319E+02 0.  0.
         25    2    1    2    0    0  0.46713031423E+02  0.14226538997E+02  0.34508069860E+03  0.37028646719E+03  0.12508747949E+03 0.  0.
        -24    2    1    2    0    0 -0.24511253897E+02 -0.27076107303E+02  0.29907402823E+03  0.31192408726E+03  0.80730692412E+02 0.  0.
        -13    1    3    3    0    0  0.18772250233E+02  0.94309690927E+01  0.10163387419E+02  0.23337416324E+02  0.00000000000E+00 0.  1.
         14    1    3    3    0    0 -0.40974027758E+02  0.34185992136E+01 -0.67647974472E+02  0.79163162023E+02  0.00000000000E+00 0. -1.
         11    1    5    5    0    0  0.15656586094E+02  0.12334604045E+02  0.24211718191E+02  0.31360459863E+02  0.00000000000E+00 0. -1.
        -12    1    5    5    0    0 -0.40167839991E+02 -0.39410711348E+02  0.27486231003E+03  0.28056362739E+03  0.00000000000E+00 0.  1.
          5    1    4    4  501    0 -0.14623857730E+02  0.35618422985E+02  0.31219160361E+02  0.49745729912E+02  0.41800000000E+01 0.  1.
         -5    1    4    4    0  501  0.61336889153E+02 -0.21391883988E+02  0.31386153824E+03  0.32054073728E+03  0.41800000000E+01 0.  1.
</event>
<event>
11    1  0.8453735E-009  0.1316123E+03  0.7561462E-02  0.1117304E+00
         22   -1    0    0    0    0  0.00000000000E+00  0.00000000000E+00  0.23616401429E+03  0.23616401429E+03  0.00000000000E+00 0.  1.
         22   -1    0    0    0    0 -0.00000000000E+00 -0.00000000000E+00 -0.81684787202E+03  0.81684787202E+03  0.00000000000E+00 0. -1.
         24    2    1    2    0    0  0.26622568373E+02  0.32307531042E+02 -0.70022944244E+03  0.70601012075E+03  0.79852869951E+02 0.  0.
         25    2    1    2    0    0 -0.44750422692E+02  0.31082498481E+01 -0.62250990265E+02  0.14674789270E+03  0.12508995433E+03 0.  0.
        -24    2    1    2    0    0  0.18127854320E+02 -0.35415780891E+02  0.18179657497E+03  0.20025387285E+03  0.73950809900E+02 0.  0.
        -13    1    3    3    0    0 -0.24015612438E+02 -0.63134250687E+00 -0.10451011088E+03  0.10723577533E+03  0.00000000000E+00 0.  1.
         14    1    3    3    0    0  0.50638180810E+02  0.32938873549E+02 -0.59571933156E+03  0.59877434543E+03  0.00000000000E+00 0. -1.
         11    1    5    5    0    0  0.36678733825E+02  0.69799432084E+01  0.90474993603E+02  0.97876317818E+02  0.00000000000E+00 0. -1.
        -12    1    5    5    0    0 -0.18550879505E+02 -0.42395724099E+02  0.91321581364E+02  0.10237755504E+03  0.00000000000E+00 0.  1.
          5    1    4    4  501    0  0.35002141799E+02 -0.51561953517E+01  0.11794952593E+02  0.37527717592E+02  0.41800000000E+01 0.  1.
         -5    1    4    4    0  501 -0.79752564491E+02  0.82644451998E+01 -0.74045942858E+02  0.10922017511E+03  0.41800000000E+01 0.  1.
</event>
<event>
11    1  0.8453735E-009  0.2818105E+03  0.7561462E-02  0.1008197E+00
         22   -1    0    0    0    0  0.00000000000E+00  0.00000000000E+00  0.12553762528E+04  0.12553762528E+04  0.00000000000E+00 0.  1.
         22   -1    0    0    0    0 -0.00000000000E+00 -0.00000000000E+00 -0.30193362146E+03  0.30193362146E+03  0.00000000000E+00 0.  1.
        -24    2    1    2    0    0  0.91262124106E+02  0.94314652132E+02 -0.11744774217E+03  0.19361226015E+03  0.80422050697E+02 0.  0.
         25    2    1    2    0    0 -0.33300378349E+03 -0.92739920232E+02  0.13174296347E+03  0.39050705214E+03  0.12508931498E+03 0.  0.
         24    2    1    2    0    0  0.24174165938E+03 -0.15747319006E+01  0.93914741008E+03  0.97319056202E+03  0.81611901585E+02 0.  0.
        -13    1    5    5    0    0  0.75880310129E+02 -0.12025516346E+01  0.45830524429E+03  0.46454597678E+03  0.00000000000E+00 0.  1.
         14    1    5    5    0    0  0.16586134925E+03 -0.37218026595E+00  0.48084216579E+03  0.50864458524E+03  0.00000000000E+00 0. -1.
         13    1    3    3    0    0 -0.13925580130E+02  0.60449277753E+01 -0.20549964834E+02  0.25549246338E+02  0.00000000000E+00 0. -1.
        -14    1    3    3    0    0  0.10518770424E+03  0.88269724357E+02 -0.96897777335E+02  0.16806301382E+03  0.00000000000E+00 0.  1.
          5    1    4    4  501    0 -0.12202673371E+03 -0.68334613723E+02 -0.11742216151E+01  0.13992495978E+03  0.41800000000E+01 0. -1.
         -5    1    4    4    0  501 -0.21097704978E+03 -0.24405306509E+02  0.13291718509E+03  0.25058209236E+03  0.41800000000E+01 0. -1.
</event>
<event>
11    1  0.8453735E-009  0.1639347E+03  0.7561462E-02  0.1083434E+00
         22   -1    0    0    0    0  0.00000000000E+00  0.00000000000E+00  0.99764398973E+03  0.99764398973E+03  0.00000000000E+00 0. -1.
         22   -1    0    0    0    0 -0.00000000000E+00 -0.00000000000E+00 -0.72104497048E+03  0.72104497048E+03  0.00000000000E+00 0.  1.
         24    2    1    2    0    0  0.16218811528E+02 -0.15729377391E+01 -0.67813248204E+03  0.68307486382E+03  0.80387078639E+02 0.  0.
         25    2    1    2    0    0 -0.20401359100E+02  0.10712083754E+03  0.16294773741E+03  0.23257157387E+03  0.12508590071E+03 0.  0.
        -24    2    1    2    0    0  0.41825475714E+01 -0.10554789980E+03  0.79178376387E+03  0.80304252252E+03  0.82449447436E+02 0.  0.
        -11    1    3    3    0    0  0.42130134787E+02  0.18326706816E+02 -0.48778855017E+03  0.48994743199E+03  0.00000000000E+00 0.  1.
         12    1    3    3    0    0 -0.25911323258E+02 -0.19899644555E+02 -0.19034393187E+03  0.19312743183E+03  0.00000000000E+00 0. -1.
         11    1    5    5    0    0 -0.48893768501E+01 -0.10212371747E+03  0.78391686118E+03  0.79055600998E+03  0.00000000000E+00 0. -1.
        -12    1    5    5    0    0  0.90719244215E+01 -0.34241823384E+01  0.78669026969E+01  0.12486512541E+02  0.00000000000E+00 0.  1.
          5    1    4    4  501    0 -0.71482017019E+02  0.47412167089E+02  0.70033332192E+02  0.11081395383E+03  0.41800000000E+01 0.  1.
         -5    1    4    4    0  501  0.51080657919E+02  0.59708670455E+02  0.92914405221E+02  0.12175762004E+03  0.41800000000E+01 0.  1.
</event>
<event>
11    1  0.8453735E-009  0.1637875E+03  0.7561462E-02  0.1083568E+00
         22   -1    0    0    0    0  0.00000000000E+00  0.00000000000E+00  0.72341242086E+03  0.72341242086E+03  0.00000000000E+00 0. -1.
         22   -1    0    0    0    0 -0.00000000000E+00 -0.00000000000E+00 -0.30768528033E+04  0.30768528033E+04  0.00000000000E+00 0. -1.
         24    2    1    2    0    0 -0.92646350652E+01  0.37901265645E+02 -0.28731221392E+04  0.28744953970E+04  0.79816169387E+02 0.  0.
         25    2    1    2    0    0  0.94152295608E+02  0.25930218799E+02 -0.16460952803E+03  0.22865024056E+03  0.12509038643E+03 0.  0.
        -24    2    1    2    0    0 -0.84887660543E+02 -0.63831484444E+02  0.68429128475E+03  0.69711958670E+03  0.80254485563E+02 0.  0.
        -11    1    3    3    0    0  0.27629511207E+02  0.42830171168E+02 -0.14855474632E+04  0.14864215684E+04  0.00000000000E+00 0.  1.
         12    1    3    3    0    0 -0.36894146272E+02 -0.49289055232E+01 -0.13875746760E+04  0.13880738286E+04  0.00000000000E+00 0. -1.
         13    1    5    5    0    0 -0.99146122081E+02 -0.65073718537E+02  0.62202674283E+03  0.63323124620E+03  0.00000000000E+00 0. -1.
        -14    1    5    5    0    0  0.14258461538E+02  0.12422340928E+01  0.62264541924E+02  0.63888340501E+02  0.00000000000E+00 0.  1.
          5    1    4    4  501    0  0.11783407561E+03  0.28396515601E+01 -0.94910873207E+02  0.15138850435E+03  0.41800000000E+01 0. -1.
         -5    1    4    4    0  501 -0.23681779999E+02  0.23090567239E+02 -0.69698654820E+02  0.77261736215E+02  0.41800000000E+01 0. -1.
</event>
<event>
11    1  0.8453735E-009  0.1775166E+03  0.7561462E-02  0.1071669E+00
         22   -1    0    0    0    0  0.00000000000E+00  0.00000000000E+00  0.10653873134E+03  0.10653873134E+03  0.00000000000E+00 0.  1.
         22   -1    0    0    0    0 -0.00000000000E+00 -0.00000000000E+00 -0.11701368891E+04  0.11701368891E+04  0.00000000000E+00 0. -1.
         24    2    1    2    0    0 -0.90838552049E+02  0.30216038183E+02 -0.68062702010E+03  0.69197666246E+03  0.80086886557E+02 0.  0.
         25    2    1    2    0    0  0.12841566712E+03 -0.14091889534E+03 -0.38075834205E+03  0.44381455078E+03  0.12508285980E+03 0.  0.
        -24    2    1    2    0    0 -0.37577115072E+02  0.11070285716E+03 -0.22127955680E+01  0.14088440716E+03  0.78589805671E+02 0.  0.
        -13    1    3    3    0    0 -0.15609349983E+02 -0.22134598686E+02 -0.81569895361E+02  0.85949055231E+02  0.00000000000E+00 0.  1.
         14    1    3    3    0    0 -0.75229202065E+02  0.52350636869E+02 -0.59905712474E+03  0.60602760723E+03  0.00000000000E+00 0. -1.
         13    1    5    5    0    0 -0.27841021283E+02  0.65854204833E+02 -0.39562552870E+02  0.81713489400E+02  0.00000000000E+00 0. -1.
        -14    1    5    5    0    0 -0.97360937893E+01  0.44848652326E+02  0.37349757302E+02  0.59170917757E+02  0.00000000000E+00 0.  1.
          5    1    4    4  501    0  0.89195757802E+02 -0.54598134436E+02 -0.30475752482E+03  0.32222889509E+03  0.41800000000E+01 0. -1.
         -5    1    4    4    0  501  0.39219909319E+02 -0.86320760906E+02 -0.76000817225E+02  0.12158565569E+03  0.41800000000E+01 0. -1.
</event>
<event>
11    1  0.8453735E-009  0.1306534E+03  0.7561462E-02  0.1118469E+00
         22   -1    0    0    0    0  0.00000000000E+00  0.00000000000E+00  0.45295322627E+03  0.45295322627E+03  0.00000000000E+00 0. -1.
         22   -1    0    0    0    0 -0.00000000000E+00 -0.00000000000E+00 -0.66636944655E+03  0.66636944655E+03  0.00000000000E+00 0.  1.
         24    2    1    2    0    0  0.67763374328E+01 -0.18058650146E+01 -0.57092451698E+03  0.57664027180E+03  0.80684689204E+02 0.  0.
         25    2    1    2    0    0  0.29961243321E+02  0.11672756708E+02 -0.40214028028E+02  0.13527179272E+03  0.12508941004E+03 0.  0.
        -24    2    1    2    0    0 -0.36737580753E+02 -0.98668916933E+01  0.39772232473E+03  0.40741060831E+03  0.79707909175E+02 0.  0.
        -11    1    3    3    0    0 -0.72497891540E+01  0.35864022624E+02 -0.36499201793E+03  0.36682142892E+03  0.00000000000E+00 0.  1.
         12    1    3    3    0    0  0.14026126587E+02 -0.37669887639E+02 -0.20593249905E+03  0.20981884288E+03  0.00000000000E+00 0. -1.
         13    1    5    5    0    0 -0.21921944239E+02  0.22954590350E+02  0.32201260512E+03  0.32357317984E+03  0.00000000000E+00 0. -1.
        -14    1    5    5    0    0 -0.14815636515E+02 -0.32821482043E+02  0.75709719605E+02  0.83837428465E+02  0.00000000000E+00 0.  1.
          5    1    4    4  501    0  0.48145497010E+02  0.56368327501E+02 -0.44642366141E+02  0.86635965293E+02  0.41800000000E+01 0.  1.
         -5    1    4    4    0  501 -0.18184253690E+02 -0.44695570793E+02  0.44283381125E+01  0.48635827424E+02  0.41800000000E+01 0.  1.
</event>
<event>
11    1  0.8453735E-009  0.1349430E+03  0.7561462E-02  0.1113340E+00
         22   -1    0    0    0    0  0.00000000000E+00  0.00000000000E+00  0.24274381467E+03  0.24274381467E+03  0.00000000000E+00 0.  1.
         22   -1    0    0    0    0 -0.00000000000E+00 -0.00000000000E+00 -0.64816081751E+03  0.64816081751E+03  0.00000000000E+00 0. -1.
         24    2    1    2    0    0  0.42743316186E+02 -0.30572922613E+02 -0.52061220010E+03  0.52946595081E+03  0.80842040414E+02 0.  0.
         25    2    1    2    0    0 -0.42123419225E+02 -0.25281066575E+01 -0.72675015422E+02  0.15070050592E+03  0.12509280893E+03 0.  0.
        -24    2    1    2    0    0 -0.61989696091E+00  0.33101029271E+02  0.18787021267E+03  0.21073817545E+03  0.89550540884E+02 0.  0.
        -11    1    3    3    0    0  0.15251319778E+02  0.59562985813E+01 -0.16361432087E+02  0.23146850924E+02  0.00000000000E+00 0.  1.
         12    1    3    3    0    0  0.27491996408E+02 -0.36529221195E+02 -0.50425076801E+03  0.50631909989E+03  0.00000000000E+00 0. -1.
         11    1    5    5    0    0 -0.33665235225E+02  0.11380167114E+01  0.26245962104E+02  0.42702384846E+02  0.00000000000E+00 0. -1.
        -12    1    5    5    0    0  0.33045338264E+02  0.31963012559E+02  0.16162425057E+03  0.16803579061E+03  0.00000000000E+00 0.  1.
          5    1    4    4  501    0 -0.28328993774E+02  0.37204963685E+02  0.18297508829E+02  0.50388614194E+02  0.41800000000E+01 0.  1.
         -5    1    4    4    0  501 -0.13794425451E+02 -0.39733070343E+02 -0.90972524250E+02  0.10031189172E+03  0.41800000000E+01 0.  1.
</event>
<event>
11    1  0.8453735E-009  0.1471436E+03  0.7561462E-02  0.1099834E+00
         22   -1    0    0    0    0  0.00000000000E+00  0.00000000000E+00  0.15585667541E+03  0.15585667541E+03  0.00000000000E+00 0.  1.
         22   -1    0    0    0    0 -0.00000000000E+00 -0.00000000000E+00 -0.44569573230E+04  0.44569573230E+04  0.00000000000E+00 0.  1.
         24    2    1    2    0    0  0.35056598873E+02  0.21415955628E+02 -0.39842020740E+04  0.39852192523E+04  0.80116880699E+02 0.  0.
         25    2    1    2    0    0 -0.49739911288E+02 -0.96170958785E+02 -0.43534560618E+03  0.46572300293E+03  0.12509678873E+03 0.  0.
        -24    2    1    2    0    0  0.14683312414E+02  0.74755003158E+02  0.11844703261E+03  0.16187174310E+03  0.79805084540E+02 0.  0.
        -11    1    3    3    0    0  0.44123628108E+02  0.51652147694E+01 -0.37550604022E+04  0.37553231816E+04  0.00000000000E+00 0.  1.
         12    1    3    3    0    0 -0.90670292346E+01  0.16250740858E+02 -0.22914167180E+03  0.22989607076E+03  0.00000000000E+00 0. -1.
         13    1    5    5    0    0  0.38379701721E+02  0.61881055231E+02  0.50073401002E+02  0.88372009078E+02  0.00000000000E+00 0. -1.
        -14    1    5    5    0    0 -0.23696389306E+02  0.12873947927E+02  0.68373631612E+02  0.73499734021E+02  0.00000000000E+00 0.  1.
          5    1    4    4  501    0  0.25084150495E+02 -0.50065571426E+02 -0.69014274663E+02  0.88973133898E+02  0.41800000000E+01 0.  1.
         -5    1    4    4    0  501 -0.74824061783E+02 -0.46105387359E+02 -0.36633133152E+03  0.37674986904E+03  0.41800000000E+01 0.  1.
</event>
<event>
11    1  0.8453735E-009  0.1253189E+03  0.7561462E-02  0.1125158E+00
         22   -1    0    0    0    0  0.00000000000E+00  0.00000000000E+00  0.11530174098E+03  0.11530174098E+03  0.00000000000E+00 0. -1.
         22   -1    0    0    0    0 -0.00000000000E+00 -0.00000000000E+00 -0.81575457163E+03  0.81575457163E+03  0.00000000000E+00 0.  1.
         24    2    1    2    0    0  0.75469274153E+01 -0.14333344867E+01 -0.68346972985E+03  0.68993908305E+03  0.93947092201E+02 0.  0.
         25    2    1    2    0    0  0.40217165857E+01  0.33102977116E+02 -0.58921393760E+02  0.14223105601E+03  0.12508381730E+03 0.  0.
        -24    2    1    2    0    0 -0.11568644001E+02 -0.31669642630E+02  0.41938292965E+02  0.98886173551E+02  0.82962974359E+02 0.  0.
        -11    1    3    3    0    0  0.78214247914E+01  0.34506432998E+02 -0.56574420623E+03  0.56684951749E+03  0.00000000000E+00 0.  1.
         12    1    3    3    0    0 -0.27449737615E+00 -0.35939767484E+02 -0.11772552363E+03  0.12308956556E+03  0.00000000000E+00 0. -1.
         11    1    5    5    0    0 -0.71965791315E+01 -0.48480840410E+02  0.57507267797E+02  0.75559701479E+02  0.00000000000E+00 0. -1.
        -12    1    5    5    0    0 -0.43720648695E+01  0.16811197780E+02 -0.15568974832E+02  0.23326472072E+02  0.00000000000E+00 0.  1.
          5    1    4    4  501    0  0.32146501545E+02  0.59376270142E+01 -0.87577380630E+02  0.93573088942E+02  0.41800000000E+01 0. -1.
         -5    1    4    4    0  501 -0.28124784959E+02  0.27165350102E+02  0.28655986870E+02  0.48657967063E+02  0.41800000000E+01 0. -1.
</event>
<event>
11    1  0.8453735E-009  0.1901451E+03  0.7561462E-02  0.1061720E+00
         22   -1    0    0    0    0  0.00000000000E+00  0.00000000000E+00  0.74185201636E+03  0.74185201636E+03  0.00000000000E+00 0. -1.
         22   -1    0    0    0    0 -0.00000000000E+00 -0.00000000000E+00 -0.12767287092E+03  0.12767287092E+03  0.00000000000E+00 0. -1.
         24    2    1    2    0    0 -0.40365245277E+02 -0.11839236657E+03  0.49863439215E+02  0.15644882267E+03  0.79647762407E+02 0.  0.
         25    2    1    2    0    0  0.17280072113E+03  0.11728318426E+03  0.19538535223E+03  0.31215226283E+03  0.12509262485E+03 0.  0.
        -24    2    1    2    0    0 -0.13243547586E+03  0.11091823125E+01  0.36893035399E+03  0.40092380178E+03  0.84201562845E+02 0.  0.
        -11    1    3    3    0    0  0.21697662262E+02 -0.56262007588E+02  0.24000785176E+02  0.64901769887E+02  0.00000000000E+00 0.  1.
         12    1    3    3    0    0 -0.62062907539E+02 -0.62130358981E+02  0.25862654039E+02  0.91547052782E+02  0.00000000000E+00 0. -1.
         11    1    5    5    0    0 -0.11928201570E+03 -0.70096860325E+01  0.21297408528E+03  0.24420339058E+03  0.00000000000E+00 0. -1.
        -12    1    5    5    0    0 -0.13153460156E+02  0.81188683450E+01  0.15595626871E+03  0.15672041120E+03  0.00000000000E+00 0.  1.
          5    1    4    4  501    0  0.26516765004E+01 -0.10924008452E+02 -0.10434598884E+02  0.15897125614E+02  0.41800000000E+01 0. -1.
         -5    1    4    4    0  501  0.17014904463E+03  0.12820719271E+03  0.20581995112E+03  0.29625513722E+03  0.41800000000E+01 0. -1.
</event>
<event>
11    1  0.8453735E-009  0.1486840E+03  0.7561462E-02  0.1098231E+00
         22   -1    0    0    0    0  0.00000000000E+00  0.00000000000E+00  0.11368409463E+03  0.11368409463E+03  0.00000000000E+00 0. -1.
         22   -1    0    0    0    0 -0.00000000000E+00 -0.00000000000E+00 -0.15770869029E+04  0.15770869029E+04  0.00000000000E+00 0. -1.
        -24    2    1    2    0    0  0.42456025235E+02  0.21608471012E+02 -0.12912218497E+04  0.12946392992E+04  0.81040791030E+02 0.  0.
         25    2    1    2    0    0 -0.61531797484E+02  0.57714690505E+02 -0.22428601385E+03  0.27031209625E+03  0.12508903136E+03 0.  0.
         24    2    1    2    0    0  0.19075772249E+02 -0.79323161517E+02  0.52105055269E+02  0.12581960209E+03  0.80371552457E+02 0.  0.
        -13    1    5    5    0    0 -0.16432855241E+02  0.81192015263E+01  0.68098385936E+00  0.18341862059E+02  0.00000000000E+00 0.  1.
         14    1    5    5    0    0  0.35508627489E+02 -0.87442363043E+02  0.51424071410E+02  0.10747774003E+03  0.00000000000E+00 0. -1.
         11    1    3    3    0    0  0.19774934599E+02  0.23585141602E+02 -0.12070616712E+04  0.12074540095E+04  0.00000000000E+00 0. -1.
        -12    1    3    3    0    0  0.22681090637E+02 -0.19766705902E+01 -0.84160178571E+02  0.87185289792E+02  0.00000000000E+00 0.  1.
          5    1    4    4  501    0 -0.63509269616E+02 -0.16941700530E+02 -0.57147815237E+02  0.87199734692E+02  0.41800000000E+01 0.  1.
         -5    1    4    4    0  501  0.19774721319E+01  0.74656391035E+02 -0.16713819862E+03  0.18311236156E+03  0.41800000000E+01 0.  1.
</event>
<event>
11    1  0.8453735E-009  0.1419928E+03  0.7561462E-02  0.1105353E+00
         22   -1    0    0    0    0  0.00000000000E+00  0.00000000000E+00  0.80880706479E+02  0.80880706479E+02  0.00000000000E+00 0.  1.
         22   -1    0    0    0    0 -0.00000000000E+00 -0.00000000000E+00 -0.20241171859E+04  0.20241171859E+04  0.00000000000E+00 0.  1.
        -24    2    1    2    0    0 -0.12722707007E+02 -0.36550631566E+02 -0.15832452702E+04  0.15857739609E+04  0.80719599338E+02 0.  0.
         25    2    1    2    0    0 -0.35806190167E+02  0.80773803623E+02 -0.38289808844E+03  0.41238849848E+03  0.12508731726E+03 0.  0.
         24    2    1    2    0    0  0.48528897174E+02 -0.44223172058E+02  0.22906879247E+02  0.10683543291E+03  0.81106977507E+02 0.  0.
        -11    1    5    5    0    0  0.43443276785E+02 -0.25488364641E+01  0.42210944879E+02  0.60626551384E+02  0.00000000000E+00 0.  1.
         12    1    5    5    0    0  0.50856203884E+01 -0.41674335594E+02 -0.19304065632E+02  0.46208881525E+02  0.00000000000E+00 0. -1.
         13    1    3    3    0    0  0.19798925110E+01 -0.35304666940E+02 -0.25428372813E+03  0.25673050827E+03  0.00000000000E+00 0. -1.
        -14    1    3    3    0    0 -0.14702599518E+02 -0.12459646252E+01 -0.13289615420E+04  0.13290434527E+04  0.00000000000E+00 0.  1.
          5    1    4    4  501    0  0.32231549417E+02  0.46012862222E+02 -0.27123835643E+03  0.27702666779E+03  0.41800000000E+01 0. -1.
         -5    1    4    4    0  501 -0.68037739583E+02  0.34760941401E+02 -0.11165973201E+03  0.13536183069E+03  0.41800000000E+01 0. -1.
</event>
<event>
11    1  0.8453735E-009  0.1542815E+03  0.7561462E-02  0.1092583E+00
         22   -1    0    0    0    0  0.00000000000E+00  0.00000000000E+00  0.96041060537E+03  0.96041060537E+03  0.00000000000E+00 0.  1.
         22   -1    0    0    0    0 -0.00000000000E+00 -0.00000000000E+00 -0.12268206403E+03  0.12268206403E+03  0.00000000000E+00 0. -1.
        -24    2    1    2    0    0 -0.44135505432E+02 -0.15539618352E+02 -0.58854804933E+02  0.11026536648E+03  0.80654450604E+02 0.  0.
         25    2    1    2    0    0  0.83061327361E+02 -0.64996336938E+02  0.16769067186E+03  0.23429115717E+03  0.12509387268E+03 0.  0.
         24    2    1    2    0    0 -0.38925821929E+02  0.80535955289E+02  0.72889267442E+03  0.73853614576E+03  0.78420966984E+02 0.  0.
        -13    1    5    5    0    0 -0.37625305420E+02  0.59101827399E+02  0.26371598171E+03  0.27286408452E+03  0.00000000000E+00 0.  1.
         14    1    5    5    0    0 -0.13005165086E+01  0.21434127891E+02  0.46517669270E+03  0.46567206124E+03  0.00000000000E+00 0. -1.
         11    1    3    3    0    0 -0.56999742113E+02  0.11803228656E+02 -0.54490527178E+02  0.79733959890E+02  0.00000000000E+00 0. -1.
        -12    1    3    3    0    0  0.12864236680E+02 -0.27342847008E+02 -0.43642777553E+01  0.30531406587E+02  0.00000000000E+00 0.  1.
          5    1    4    4  501    0  0.46594239201E+02 -0.60588581873E+02  0.16053570643E+02  0.78212460072E+02  0.41800000000E+01 0.  1.
         -5    1    4    4    0  501  0.36467088159E+02 -0.44077550650E+01  0.15163710121E+03  0.15607869710E+03  0.41800000000E+01 0.  1.
</event>
<event>
11    1  0.1445953E-008  0.1650709E+03  0.7561462E-02  0.1082403E+00
         22   -1    0    0    0    0  0.00000000000E+00  0.00000000000E+00  0.35131498232E+03  0.35131498232E+03  0.00000000000E+00 0.  1.
         22   -1    0    0    0    0 -0.00000000000E+00 -0.00000000000E+00 -0.72160612648E+03  0.72160612648E+03  0.00000000000E+00 0.  1.
         24    2    1    2    0    0  0.98568330413E+01 -0.21735282897E+02 -0.41251416010E+03  0.42085954301E+03  0.79907715374E+02 0.  0.
         25    2    1    2    0    0  0.18930962306E+02  0.12463005232E+03 -0.26343251897E+03  0.31770268156E+03  0.12508905045E+03 0.  0.
        -24    2    1    2    0    0 -0.28787795348E+02 -0.10289476943E+03  0.30565553491E+03  0.33435888423E+03  0.83393565132E+02 0.  0.
        -11    1    3    3    0    0  0.39035291620E+00 -0.58849758170E+01 -0.39613563882E+03  0.39617954220E+03  0.00000000000E+00 0.  1.
         12    1    3    3    0    0  0.94664801251E+01 -0.15850307080E+02 -0.16378521285E+02  0.24680000810E+02  0.00000000000E+00 0. -1.
         13    1    5    5    0    0  0.38409008332E-01  0.14555438237E+02  0.30201960622E+02  0.33526417687E+02  0.00000000000E+00 0. -1.
        -14    1    5    5    0    0 -0.28826204356E+02 -0.11745020766E+03  0.27545357429E+03  0.30083246654E+03  0.00000000000E+00 0.  1.
          5    1    4    4  501    0 -0.23292169740E+02  0.50141797291E+01  0.11889670558E+01  0.24218860672E+02  0.41800000000E+01 0.  1.
         -5    1    4    4    0  501  0.42223132047E+02  0.11961587259E+03 -0.26462148602E+03  0.29348382088E+03  0.41800000000E+01 0.  1.
</event>
<event>
11    1  0.8453735E-009  0.1555914E+03  0.7561462E-02  0.1091299E+00
         22   -1    0    0    0    0  0.00000000000E+00  0.00000000000E+00  0.12671625852E+03  0.12671625852E+03  0.00000000000E+00 0. -1.
         22   -1    0    0    0    0 -0.00000000000E+00 -0.00000000000E+00 -0.31279264106E+04  0.31279264106E+04  0.00000000000E+00 0.  1.
        -24    2    1    2    0    0  0.84929540220E+01  0.47552204846E+02 -0.25142171814E+04  0.25159612721E+04  0.80248021889E+02 0.  0.
         25    2    1    2    0    0 -0.39143989655E+02 -0.13217907916E+03 -0.56547262461E+03  0.59532361737E+03  0.12508940530E+03 0.  0.
         24    2    1    2    0    0  0.30651035633E+02  0.84626874317E+02  0.78479653828E+02  0.14335777975E+03  0.79317104762E+02 0.  0.
        -13    1    5    5    0    0  0.33927483471E+02  0.83337527537E+02  0.30143979517E+02  0.94894031065E+02  0.00000000000E+00 0.  1.
         14    1    5    5    0    0 -0.32764478374E+01  0.12893467808E+01  0.48335674311E+02  0.48463748685E+02  0.00000000000E+00 0. -1.
         11    1    3    3    0    0 -0.26698750997E+02  0.25176496473E+02 -0.51354007598E+03  0.51484957893E+03  0.00000000000E+00 0. -1.
        -12    1    3    3    0    0  0.35191705019E+02  0.22375708373E+02 -0.20006771054E+04  0.20011116931E+04  0.00000000000E+00 0.  1.
          5    1    4    4  501    0 -0.83246675713E+02 -0.66586033555E+02 -0.34155822602E+03  0.35783124940E+03  0.41800000000E+01 0.  1.
         -5    1    4    4    0  501  0.44102686058E+02 -0.65593045608E+02 -0.22391439858E+03  0.23749236797E+03  0.41800000000E+01 0.  1.
</event>
<event>
11    1  0.8453735E-009  0.1306864E+03  0.7561462E-02  0.1118429E+00
         22   -1    0    0    0    0  0.00000000000E+00  0.00000000000E+00  0.83738494980E+03  0.83738494980E+03  0.00000000000E+00 0. -1.
         22   -1    0    0    0    0 -0.00000000000E+00 -0.00000000000E+00 -0.74576516694E+03  0.74576516694E+03  0.00000000000E+00 0.  1.
        -24    2    1    2    0    0 -0.21874539047E+02  0.20617893451E+02 -0.72717109314E+03  0.73227489011E+03  0.80901934468E+02 0.  0.
         25    2    1    2    0    0  0.30734297399E+01  0.20766550885E+02  0.33604805243E+03  0.35918871609E+03  0.12509014596E+03 0.  0.
         24    2    1    2    0    0  0.18801109307E+02 -0.41384444335E+02  0.48274282357E+03  0.49168651054E+03  0.81540401030E+02 0.  0.
        -11    1    5    5    0    0  0.22964739485E+02 -0.65999939444E+00  0.38542576243E+03  0.38610987193E+03  0.00000000000E+00 0.  1.
         12    1    5    5    0    0 -0.41636301780E+01 -0.40724444941E+02  0.97317061140E+02  0.10557663861E+03  0.00000000000E+00 0. -1.
         11    1    3    3    0    0 -0.14062488064E+02 -0.12498455306E+02 -0.39387727776E+02  0.43650407271E+02  0.00000000000E+00 0. -1.
        -12    1    3    3    0    0 -0.78120509828E+01  0.33116348757E+02 -0.68778336537E+03  0.68862448284E+03  0.00000000000E+00 0.  1.
          5    1    4    4  501    0  0.37291725478E+02 -0.38926120471E+02  0.19248136990E+03  0.19993115265E+03  0.41800000000E+01 0.  1.
         -5    1    4    4    0  501 -0.34218295738E+02  0.59692671356E+02  0.14356668254E+03  0.15925756344E+03  0.41800000000E+01 0.  1.
</event>
<event>
11    1  0.8453735E-009  0.1459013E+03  0.7561462E-02  0.1101142E+00
         22   -1    0    0    0    0  0.00000000000E+00  0.00000000000E+00  0.24160241949E+03  0.24160241949E+03  0.00000000000E+00 0.  1.
         22   -1    0    0    0    0 -0.00000000000E+00 -0.00000000000E+00 -0.54916515163E+03  0.54916515163E+03  0.00000000000E+00 0.  1.
        -24    2    1    2    0    0  0.18677224726E+02  0.30875116369E+02 -0.41710353989E+03  0.42580764741E+03  0.77683190436E+02 0.  0.
         25    2    1    2    0    0  0.58525287618E+02 -0.21831044387E+02 -0.68468186590E+02  0.15568166233E+03  0.12508830329E+03 0.  0.
         24    2    1    2    0    0 -0.77202512344E+02 -0.90440719811E+01  0.17800899434E+03  0.20927826138E+03  0.77898430490E+02 0.  0.
        -13    1    5    5    0    0 -0.60374242155E+02 -0.41343421163E+02  0.12754507794E+03  0.14704446435E+03  0.00000000000E+00 0.  1.
         14    1    5    5    0    0 -0.16828270189E+02  0.32299349182E+02  0.50463916398E+02  0.62233797035E+02  0.00000000000E+00 0. -1.
         13    1    3    3    0    0 -0.58251536957E+01 -0.77691545031E+01 -0.45486624866E+01  0.10722989681E+02  0.00000000000E+00 0. -1.
        -14    1    3    3    0    0  0.24502378422E+02  0.38644270872E+02 -0.41255487740E+03  0.41508465773E+03  0.00000000000E+00 0.  1.
          5    1    4    4  501    0  0.95106613786E+02 -0.33885977146E+02 -0.48162361931E+02  0.11194022038E+03  0.41800000000E+01 0. -1.
         -5    1    4    4    0  501 -0.36581326167E+02  0.12054932759E+02 -0.20305824660E+02  0.43741441941E+02  0.41800000000E+01 0. -1.
</event>
<event>
11    1  0.8453735E-009  0.1458700E+03  0.7561462E-02  0.1101175E+00
         22   -1    0    0    0    0  0.00000000000E+00  0.00000000000E+00  0.73832129127E+03  0.73832129127E+03  0.00000000000E+00 0.  1.
         22   -1    0    0    0    0 -0.00000000000E+00 -0.00000000000E+00 -0.22472268685E+03  0.22472268685E+03  0.00000000000E+00 0. -1.
         24    2    1    2    0    0 -0.71851781208E+01 -0.18492722682E+01 -0.15857905720E+03  0.17830163500E+03  0.81173327308E+02 0.  0.
         25    2    1    2    0    0 -0.18344734171E+02 -0.69082085101E+02  0.49319232046E+02  0.15228118523E+03  0.12509320114E+03 0.  0.
        -24    2    1    2    0    0  0.25529912292E+02  0.70931357369E+02  0.62285842958E+03  0.63246115789E+03  0.79821419817E+02 0.  0.
        -11    1    3    3    0    0 -0.77713451840E+01  0.31236274500E+02 -0.25201479091E+02  0.40880474545E+02  0.00000000000E+00 0.  1.
         12    1    3    3    0    0  0.58616706320E+00 -0.33085546768E+02 -0.13337757811E+03  0.13742116045E+03  0.00000000000E+00 0. -1.
         11    1    5    5    0    0 -0.90055882889E+01  0.31956835193E+02  0.73629231097E+02  0.80768828194E+02  0.00000000000E+00 0. -1.
        -12    1    5    5    0    0  0.34535500580E+02  0.38974522176E+02  0.54922919848E+03  0.55169232969E+03  0.00000000000E+00 0.  1.
          5    1    4    4  501    0 -0.41574570778E+02 -0.96714358214E+02  0.48371110484E+02  0.11592820515E+03  0.41800000000E+01 0.  1.
         -5    1    4    4    0  501  0.23229836607E+02  0.27632273113E+02  0.94812156293E+00  0.36352980080E+02  0.41800000000E+01 0.  1.
</event>
<event>
11    1  0.8453735E-009  0.1418555E+03  0.7561462E-02  0.1105504E+00
         22   -1    0    0    0    0  0.00000000000E+00  0.00000000000E+00  0.15401206942E+04  0.15401206942E+04  0.00000000000E+00 0. -1.
         22   -1    0    0    0    0 -0.00000000000E+00 -0.00000000000E+00 -0.41172859462E+02  0.41172859462E+02  0.00000000000E+00 0. -1.
         24    2    1    2    0    0  0.41688011818E+02  0.58765121306E+02  0.63243171215E+02  0.12718749663E+03  0.83580684261E+02 0.  0.
         25    2    1    2    0    0 -0.11400748813E+02 -0.32123282502E+02  0.62106717534E+03  0.63445631035E+03  0.12509392911E+03 0.  0.
        -24    2    1    2    0    0 -0.30287263005E+02 -0.26641838804E+02  0.81463748819E+03  0.81964974669E+03  0.81020764129E+02 0.  0.
        -11    1    3    3    0    0 -0.44492316556E+01  0.10451354795E+02  0.59179030512E+02  0.60259307428E+02  0.00000000000E+00 0.  1.
         12    1    3    3    0    0  0.46137243474E+02  0.48313766511E+02  0.40641407029E+01  0.66928189199E+02  0.00000000000E+00 0. -1.
         11    1    5    5    0    0 -0.13353173698E+02  0.22165733586E+02  0.51052362500E+03  0.51117902801E+03  0.00000000000E+00 0. -1.
        -12    1    5    5    0    0 -0.16934089307E+02 -0.48807572389E+02  0.30411386318E+03  0.30847071868E+03  0.00000000000E+00 0.  1.
          5    1    4    4  501    0 -0.39987477396E+02 -0.70058350297E+02  0.43062050429E+03  0.43813087304E+03  0.41800000000E+01 0. -1.
         -5    1    4    4    0  501  0.28586728582E+02  0.37935067795E+02  0.19044667105E+03  0.19632543731E+03  0.41800000000E+01 0. -1.
</event>
<event>
11    1  0.8453735E-009  0.1598827E+03  0.7561462E-02  0.1087188E+00
         22   -1    0    0    0    0  0.00000000000E+00  0.00000000000E+00  0.32235425252E+03  0.32235425252E+03  0.00000000000E+00 0. -1.
         22   -1    0    0    0    0 -0.00000000000E+00 -0.00000000000E+00 -0.27938415829E+03  0.27938415829E+03  0.00000000000E+00 0. -1.
         24    2    1    2    0    0 -0.87790182819E+02  0.31960590389E+00 -0.84055231564E+02  0.14517499507E+03  0.79393191736E+02 0.  0.
         25    2    1    2    0    0  0.11710795550E+03 -0.17763718508E+02 -0.11013397255E+03  0.20446600816E+03  0.12508810353E+03 0.  0.
        -24    2    1    2    0    0 -0.29317772684E+02  0.17444112604E+02  0.23715929835E+03  0.25209740758E+03  0.78388400009E+02 0.  0.
        -13    1    3    3    0    0 -0.30491917658E+02  0.38797028857E+02 -0.34658166182E+02  0.60300538752E+02  0.00000000000E+00 0.  1.
         14    1    3    3    0    0 -0.57298265161E+02 -0.38477422954E+02 -0.49397065381E+02  0.84874456322E+02  0.00000000000E+00 0. -1.
         13    1    5    5    0    0 -0.18433350350E+02  0.18621055001E+02  0.23947763269E+03  0.24090676340E+03  0.00000000000E+00 0. -1.
        -14    1    5    5    0    0 -0.10884422334E+02 -0.11769423970E+01 -0.23183343429E+01  0.11190644176E+02  0.00000000000E+00 0.  1.
          5    1    4    4  501    0  0.13761933077E+03 -0.28130949138E+02 -0.67603530057E+02  0.15594274647E+03  0.41800000000E+01 0.  1.
         -5    1    4    4    0  501 -0.20511375263E+02  0.10367230631E+02 -0.42530442497E+02  0.48523261690E+02  0.41800000000E+01 0.  1.
</event>
<event>
11    1  0.8453735E-009  0.1481769E+03  0.7561462E-02  0.1098756E+00
         22   -1    0    0    0    0  0.00000000000E+00  0.00000000000E+00  0.13616870716E+04  0.13616870716E+04  0.00000000000E+00 0.  1.
         22   -1    0    0    0    0 -0.00000000000E+00 -0.00000000000E+00 -0.17854988059E+04  0.17854988059E+04  0.00000000000E+00 0. -1.
         24    2    1    2    0    0 -0.47541459635E+02  0.32742461749E+02 -0.17398802135E+04  0.17427189567E+04  0.80956443444E+02 0.  0.
         25    2    1    2    0    0  0.17902347918E+02  0.43962086053E+02  0.66103786448E+02  0.14923889481E+03  0.12509747428E+03 0.  0.
        -24    2    1    2    0    0  0.29639111717E+02 -0.76704547801E+02  0.12499646927E+04  0.12552280260E+04  0.80147361643E+02 0.  0.
        -13    1    3    3    0    0  0.18893065605E+02 -0.29466861410E+01 -0.62422795465E+03  0.62452075246E+03  0.00000000000E+00 0.  1.
         14    1    3    3    0    0 -0.66434525240E+02  0.35689147889E+02 -0.11156522588E+04  0.11181982043E+04  0.00000000000E+00 0. -1.
         13    1    5    5    0    0 -0.16399592743E+02  0.44013507507E+00  0.43825356358E+03  0.43856051618E+03  0.00000000000E+00 0. -1.
        -14    1    5    5    0    0  0.46038704460E+02 -0.77144682876E+02  0.81171112912E+03  0.81666750979E+03  0.00000000000E+00 0.  1.
          5    1    4    4  501    0  0.15523758523E+02  0.42696582031E+02  0.10266252932E+03  0.11234345785E+03  0.41800000000E+01 0.  1.
         -5    1    4    4    0  501  0.23785893951E+01  0.12655040215E+01 -0.36558742874E+02  0.36895436960E+02  0.41800000000E+01 0.  1.
</event>
<event>
11    1  0.8453735E-009  0.1283844E+03  0.7561462E-02  0.1121270E+00
         22   -1    0    0    0    0  0.00000000000E+00  0.00000000000E+00  0.79386136542E+03  0.79386136542E+03  0.00000000000E+00 0. -1.
         22   -1    0    0    0    0 -0.00000000000E+00 -0.00000000000E+00 -0.10603293106E+03  0.10603293106E+03  0.00000000000E+00 0.  1.
        -24    2    1    2    0    0  0.18480089354E+02  0.55760294221E+01 -0.50571777996E+02  0.97836601605E+02  0.81497791856E+02 0.  0.
         25    2    1    2    0    0 -0.45690541156E+02 -0.51717302618E+01  0.12459783791E+03  0.18244590169E+03  0.12509002153E+03 0.  0.
         24    2    1    2    0    0  0.27210451802E+02 -0.40429916034E+00  0.61380237445E+03  0.61961179319E+03  0.80155144745E+02 0.  0.
        -11    1    5    5    0    0  0.10364181046E+02  0.39722179459E+02  0.28471835921E+03  0.28766267026E+03  0.00000000000E+00 0.  1.
         12    1    5    5    0    0  0.16846270756E+02 -0.40126478619E+02  0.32908401524E+03  0.33194912292E+03  0.00000000000E+00 0. -1.
         13    1    3    3    0    0  0.17882218757E+02  0.31792110385E+02  0.45853789769E+01  0.36763266052E+02  0.00000000000E+00 0. -1.
        -14    1    3    3    0    0  0.59787059711E+00 -0.26216080963E+02 -0.55157156973E+02  0.61073335553E+02  0.00000000000E+00 0.  1.
          5    1    4    4  501    0 -0.18166432769E+02  0.48762332634E+02  0.10731333816E+03  0.11933737600E+03  0.41800000000E+01 0. -1.
         -5    1    4    4    0  501 -0.27524108388E+02 -0.53934062896E+02  0.17284499750E+02  0.63108525688E+02  0.41800000000E+01 0. -1.
</event>
<event>
11    1  0.8453735E-009  0.1883128E+03  0.7561462E-02  0.1063110E+00
         22   -1    0    0    0    0  0.00000000000E+00  0.00000000000E+00  0.32071446716E+03  0.32071446716E+03  0.00000000000E+00 0.  1.
         22   -1    0    0    0    0 -0.00000000000E+00 -0.00000000000E+00 -0.33712360601E+03  0.33712360601E+03  0.00000000000E+00 0. -1.
        -24    2    1    2    0    0  0.72453767086E+02 -0.61977000057E+01 -0.21528663083E+03  0.24153077418E+03  0.81858546358E+02 0.  0.
         25    2    1    2    0    0  0.88991579517E+02 -0.39346476021E+02  0.25530066446E+02  0.16051919181E+03  0.12508789009E+03 0.  0.
         24    2    1    2    0    0 -0.16144534660E+03  0.45544176027E+02  0.17334742553E+03  0.25578810717E+03  0.85084392952E+02 0.  0.
        -13    1    5    5    0    0 -0.12927236367E+03  0.53850203899E+02  0.17297674169E+03  0.22255817584E+03  0.00000000000E+00 0.  1.
         14    1    5    5    0    0 -0.32172982935E+02 -0.83060278716E+01  0.37068384186E+00  0.33229931333E+02  0.00000000000E+00 0. -1.
         13    1    3    3    0    0  0.12776426704E+01 -0.33297591661E+02 -0.67075259662E+02  0.74896277877E+02  0.00000000000E+00 0. -1.
        -14    1    3    3    0    0  0.71176124415E+02  0.27099891655E+02 -0.14821137117E+03  0.16663449630E+03  0.00000000000E+00 0.  1.
          5    1    4    4  501    0  0.17067087802E+02  0.35484080179E+01 -0.46591043629E+02  0.49920681405E+02  0.41800000000E+01 0.  1.
         -5    1    4    4    0  501  0.71924491716E+02 -0.42894884039E+02  0.72121110075E+02  0.11059851040E+03  0.41800000000E+01 0.  1.
</event>
<event>
11    1  0.8453735E-009  0.1960957E+03  0.7561462E-02  0.1057319E+00
         22   -1    0    0    0    0  0.00000000000E+00  0.00000000000E+00  0.41548829315E+04  0.41548829315E+04  0.00000000000E+00 0. -1.
         22   -1    0    0    0    0 -0.00000000000E+00 -0.00000000000E+00 -0.46002011349E+03  0.46002011349E+03  0.00000000000E+00 0.  1.
        -24    2    1    2    0    0 -0.81990214964E+02  0.14943952213E+02 -0.12200684303E+03  0.16819737812E+03  0.80367724891E+02 0.  0.
         25    2    1    2    0    0  0.11919524317E+02 -0.14887489169E+03 -0.28283643452E+03  0.34343919413E+03  0.12509285726E+03 0.  0.
         24    2    1    2    0    0  0.70070690647E+02  0.13393093947E+03  0.40997060956E+04  0.41032664728E+04  0.79738812334E+02 0.  0.
        -11    1    5    5    0    0 -0.40099719870E+01 -0.83327580833E+01  0.13443650563E+03  0.13475417908E+03  0.00000000000E+00 0.  1.
         12    1    5    5    0    0  0.74080662634E+02  0.14226369756E+03  0.39652695900E+04  0.39685122937E+04  0.00000000000E+00 0. -1.
         11    1    3    3    0    0 -0.60157765026E+02 -0.36187605952E+01 -0.21985138594E+02  0.64151371304E+02  0.00000000000E+00 0. -1.
        -12    1    3    3    0    0 -0.21832449938E+02  0.18562712808E+02 -0.10002170443E+03  0.10404600682E+03  0.00000000000E+00 0.  1.
          5    1    4    4  501    0 -0.15340529371E+02 -0.17547792515E+01  0.68231378100E+01  0.17390764825E+02  0.41800000000E+01 0. -1.
         -5    1    4    4    0  501  0.27260053688E+02 -0.14712011243E+03 -0.28965957233E+03  0.32604842931E+03  0.41800000000E+01 0. -1.
</event>
<event>
11    1  0.8453735E-009  0.1379927E+03  0.7561462E-02  0.1109821E+00
         22   -1    0    0    0    0  0.00000000000E+00  0.00000000000E+00  0.93014875260E+02  0.93014875260E+02  0.00000000000E+00 0.  1.
         22   -1    0    0    0    0 -0.00000000000E+00 -0.00000000000E+00 -0.91086658706E+03  0.91086658706E+03  0.00000000000E+00 0.  1.
         24    2    1    2    0    0  0.52771327726E+02 -0.35841187240E+02 -0.75224479908E+03  0.75934748351E+03  0.81651449679E+02 0.  0.
         25    2    1    2    0    0 -0.58917974532E+01 -0.18244271142E+00 -0.79650203594E+02  0.14841106663E+03  0.12508774201E+03 0.  0.
        -24    2    1    2    0    0 -0.46879530273E+02  0.36023629951E+02  0.14043290875E+02  0.96122912183E+02  0.74478238128E+02 0.  0.
        -11    1    3    3    0    0  0.12761346616E+02 -0.55941319555E+02 -0.48432682083E+03  0.48771380191E+03  0.00000000000E+00 0.  1.
         12    1    3    3    0    0  0.40009981110E+02  0.20100132315E+02 -0.26791797825E+03  0.27163368159E+03  0.00000000000E+00 0. -1.
         11    1    5    5    0    0  0.38480342266E+00  0.43871831650E+02 -0.58185365582E+01  0.44257666609E+02  0.00000000000E+00 0. -1.
        -12    1    5    5    0    0 -0.47264333695E+02 -0.78482016984E+01  0.19861827433E+02  0.51865245575E+02  0.00000000000E+00 0.  1.
          5    1    4    4  501    0 -0.36875764077E+02  0.51363534410E+02 -0.29075446007E+02  0.69720073177E+02  0.41800000000E+01 0. -1.
         -5    1    4    4    0  501  0.30983966624E+02 -0.51545977121E+02 -0.50574757588E+02  0.78690993450E+02  0.41800000000E+01 0. -1.
</event>
<event>
11    1  0.8453735E-009  0.2806412E+03  0.7561462E-02  0.1008734E+00
         22   -1    0    0    0    0  0.00000000000E+00  0.00000000000E+00  0.19743307562E+03  0.19743307562E+03  0.00000000000E+00 0. -1.
         22   -1    0    0    0    0 -0.00000000000E+00 -0.00000000000E+00 -0.23668010195E+04  0.23668010195E+04  0.00000000000E+00 0.  1.
        -24    2    1    2    0    0  0.14878030508E+01  0.91598238143E+02 -0.12356301776E+04  0.12415656631E+04  0.79441231326E+02 0.  0.
         25    2    1    2    0    0 -0.13464208354E+03 -0.29639344862E+03 -0.99820895153E+03  0.10573770263E+04  0.12508995871E+03 0.  0.
         24    2    1    2    0    0  0.13315428049E+03  0.20479521048E+03  0.64471185240E+02  0.26529140573E+03  0.80943533267E+02 0.  0.
        -11    1    5    5    0    0  0.19182557822E+02  0.33547372160E+02 -0.19282022605E+02  0.43187881392E+02  0.00000000000E+00 0.  1.
         12    1    5    5    0    0  0.11397172267E+03  0.17124783832E+03  0.83753207845E+02  0.22210352433E+03  0.00000000000E+00 0. -1.
         13    1    3    3    0    0  0.49755912745E+01  0.40584234067E+02 -0.17538269541E+03  0.18008588621E+03  0.00000000000E+00 0. -1.
        -14    1    3    3    0    0 -0.34877882237E+01  0.51014004076E+02 -0.10602474822E+04  0.10614797769E+04  0.00000000000E+00 0.  1.
          5    1    4    4  501    0 -0.58834832907E+02 -0.19992700878E+03 -0.45507631399E+03  0.50054397445E+03  0.41800000000E+01 0.  1.
         -5    1    4    4    0  501 -0.75807250632E+02 -0.96466439845E+02 -0.54313263753E+03  0.55683305184E+03  0.41800000000E+01 0.  1.
</event>
<event>
11    1  0.8453735E-009  0.1827653E+03  0.7561462E-02  0.1067428E+00
         22   -1    0    0    0    0  0.00000000000E+00  0.00000000000E+00  0.22631289216E+04  0.22631289216E+04  0.00000000000E+00 0. -1.
         22   -1    0    0    0    0 -0.00000000000E+00 -0.00000000000E+00 -0.27440990529E+03  0.27440990529E+03  0.00000000000E+00 0.  1.
         24    2    1    2    0    0  0.11410372035E+01  0.20798721907E+02 -0.25047909963E+03  0.26418220042E+03  0.81354574987E+02 0.  0.
         25    2    1    2    0    0  0.84628656077E+02  0.85910177751E+02  0.55069918823E+03  0.57745642480E+03  0.12507501171E+03 0.  0.
        -24    2    1    2    0    0 -0.85769693281E+02 -0.10670889966E+03  0.16884989277E+04  0.16959002017E+04  0.79408032423E+02 0.  0.
        -13    1    3    3    0    0  0.73233649246E+01 -0.20607873051E+02 -0.18614517485E+03  0.18742556449E+03  0.00000000000E+00 0.  1.
         14    1    3    3    0    0 -0.61823277211E+01  0.41406594958E+02 -0.64333924776E+02  0.76756635929E+02  0.00000000000E+00 0. -1.
         11    1    5    5    0    0 -0.39291993224E+02 -0.92775626517E+02  0.13730260749E+04  0.13767177561E+04  0.00000000000E+00 0. -1.
        -12    1    5    5    0    0 -0.46477700057E+02 -0.13933273141E+02  0.31547285279E+03  0.31918244555E+03  0.00000000000E+00 0.  1.
          5    1    4    4  501    0 -0.61781747480E+01  0.23702598396E+02  0.11969641436E+02  0.27581293117E+02  0.41800000000E+01 0. -1.
         -5    1    4    4    0  501  0.90806830825E+02  0.62207579356E+02  0.53872954679E+03  0.54987513168E+03  0.41800000000E+01 0. -1.
</event>
<event>
11    1  0.8453735E-009  0.2112555E+03  0.7561462E-02  0.1046838E+00
         22   -1    0    0    0    0  0.00000000000E+00  0.00000000000E+00  0.31287763312E+03  0.31287763312E+03  0.00000000000E+00 0. -1.
         22   -1    0    0    0    0 -0.00000000000E+00 -0.00000000000E+00 -0.14462914150E+04  0.14462914150E+04  0.00000000000E+00 0. -1.
         24    2    1    2    0    0 -0.15130766640E+03  0.60107837801E+02 -0.10863142203E+04  0.11013977193E+04  0.80569155556E+02 0.  0.
         25    2    1    2    0    0  0.20301536580E+03 -0.69875950767E+02 -0.29823171873E+03  0.38818716603E+03  0.12509688473E+03 0.  0.
        -24    2    1    2    0    0 -0.51707699402E+02  0.97681129663E+01  0.25113215712E+03  0.26958416279E+03  0.82699203603E+02 0.  0.
        -13    1    3    3    0    0 -0.47589395789E+02 -0.14674444155E+02 -0.41847211248E+03  0.42142496228E+03  0.00000000000E+00 0.  1.
         14    1    3    3    0    0 -0.10371827061E+03  0.74782281956E+02 -0.66784210777E+03  0.67997275700E+03  0.00000000000E+00 0. -1.
         13    1    5    5    0    0 -0.69425554555E+02  0.11416997783E+02  0.23587367165E+03  0.24614354438E+03  0.00000000000E+00 0. -1.
        -14    1    5    5    0    0  0.17717855153E+02 -0.16488848164E+01  0.15258485477E+02  0.23440618409E+02  0.00000000000E+00 0.  1.
          5    1    4    4  501    0  0.12125868225E+03  0.72179540759E+01 -0.88979967676E+02  0.15063423890E+03  0.41800000000E+01 0. -1.
         -5    1    4    4    0  501  0.81756683552E+02 -0.77093904843E+02 -0.20925175106E+03  0.23755292713E+03  0.41800000000E+01 0. -1.
</event>
<event>
11    1  0.8453735E-009  0.1376510E+03  0.7561462E-02  0.1110210E+00
         22   -1    0    0    0    0  0.00000000000E+00  0.00000000000E+00  0.11342383497E+04  0.11342383497E+04  0.00000000000E+00 0. -1.
         22   -1    0    0    0    0 -0.00000000000E+00 -0.00000000000E+00 -0.39972661780E+03  0.39972661780E+03  0.00000000000E+00 0. -1.
        -24    2    1    2    0    0 -0.43411682505E+02  0.17536111390E+02 -0.26574995413E+03  0.28044140026E+03  0.76369178837E+02 0.  0.
         25    2    1    2    0    0  0.87203614112E+02  0.19025788678E+02 -0.76906525623E+02  0.17183925102E+03  0.12509062139E+03 0.  0.
         24    2    1    2    0    0 -0.43791931607E+02 -0.36561900068E+02  0.10771682116E+04  0.10816843162E+04  0.80592170403E+02 0.  0.
        -11    1    5    5    0    0  0.21557360522E+02 -0.16980516383E+02  0.20106022037E+03  0.20292429609E+03  0.00000000000E+00 0.  1.
         12    1    5    5    0    0 -0.65349292129E+02 -0.19581383685E+02  0.87610799126E+03  0.87876002010E+03  0.00000000000E+00 0. -1.
         11    1    3    3    0    0 -0.20079428856E+02 -0.25680618056E+02 -0.16700711459E+03  0.17015890788E+03  0.00000000000E+00 0. -1.
        -12    1    3    3    0    0 -0.23332253649E+02  0.43216729445E+02 -0.98742839546E+02  0.11028249238E+03  0.00000000000E+00 0.  1.
          5    1    4    4  501    0  0.95512625447E+02 -0.86679678398E+00 -0.10111233837E+03  0.13915671139E+03  0.41800000000E+01 0. -1.
         -5    1    4    4    0  501 -0.83090113349E+01  0.19892585462E+02  0.24205812743E+02  0.32682539624E+02  0.41800000000E+01 0. -1.
</event>
<event>
11    1  0.8453735E-009  0.5022593E+03  0.7561462E-02  0.9388487E-01
         22   -1    0    0    0    0  0.00000000000E+00  0.00000000000E+00  0.21167504213E+04  0.21167504213E+04  0.00000000000E+00 0.  1.
         22   -1    0    0    0    0 -0.00000000000E+00 -0.00000000000E+00 -0.88500387219E+03  0.88500387219E+03  0.00000000000E+00 0. -1.
         24    2    1    2    0    0  0.44171526374E+02  0.22212931011E+01 -0.61220768878E+03  0.61916726124E+03  0.81325182491E+02 0.  0.
         25    2    1    2    0    0 -0.49685960723E+03 -0.16555572904E+03  0.70305874135E+02  0.54301775294E+03  0.12508874994E+03 0.  0.
        -24    2    1    2    0    0  0.45268808085E+03  0.16333443594E+03  0.17736483638E+04  0.18395692793E+04  0.81129394345E+02 0.  0.
        -11    1    3    3    0    0 -0.90215965187E+01 -0.29277350835E+02 -0.21783309234E+03  0.21997683650E+03  0.00000000000E+00 0.  1.
         12    1    3    3    0    0  0.53193122893E+02  0.31498643936E+02 -0.39437459644E+03  0.39919042475E+03  0.00000000000E+00 0. -1.
         13    1    5    5    0    0  0.37572083040E+03  0.16326154632E+03  0.14383513546E+04  0.14955517692E+04  0.00000000000E+00 0. -1.
        -14    1    5    5    0    0  0.76967250448E+02  0.72889614629E-01  0.33529700913E+03  0.34401751014E+03  0.00000000000E+00 0.  1.
          5    1    4    4  501    0 -0.11889863155E+03 -0.95720488401E+02  0.26083156477E+01  0.15272056899E+03  0.41800000000E+01 0.  1.
         -5    1    4    4    0  501 -0.37796097568E+03 -0.69835240636E+02  0.67697558487E+02  0.39029718395E+03  0.41800000000E+01 0.  1.
</event>
<event>
11    1  0.8453735E-009  0.1401253E+03  0.7561462E-02  0.1107419E+00
         22   -1    0    0    0    0  0.00000000000E+00  0.00000000000E+00  0.18722335341E+03  0.18722335341E+03  0.00000000000E+00 0. -1.
         22   -1    0    0    0    0 -0.00000000000E+00 -0.00000000000E+00 -0.19124912703E+04  0.19124912703E+04  0.00000000000E+00 0. -1.
        -24    2    1    2    0    0 -0.60363931366E+02  0.18820838711E+02 -0.18303980629E+04  0.18331097929E+04  0.77048139967E+02 0.  0.
         25    2    1    2    0    0  0.38587077321E+02 -0.65622070879E+02  0.53224101444E+02  0.15580681983E+03  0.12509093256E+03 0.  0.
         24    2    1    2    0    0  0.21776854045E+02  0.46801232168E+02  0.51906044527E+02  0.11079801104E+03  0.83170758607E+02 0.  0.
        -13    1    5    5    0    0  0.71100233615E+01  0.26586118011E+02 -0.20428042460E+02  0.34273590735E+02  0.00000000000E+00 0.  1.
         14    1    5    5    0    0  0.14666830683E+02  0.20215114157E+02  0.72334086987E+02  0.76524420305E+02  0.00000000000E+00 0. -1.
         11    1    3    3    0    0 -0.24849156604E+02  0.15466003447E+02 -0.15707473841E+04  0.15710200580E+04  0.00000000000E+00 0. -1.
        -12    1    3    3    0    0 -0.35514774762E+02  0.33548352638E+01 -0.25965067881E+03  0.26208973492E+03  0.00000000000E+00 0.  1.
          5    1    4    4  501    0 -0.25762159972E+01  0.40856127551E+01  0.72258293654E+02  0.72540075285E+02  0.41800000000E+01 0.  1.
         -5    1    4    4    0  501  0.41163293319E+02 -0.69707683634E+02 -0.19034192210E+02  0.83266744548E+02  0.41800000000E+01 0.  1.
</event>
<event>
11    1  0.8453735E-009  0.1705370E+03  0.7561462E-02  0.1077565E+00
         22   -1    0    0    0    0  0.00000000000E+00  0.00000000000E+00  0.23767568127E+03  0.23767568127E+03  0.00000000000E+00 0.  1.
         22   -1    0    0    0    0 -0.00000000000E+00 -0.00000000000E+00 -0.82940962648E+03  0.82940962648E+03  0.00000000000E+00 0.  1.
        -24    2    1    2    0    0 -0.46689264513E+02  0.14641968679E+02 -0.70284514372E+03  0.70909965001E+03  0.80229314674E+02 0.  0.
         25    2    1    2    0    0  0.14932812821E+03 -0.24782285745E+02  0.15758374739E+02  0.19700430517E+03  0.12509723547E+03 0.  0.
         24    2    1    2    0    0 -0.10263886369E+03  0.10140317066E+02  0.95352823769E+02  0.16098135256E+03  0.78646503435E+02 0.  0.
        -11    1    5    5    0    0 -0.11426090352E+03  0.86770255944E+01  0.73351946864E+02  0.13605643298E+03  0.00000000000E+00 0.  1.
         12    1    5    5    0    0  0.11622039828E+02  0.14632914715E+01  0.22000876905E+02  0.24924919584E+02  0.00000000000E+00 0. -1.
         11    1    3    3    0    0 -0.53223880850E+01  0.10631877253E+02 -0.11615877777E+02  0.16622071031E+02  0.00000000000E+00 0. -1.
        -12    1    3    3    0    0 -0.41366876428E+02  0.40100914266E+01 -0.69122926594E+03  0.69247757898E+03  0.00000000000E+00 0.  1.
          5    1    4    4  501    0  0.61626703423E+02 -0.69598162650E+02 -0.13841933095E+02  0.94078830407E+02  0.41800000000E+01 0. -1.
         -5    1    4    4    0  501  0.87701424783E+02  0.44815876904E+02  0.29600307833E+02  0.10292547476E+03  0.41800000000E+01 0. -1.
</event>
<event>
11    1  0.8453735E-009  0.3388999E+03  0.7561462E-02  0.9849517E-01
         22   -1    0    0    0    0  0.00000000000E+00  0.00000000000E+00  0.94153313889E+03  0.94153313889E+03  0.00000000000E+00 0. -1.
         22   -1    0    0    0    0 -0.00000000000E+00 -0.00000000000E+00 -0.20950254301E+03  0.20950254301E+03  0.00000000000E+00 0. -1.
         24    2    1    2    0    0  0.10510474045E+03 -0.31535478196E+02 -0.16599912823E+02  0.13634098464E+03  0.79194786052E+02 0.  0.
         25    2    1    2    0    0  0.17912515745E+03  0.21995115296E+03  0.21900399306E+03  0.37957593223E+03  0.12510318795E+03 0.  0.
        -24    2    1    2    0    0 -0.28422989790E+03 -0.18841567476E+03  0.52962651564E+03  0.63511876502E+03  0.81144921286E+02 0.  0.
        -11    1    3    3    0    0  0.50857700005E+02 -0.35847103772E+02 -0.43221357236E+02  0.75760188886E+02  0.00000000000E+00 0.  1.
         12    1    3    3    0    0  0.54247040444E+02  0.43116255755E+01  0.26621444413E+02  0.60580795758E+02  0.00000000000E+00 0. -1.
         11    1    5    5    0    0 -0.23541427426E+03 -0.16771308671E+03  0.38754361044E+03  0.48346417652E+03  0.00000000000E+00 0. -1.
        -12    1    5    5    0    0 -0.48815623636E+02 -0.20702588047E+02  0.14208290520E+03  0.15165458850E+03  0.00000000000E+00 0.  1.
          5    1    4    4  501    0  0.11192656695E+03  0.11504370204E+03  0.47279875648E+02  0.16737822083E+03  0.41800000000E+01 0.  1.
         -5    1    4    4    0  501  0.67198590503E+02  0.10490745092E+03  0.17172411741E+03  0.21219771140E+03  0.41800000000E+01 0.  1.
</event>
<event>
11    1  0.8453735E-009  0.2504032E+03  0.7561462E-02  0.1023685E+00
         22   -1    0    0    0    0  0.00000000000E+00  0.00000000000E+00  0.48645216808E+03  0.48645216808E+03  0.00000000000E+00 0. -1.
         22   -1    0    0    0    0 -0.00000000000E+00 -0.00000000000E+00 -0.72918609665E+03  0.72918609665E+03  0.00000000000E+00 0. -1.
        -24    2    1    2    0    0 -0.16974220645E+03 -0.14291868185E+03 -0.57876636342E+03  0.62489167241E+03  0.79252334650E+02 0.  0.
         25    2    1    2    0    0  0.20377605013E+03  0.46421708179E+02  0.14920986759E+02  0.24402853303E+03  0.12509050920E+03 0.  0.
         24    2    1    2    0    0 -0.34033843679E+02  0.96496973669E+02  0.32111144809E+03  0.34671805929E+03  0.81430228425E+02 0.  0.
        -11    1    5    5    0    0 -0.85241854688E+00 -0.14687918444E+02  0.38415283651E+02  0.41136304933E+02  0.00000000000E+00 0.  1.
         12    1    5    5    0    0 -0.33181425132E+02  0.11118489211E+03  0.28269616444E+03  0.30558175436E+03  0.00000000000E+00 0. -1.
         11    1    3    3    0    0 -0.10110263948E+03 -0.46092678061E+02 -0.34931334993E+03  0.36655981111E+03  0.00000000000E+00 0. -1.
        -12    1    3    3    0    0 -0.68639566967E+02 -0.96826003786E+02 -0.22945301349E+03  0.25833186130E+03  0.00000000000E+00 0.  1.
          5    1    4    4  501    0  0.44875841903E+02  0.45276422723E+02 -0.40551190328E+02  0.75668137800E+02  0.41800000000E+01 0. -1.
         -5    1    4    4    0  501  0.15890020822E+03  0.11452854562E+01  0.55472177087E+02  0.16836039523E+03  0.41800000000E+01 0. -1.
</event>
<event>
11    1  0.8453735E-009  0.1726320E+03  0.7561462E-02  0.1075764E+00
         22   -1    0    0    0    0  0.00000000000E+00  0.00000000000E+00  0.14975960242E+04  0.14975960242E+04  0.00000000000E+00 0. -1.
         22   -1    0    0    0    0 -0.00000000000E+00 -0.00000000000E+00 -0.87561104549E+02  0.87561104549E+02  0.00000000000E+00 0. -1.
         24    2    1    2    0    0  0.13475788840E+02  0.33587326620E+02 -0.41903929585E+01  0.87278022304E+02  0.79310707914E+02 0.  0.
         25    2    1    2    0    0 -0.11804922879E+03 -0.84509720256E+02  0.20565140085E+03  0.28110275426E+03  0.12509495012E+03 0.  0.
        -24    2    1    2    0    0  0.10457343995E+03  0.50922393637E+02  0.12085739117E+04  0.12167763522E+04  0.79781555070E+02 0.  0.
        -11    1    3    3    0    0 -0.30392976008E+01  0.55735698234E+02  0.92077106244E+01  0.56572849694E+02  0.00000000000E+00 0.  1.
         12    1    3    3    0    0  0.16515086441E+02 -0.22148371615E+02 -0.13398103583E+02  0.30705172609E+02  0.00000000000E+00 0. -1.
         13    1    5    5    0    0  0.84290111412E+02  0.70562140492E+02  0.84732666552E+03  0.85442747887E+03  0.00000000000E+00 0. -1.
        -14    1    5    5    0    0  0.20283328538E+02 -0.19639746856E+02  0.36124724623E+03  0.36234887330E+03  0.00000000000E+00 0.  1.
          5    1    4    4  501    0 -0.11182151862E+03 -0.39275885016E+02  0.69542510836E+02  0.13747829059E+03  0.41800000000E+01 0. -1.
         -5    1    4    4    0  501 -0.62277101715E+01 -0.45233835240E+02  0.13610889001E+03  0.14362446367E+03  0.41800000000E+01 0. -1.
</event>
<event>
11    1  0.8453735E-009  0.1656016E+03  0.7561462E-02  0.1081924E+00
         22   -1    0    0    0    0  0.00000000000E+00  0.00000000000E+00  0.16779122765E+04  0.16779122765E+04  0.00000000000E+00 0. -1.
         22   -1    0    0    0    0 -0.00000000000E+00 -0.00000000000E+00 -0.71729619680E+03  0.71729619680E+03  0.00000000000E+00 0. -1.
         24    2    1    2    0    0 -0.18871597786E+02  0.10684081318E+03 -0.69126582339E+03  0.70419120644E+03  0.79156301574E+02 0.  0.
         25    2    1    2    0    0 -0.38157068511E+01 -0.11241751951E+03  0.37063025958E+03  0.40702113252E+03  0.12508858738E+03 0.  0.
        -24    2    1    2    0    0  0.22687304637E+02  0.55767063287E+01  0.12812516435E+04  0.12839961343E+04  0.80588370968E+02 0.  0.
        -13    1    3    3    0    0 -0.66683858483E+01 -0.79573290911E+01 -0.16898227765E+03  0.16930090554E+03  0.00000000000E+00 0.  1.
         14    1    3    3    0    0 -0.12203211938E+02  0.11479814227E+03 -0.52228354574E+03  0.53489030090E+03  0.00000000000E+00 0. -1.
         11    1    5    5    0    0  0.55221358019E+01  0.28197925207E+02  0.11125714843E+04  0.11129424624E+04  0.00000000000E+00 0. -1.
        -12    1    5    5    0    0  0.17165168835E+02 -0.22621218879E+02  0.16868015919E+03  0.17105367190E+03  0.00000000000E+00 0.  1.
          5    1    4    4  501    0 -0.59457666571E+02 -0.77773416890E+02  0.26612111875E+03  0.28358744812E+03  0.41800000000E+01 0. -1.
         -5    1    4    4    0  501  0.55641959720E+02 -0.34644102618E+02  0.10450914083E+03  0.12343368440E+03  0.41800000000E+01 0. -1.
</event>
<event>
11    1  0.8453735E-009  0.1619057E+03  0.7561462E-02  0.1085299E+00
         22   -1    0    0    0    0  0.00000000000E+00  0.00000000000E+00  0.28539210193E+03  0.28539210193E+03  0.00000000000E+00 0. -1.
         22   -1    0    0    0    0 -0.00000000000E+00 -0.00000000000E+00 -0.11417051636E+04  0.11417051636E+04  0.00000000000E+00 0. -1.
        -24    2    1    2    0    0  0.85437412779E+01  0.19071645964E+02 -0.10138480726E+04  0.10172003441E+04  0.79824197869E+02 0.  0.
         25    2    1    2    0    0  0.91755485036E+02  0.11387865283E+02 -0.50826207573E+02  0.16364505677E+03  0.12509056207E+03 0.  0.
         24    2    1    2    0    0 -0.10029922631E+03 -0.30459511247E+02  0.20836121847E+03  0.24625186468E+03  0.78980167579E+02 0.  0.
        -11    1    5    5    0    0 -0.26108420129E+02  0.21940739737E+02  0.95339281544E+02  0.10125524316E+03  0.00000000000E+00 0.  1.
         12    1    5    5    0    0 -0.74190806184E+02 -0.52400250984E+02  0.11302193692E+03  0.14499662152E+03  0.00000000000E+00 0. -1.
         11    1    3    3    0    0 -0.45998224627E+01  0.48244027630E+02 -0.71609622117E+03  0.71773424228E+03  0.00000000000E+00 0. -1.
        -12    1    3    3    0    0  0.13143563741E+02 -0.29172381665E+02 -0.29775185140E+03  0.29946610181E+03  0.00000000000E+00 0.  1.
          5    1    4    4  501    0 -0.11640772956E+02 -0.30950083893E+02 -0.38866366197E+02  0.51200411222E+02  0.41800000000E+01 0.  1.
         -5    1    4    4    0  501  0.10339625799E+03  0.42337949175E+02 -0.11959841376E+02  0.11244464555E+03  0.41800000000E+01 0.  1.
</event>
<event>
11    1  0.8453735E-009  0.1292685E+03  0.7561462E-02  0.1120171E+00
         22   -1    0    0    0    0  0.00000000000E+00  0.00000000000E+00  0.47150733759E+03  0.47150733759E+03  0.00000000000E+00 0.  1.
         22   -1    0    0    0    0 -0.00000000000E+00 -0.00000000000E+00 -0.66661349666E+03  0.66661349666E+03  0.00000000000E+00 0. -1.
         24    2    1    2    0    0  0.11455925284E+02 -0.30902718000E+02 -0.62948610651E+03  0.63535692706E+03  0.79620664854E+02 0.  0.
         25    2    1    2    0    0  0.13044636368E+02  0.20673656141E+02  0.11310367458E+03  0.17040555945E+03  0.12509216959E+03 0.  0.
        -24    2    1    2    0    0 -0.24500561651E+02  0.10229061859E+02  0.32127627286E+03  0.33235834773E+03  0.80862331005E+02 0.  0.
        -13    1    3    3    0    0 -0.85851161069E+01  0.12129822964E+02 -0.25544924163E+02  0.29553002795E+02  0.00000000000E+00 0.  1.
         14    1    3    3    0    0  0.20041041391E+02 -0.43032540964E+02 -0.60394118235E+03  0.60580392427E+03  0.00000000000E+00 0. -1.
         13    1    5    5    0    0 -0.46693949747E+02 -0.10772081634E+02  0.12788931880E+03  0.13657247361E+03  0.00000000000E+00 0. -1.
        -14    1    5    5    0    0  0.22193388096E+02  0.21001143493E+02  0.19338695407E+03  0.19578587412E+03  0.00000000000E+00 0.  1.
          5    1    4    4  501    0 -0.39749282378E+02  0.43667221771E+01  0.10742490008E+03  0.11470246410E+03  0.41800000000E+01 0.  1.
         -5    1    4    4    0  501  0.52793918746E+02  0.16306933964E+02  0.56787744912E+01  0.55703095350E+02  0.41800000000E+01 0.  1.
</event>
<event>
11    1  0.8453735E-009  0.1896988E+03  0.7561462E-02  0.1062057E+00
         22   -1    0    0    0    0  0.00000000000E+00  0.00000000000E+00  0.39848319849E+03  0.39848319849E+03  0.00000000000E+00 0. -1.
         22   -1    0    0    0    0 -0.00000000000E+00 -0.00000000000E+00 -0.70935072763E+03  0.70935072763E+03  0.00000000000E+00 0. -1.
        -24    2    1    2    0    0 -0.13262252220E+03 -0.37926289506E+02 -0.53929136045E+03  0.56062800986E+03  0.66644258180E+02 0.  0.
         25    2    1    2    0    0  0.15934541674E+03  0.86284298039E+02 -0.72461813258E+02  0.23180236898E+03  0.12508270047E+03 0.  0.
         24    2    1    2    0    0 -0.26722894540E+02 -0.48358008533E+02  0.30088564456E+03  0.31540354729E+03  0.76776405609E+02 0.  0.
        -11    1    5    5    0    0  0.47381275039E+01 -0.18593826905E+02  0.10632343724E+02  0.21936886385E+02  0.00000000000E+00 0.  1.
         12    1    5    5    0    0 -0.31461022044E+02 -0.29764181628E+02  0.29025330083E+03  0.29346666090E+03  0.00000000000E+00 0. -1.
         11    1    3    3    0    0 -0.14446281277E+02 -0.14028792574E+02 -0.19099537100E+03  0.19205398670E+03  0.00000000000E+00 0. -1.
        -12    1    3    3    0    0 -0.11817624092E+03 -0.23897496933E+02 -0.34829598945E+03  0.36857402315E+03  0.00000000000E+00 0.  1.
          5    1    4    4  501    0  0.43184586297E+02  0.57860569378E+02 -0.84865257439E+02  0.11150039598E+03  0.41800000000E+01 0. -1.
         -5    1    4    4    0  501  0.11616083044E+03  0.28423728660E+02  0.12403444181E+02  0.12030197300E+03  0.41800000000E+01 0. -1.
</event>
<event>
11    1  0.8453735E-009  0.1721269E+03  0.7561462E-02  0.1076195E+00
         22   -1    0    0    0    0  0.00000000000E+00  0.00000000000E+00  0.28741045990E+03  0.28741045990E+03  0.00000000000E+00 0. -1.
         22   -1    0    0    0    0 -0.00000000000E+00 -0.00000000000E+00 -0.65378554459E+03  0.65378554459E+03  0.00000000000E+00 0. -1.
         24    2    1    2    0    0 -0.29364745827E+02  0.14539753567E+02 -0.52494558151E+03  0.53194550081E+03  0.79526470811E+02 0.  0.
         25    2    1    2    0    0 -0.30790209533E+02  0.93253051473E+02 -0.38228203186E+02  0.16356853555E+03  0.12509636961E+03 0.  0.
        -24    2    1    2    0    0  0.60154955360E+02 -0.10779280504E+03  0.19679870001E+03  0.24568196813E+03  0.79949944763E+02 0.  0.
        -11    1    3    3    0    0 -0.29547054122E+02  0.16528554424E+02 -0.78428455769E+02  0.85423908790E+02  0.00000000000E+00 0.  1.
         12    1    3    3    0    0  0.18230829464E+00 -0.19888008573E+01 -0.44651712574E+03  0.44652159203E+03  0.00000000000E+00 0. -1.
         13    1    5    5    0    0  0.68499837104E+02 -0.46784226411E+02  0.13495523468E+03  0.15841056433E+03  0.00000000000E+00 0. -1.
        -14    1    5    5    0    0 -0.83448817436E+01 -0.61008578629E+02  0.61843465330E+02  0.87271403803E+02  0.00000000000E+00 0.  1.
          5    1    4    4  501    0  0.29255093867E+02  0.81253380849E+02 -0.51690870050E+02  0.10073425864E+03  0.41800000000E+01 0.  1.
         -5    1    4    4    0  501 -0.60045303400E+02  0.11999670624E+02  0.13462666864E+02  0.62834276908E+02  0.41800000000E+01 0.  1.
</event>
<event>
11    1  0.8453735E-009  0.1709069E+03  0.7561462E-02  0.1077245E+00
         22   -1    0    0    0    0  0.00000000000E+00  0.00000000000E+00  0.51554697807E+03  0.51554697807E+03  0.00000000000E+00 0.  1.
         22   -1    0    0    0    0 -0.00000000000E+00 -0.00000000000E+00 -0.61428753945E+03  0.61428753945E+03  0.00000000000E+00 0. -1.
        -24    2    1    2    0    0  0.21042756935E+02  0.11332775775E+03 -0.53566602743E+03  0.55379685259E+03  0.80416930442E+02 0.  0.
         25    2    1    2    0    0 -0.14190860716E+02 -0.13296694431E+03  0.63444593449E+02  0.19378861566E+03  0.12508885767E+03 0.  0.
         24    2    1    2    0    0 -0.68518962186E+01  0.19639186564E+02  0.37348087260E+03  0.38224904927E+03  0.78700237255E+02 0.  0.
        -11    1    5    5    0    0  0.23957410306E+02 -0.59018416857E+01  0.27268814428E+03  0.27380214256E+03  0.00000000000E+00 0.  1.
         12    1    5    5    0    0 -0.30809306524E+02  0.25541028249E+02  0.10079272832E+03  0.10844690671E+03  0.00000000000E+00 0. -1.
         13    1    3    3    0    0  0.30199584278E+02  0.43907607879E+02 -0.37176593077E+03  0.37556597316E+03  0.00000000000E+00 0. -1.
        -14    1    3    3    0    0 -0.91568273432E+01  0.69420149871E+02 -0.16390009666E+03  0.17823087942E+03  0.00000000000E+00 0.  1.
          5    1    4    4  501    0  0.54805585492E+02 -0.44211885401E+02  0.21795843046E+02  0.73830035798E+02  0.41800000000E+01 0.  1.
         -5    1    4    4    0  501 -0.68996446208E+02 -0.88755058913E+02  0.41648750403E+02  0.11995857986E+03  0.41800000000E+01 0.  1.
</event>
<event>
11    1  0.8453735E-009  0.1880562E+03  0.7561462E-02  0.1063306E+00
         22   -1    0    0    0    0  0.00000000000E+00  0.00000000000E+00  0.23656675347E+03  0.23656675347E+03  0.00000000000E+00 0. -1.
         22   -1    0    0    0    0 -0.00000000000E+00 -0.00000000000E+00 -0.10424613212E+04  0.10424613212E+04  0.00000000000E+00 0.  1.
        -24    2    1    2    0    0  0.54380370238E+02 -0.23909667487E+02 -0.82429847177E+03  0.83100386516E+03  0.87008944893E+02 0.  0.
         25    2    1    2    0    0 -0.18528550598E+03  0.28114715730E+02 -0.10695461824E+03  0.24941399027E+03  0.12508753819E+03 0.  0.
         24    2    1    2    0    0  0.13090513575E+03 -0.42050482426E+01  0.12535852232E+03  0.19861021920E+03  0.81101313539E+02 0.  0.
        -11    1    5    5    0    0  0.35082203822E+02  0.25918700615E+02  0.83659775424E+01  0.44413169745E+02  0.00000000000E+00 0.  1.
         12    1    5    5    0    0  0.95822931925E+02 -0.30123748858E+02  0.11699254478E+03  0.15419704946E+03  0.00000000000E+00 0. -1.
         11    1    3    3    0    0  0.23352109171E+02 -0.16403260829E+02 -0.64453498767E+02  0.70488591076E+02  0.00000000000E+00 0. -1.
        -12    1    3    3    0    0  0.31028261067E+02 -0.75064066579E+01 -0.75984497300E+03  0.76051527409E+03  0.00000000000E+00 0.  1.
          5    1    4    4  501    0 -0.63159605520E+02 -0.32324471839E+02  0.74235937408E+01  0.71460404373E+02  0.41800000000E+01 0. -1.
         -5    1    4    4    0  501 -0.12212590046E+03  0.60439187568E+02 -0.11437821198E+03  0.17795358590E+03  0.41800000000E+01 0. -1.
</event>
<event>
11    1  0.8453735E-009  0.1433089E+03  0.7561462E-02  0.1103919E+00
         22   -1    0    0    0    0  0.00000000000E+00  0.00000000000E+00  0.61126235081E+03  0.61126235081E+03  0.00000000000E+00 0. -1.
         22   -1    0    0    0    0 -0.00000000000E+00 -0.00000000000E+00 -0.44192594674E+03  0.44192594674E+03  0.00000000000E+00 0.  1.
        -24    2    1    2    0    0 -0.66322966499E+02  0.12613571748E+02 -0.37521833599E+03  0.38973227740E+03  0.80898765803E+02 0.  0.
         25    2    1    2    0    0  0.10822500162E+03 -0.45389051242E+02  0.80982265475E+02  0.18967932838E+03  0.12508918157E+03 0.  0.
         24    2    1    2    0    0 -0.41902035116E+02  0.32775479494E+02  0.46357247459E+03  0.47377669177E+03  0.82066447862E+02 0.  0.
        -11    1    5    5    0    0 -0.53342474102E+02  0.18128221836E+02  0.15987887050E+03  0.16951491145E+03  0.00000000000E+00 0.  1.
         12    1    5    5    0    0  0.11440438986E+02  0.14647257658E+02  0.30369360409E+03  0.30426178032E+03  0.00000000000E+00 0. -1.
         13    1    3    3    0    0  0.14416935979E+02  0.39336575905E+01 -0.17974444418E+02  0.23375250955E+02  0.00000000000E+00 0. -1.
        -14    1    3    3    0    0 -0.80739902478E+02  0.86799141577E+01 -0.35724389157E+03  0.36635702644E+03  0.00000000000E+00 0.  1.
          5    1    4    4  501    0  0.12663219477E+03 -0.54081177015E+01  0.66236319710E+02  0.14307229969E+03  0.41800000000E+01 0.  1.
         -5    1    4    4    0  501 -0.18407193157E+02 -0.39980933540E+02  0.14745945765E+02  0.46607028689E+02  0.41800000000E+01 0.  1.
</event>
<event>
11    1  0.8453735E-009  0.1457063E+03  0.7561462E-02  0.1101349E+00
         22   -1    0    0    0    0  0.00000000000E+00  0.00000000000E+00  0.17571489167E+03  0.17571489167E+03  0.00000000000E+00 0. -1.
         22   -1    0    0    0    0 -0.00000000000E+00 -0.00000000000E+00 -0.79947434765E+03  0.79947434765E+03  0.00000000000E+00 0. -1.
        -24    2    1    2    0    0  0.18912418658E+02  0.34529884096E+02 -0.65334516516E+03  0.65953167626E+03  0.81068703415E+02 0.  0.
         25    2    1    2    0    0 -0.90119572611E+02 -0.33478449601E+02 -0.64894387161E+02  0.17058857809E+03  0.12508731964E+03 0.  0.
         24    2    1    2    0    0  0.71207153954E+02 -0.10514344950E+01  0.94480096342E+02  0.14506898496E+03  0.83946158370E+02 0.  0.
        -13    1    5    5    0    0 -0.40723910988E+01 -0.11183427327E+02 -0.10240516515E+02  0.15701006163E+02  0.00000000000E+00 0.  1.
         14    1    5    5    0    0  0.75279545053E+02  0.10131992832E+02  0.10472061286E+03  0.12936797880E+03  0.00000000000E+00 0. -1.
         13    1    3    3    0    0  0.38443675496E+02 -0.11488866237E+02 -0.29505014857E+03  0.29776584828E+03  0.00000000000E+00 0. -1.
        -14    1    3    3    0    0 -0.19531256839E+02  0.46018750333E+02 -0.35829501660E+03  0.36176582798E+03  0.00000000000E+00 0.  1.
          5    1    4    4  501    0 -0.20858974704E+02  0.12761932826E+02  0.33455078891E+02  0.41649471290E+02  0.41800000000E+01 0.  1.
         -5    1    4    4    0  501 -0.69260597908E+02 -0.46240382427E+02 -0.98349466052E+02  0.12893910680E+03  0.41800000000E+01 0.  1.
</event>
<event>
11    1  0.8453735E-009  0.2399970E+03  0.7561462E-02  0.1029367E+00
         22   -1    0    0    0    0  0.00000000000E+00  0.00000000000E+00  0.24560462577E+04  0.24560462577E+04  0.00000000000E+00 0. -1.
         22   -1    0    0    0    0 -0.00000000000E+00 -0.00000000000E+00 -0.20753310349E+03  0.20753310349E+03  0.00000000000E+00 0. -1.
        -24    2    1    2    0    0  0.13610425920E+03  0.14757600862E+03 -0.10627723615E+03  0.24035479476E+03  0.78565442451E+02 0.  0.
         25    2    1    2    0    0 -0.16455995729E+03 -0.17176204880E+03  0.51143409127E+03  0.57774936358E+03  0.12508923397E+03 0.  0.
         24    2    1    2    0    0  0.28455698092E+02  0.24186040177E+02  0.18433562991E+04  0.18454752029E+04  0.80134809049E+02 0.  0.
        -13    1    5    5    0    0 -0.16548758986E+02 -0.16118028647E+02  0.27973427590E+03  0.28068651087E+03  0.00000000000E+00 0.  1.
         14    1    5    5    0    0  0.45004457078E+02  0.40304068823E+02  0.15636220232E+04  0.15647886920E+04  0.00000000000E+00 0. -1.
         13    1    3    3    0    0  0.12153961399E+03  0.88195336932E+02 -0.96333051021E+02  0.17841062733E+03  0.00000000000E+00 0. -1.
        -14    1    3    3    0    0  0.14564645206E+02  0.59380671692E+02 -0.99441851282E+01  0.61944167429E+02  0.00000000000E+00 0.  1.
          5    1    4    4  501    0 -0.16512629114E+03 -0.14016786957E+03  0.49815102025E+03  0.54321785230E+03  0.41800000000E+01 0. -1.
         -5    1    4    4    0  501  0.56633385452E+00 -0.31594179235E+02  0.13283071023E+02  0.34531511282E+02  0.41800000000E+01 0. -1.
</event>
<event>
11    1  0.8453735E-009  0.1339991E+03  0.7561462E-02  0.1114451E+00
         22   -1    0    0    0    0  0.00000000000E+00  0.00000000000E+00  0.11808768441E+04  0.11808768441E+04  0.00000000000E+00 0. -1.
         22   -1    0    0    0    0 -0.00000000000E+00 -0.00000000000E+00 -0.75644889863E+02  0.75644889863E+02  0.00000000000E+00 0.  1.
        -24    2    1    2    0    0 -0.34424257411E+02  0.31797025207E+02 -0.15173466151E+01  0.91671022240E+02  0.78773051657E+02 0.  0.
         25    2    1    2    0    0  0.11491255492E+02 -0.61194623069E+02  0.15343662883E+03  0.20752280042E+03  0.12508430270E+03 0.  0.
         24    2    1    2    0    0  0.22933001919E+02  0.29397597862E+02  0.95331267203E+03  0.95732791131E+03  0.79256153009E+02 0.  0.
        -11    1    5    5    0    0 -0.90036314278E+01  0.49190159710E+02  0.53782416733E+03  0.54014402909E+03  0.00000000000E+00 0.  1.
         12    1    5    5    0    0  0.31936633346E+02 -0.19792561848E+02  0.41548850470E+03  0.41718388223E+03  0.00000000000E+00 0. -1.
         11    1    3    3    0    0 -0.30586434037E+02  0.21838158508E+02  0.36375953368E+02  0.52303394704E+02  0.00000000000E+00 0. -1.
        -12    1    3    3    0    0 -0.38378233744E+01  0.99588666998E+01 -0.37893299983E+02  0.39367627536E+02  0.00000000000E+00 0.  1.
          5    1    4    4  501    0 -0.49147248923E+02 -0.61555046500E+02  0.89705126705E+02  0.11945274372E+03  0.41800000000E+01 0. -1.
         -5    1    4    4    0  501  0.60638504415E+02  0.36042343094E+00  0.63731502126E+02  0.88070056694E+02  0.41800000000E+01 0. -1.
</event>
<event>
11    1  0.8453735E-009  0.1328327E+03  0.7561462E-02  0.1115837E+00
         22   -1    0    0    0    0  0.00000000000E+00  0.00000000000E+00  0.64023210688E+02  0.64023210688E+02  0.00000000000E+00 0. -1.
         22   -1    0    0    0    0 -0.00000000000E+00 -0.00000000000E+00 -0.17654257368E+04  0.17654257368E+04  0.00000000000E+00 0. -1.
        -24    2    1    2    0    0 -0.43077427655E+02  0.38219990888E+00 -0.13295488516E+04  0.13328680604E+04  0.83554215280E+02 0.  0.
         25    2    1    2    0    0  0.12577659830E+02 -0.36999740530E+02 -0.37325355998E+03  0.39559141710E+03  0.12508865222E+03 0.  0.
         24    2    1    2    0    0  0.30499767825E+02  0.36617540621E+02  0.13998854292E+01  0.10098947000E+03  0.89027148965E+02 0.  0.
        -11    1    5    5    0    0 -0.24753329209E+02  0.34320561615E+02 -0.12202950788E+02  0.44040211903E+02  0.00000000000E+00 0.  1.
         12    1    5    5    0    0  0.55253097034E+02  0.22969790058E+01  0.13602836217E+02  0.56949258095E+02  0.00000000000E+00 0. -1.
         11    1    3    3    0    0 -0.90899539988E+01  0.23483773099E+02 -0.10512318121E+04  0.10515333745E+04  0.00000000000E+00 0. -1.
        -12    1    3    3    0    0 -0.33987473656E+02 -0.23101573190E+02 -0.27831703950E+03  0.28133468597E+03  0.00000000000E+00 0.  1.
          5    1    4    4  501    0 -0.27083708626E+02  0.37033114924E+02 -0.15486561949E+03  0.16157292896E+03  0.41800000000E+01 0. -1.
         -5    1    4    4    0  501  0.39661368456E+02 -0.74032855454E+02 -0.21838794049E+03  0.23401848813E+03  0.41800000000E+01 0. -1.
</event>
<event>
11    1  0.8453735E-009  0.1258867E+03  0.7561462E-02  0.1124429E+00
         22   -1    0    0    0    0  0.00000000000E+00  0.00000000000E+00  0.11007653524E+04  0.11007653524E+04  0.00000000000E+00 0. -1.
         22   -1    0    0    0    0 -0.00000000000E+00 -0.00000000000E+00 -0.54981077874E+02  0.54981077874E+02  0.00000000000E+00 0.  1.
        -24    2    1    2    0    0  0.21159625158E+01  0.11237839135E+02  0.92549593203E+02  0.14283243556E+03  0.10818923755E+03 0.  0.
         25    2    1    2    0    0  0.35846408071E+01  0.50698645458E+02  0.14280700036E+03  0.19653201254E+03  0.12509112799E+03 0.  0.
         24    2    1    2    0    0 -0.57006033230E+01 -0.61936484593E+02  0.81042768096E+03  0.81638198216E+03  0.76275092505E+02 0.  0.
        -11    1    5    5    0    0 -0.15635310067E+02  0.14457194621E+02  0.19016003372E+03  0.19134866558E+03  0.00000000000E+00 0.  1.
         12    1    5    5    0    0  0.99347067440E+01 -0.76393679214E+02  0.62026764724E+03  0.62503331658E+03  0.00000000000E+00 0. -1.
         11    1    3    3    0    0  0.60745110975E+01 -0.19291634307E+02  0.10695013550E+03  0.10884575473E+03  0.00000000000E+00 0. -1.
        -12    1    3    3    0    0 -0.39585485817E+01  0.30529473442E+02 -0.14400542298E+02  0.33986680833E+02  0.00000000000E+00 0.  1.
          5    1    4    4  501    0 -0.47256312351E+02  0.39426347533E+01  0.11018698017E+03  0.12003060620E+03  0.41800000000E+01 0. -1.
         -5    1    4    4    0  501  0.50840953158E+02  0.46756010704E+02  0.32620020190E+02  0.76501406341E+02  0.41800000000E+01 0. -1.
</event>
<event>
11    1  0.8453735E-009  0.1723529E+03  0.7561462E-02  0.1076002E+00
         22   -1    0    0    0    0  0.00000000000E+00  0.00000000000E+00  0.28427306947E+03  0.28427306947E+03  0.00000000000E+00 0.  1.
         22   -1    0    0    0    0 -0.00000000000E+00 -0.00000000000E+00 -0.55739804219E+03  0.55739804219E+03  0.00000000000E+00 0.  1.
         24    2    1    2    0    0 -0.92558303544E+01 -0.41455194456E+02 -0.36539063183E+03  0.37633766356E+03  0.79470243769E+02 0.  0.
         25    2    1    2    0    0 -0.96888547063E+02  0.91494338165E+02 -0.11333103782E+03  0.21505836623E+03  0.12509025654E+03 0.  0.
        -24    2    1    2    0    0  0.10614437742E+03 -0.50039143709E+02  0.20559669693E+03  0.25027508187E+03  0.81222349474E+02 0.  0.
        -13    1    3    3    0    0  0.24027392662E+02 -0.27051968526E+02 -0.29444917830E+03  0.29666385557E+03  0.00000000000E+00 0.  1.
         14    1    3    3    0    0 -0.33283223016E+02 -0.14403225931E+02 -0.70941453529E+02  0.79673807995E+02  0.00000000000E+00 0. -1.
         13    1    5    5    0    0  0.43152139271E+02 -0.14340716726E+02  0.17499424978E+02  0.48723640612E+02  0.00000000000E+00 0. -1.
        -14    1    5    5    0    0  0.62992238146E+02 -0.35698426982E+02  0.18809727196E+03  0.20155144126E+03  0.00000000000E+00 0.  1.
          5    1    4    4  501    0  0.20119485742E+02  0.48546809349E+02 -0.58726814366E+02  0.78917029405E+02  0.41800000000E+01 0. -1.
         -5    1    4    4    0  501 -0.11700803281E+03  0.42947528816E+02 -0.54604223457E+02  0.13614133682E+03  0.41800000000E+01 0. -1.
</event>
<event>
11    1  0.8453735E-009  0.1724666E+03  0.7561462E-02  0.1075905E+00
         22   -1    0    0    0    0  0.00000000000E+00  0.00000000000E+00  0.12638891150E+04  0.12638891150E+04  0.00000000000E+00 0. -1.
         22   -1    0    0    0    0 -0.00000000000E+00 -0.00000000000E+00 -0.28199113560E+03  0.28199113560E+03  0.00000000000E+00 0. -1.
         24    2    1    2    0    0  0.54135612894E+02  0.10804012120E+03 -0.22377288660E+03  0.26622727444E+03  0.78735789225E+02 0.  0.
         25    2    1    2    0    0 -0.50454619011E+02 -0.87153120451E+02  0.14726920994E+03  0.21789366844E+03  0.12509234815E+03 0.  0.
        -24    2    1    2    0    0 -0.36809938833E+01 -0.20887000748E+02  0.10584016560E+04  0.10617593077E+04  0.81663611397E+02 0.  0.
        -13    1    3    3    0    0 -0.20932105661E+01  0.57125296251E+02 -0.14953760274E+03  0.16009114790E+03  0.00000000000E+00 0.  1.
         14    1    3    3    0    0  0.56228823460E+02  0.50914824948E+02 -0.74235283868E+02  0.10613612655E+03  0.00000000000E+00 0. -1.
         11    1    5    5    0    0  0.28474404836E+02 -0.35050172762E+02  0.75091435708E+03  0.75227101367E+03  0.00000000000E+00 0. -1.
        -12    1    5    5    0    0 -0.32155398719E+02  0.14163172014E+02  0.30748729897E+03  0.30948829402E+03  0.00000000000E+00 0.  1.
          5    1    4    4  501    0 -0.16020878334E+02 -0.10160350220E+03  0.14803438441E+03  0.18030971014E+03  0.41800000000E+01 0.  1.
         -5    1    4    4    0  501 -0.34433740677E+02  0.14450381750E+02 -0.76517447246E+00  0.37583958303E+02  0.41800000000E+01 0.  1.
</event>
<event>
11    1  0.8453735E-009  0.1361298E+03  0.7561462E-02  0.1111959E+00
         22   -1    0    0    0    0  0.00000000000E+00  0.00000000000E+00  0.67516077117E+03  0.67516077117E+03  0.00000000000E+00 0.  1.
         22   -1    0    0    0    0 -0.00000000000E+00 -0.00000000000E+00 -0.14979508572E+03  0.14979508572E+03  0.00000000000E+00 0. -1.
         24    2    1    2    0    0  0.41980895076E+02  0.38287436592E+02 -0.95579392706E+02  0.13523538672E+03  0.76973152195E+02 0.  0.
         25    2    1    2    0    0 -0.32086919067E+02 -0.12374677136E+02  0.10510657029E+03  0.16696927880E+03  0.12509454799E+03 0.  0.
        -24    2    1    2    0    0 -0.98939760094E+01 -0.25912759456E+02  0.51583850786E+03  0.52275119137E+03  0.80062975325E+02 0.  0.
        -11    1    3    3    0    0  0.19897452557E+02  0.18829224002E+02  0.71999698542E+01  0.28324686418E+02  0.00000000000E+00 0.  1.
         12    1    3    3    0    0  0.22083442519E+02  0.19458212590E+02 -0.10277936256E+03  0.10691070030E+03  0.00000000000E+00 0. -1.
         11    1    5    5    0    0 -0.35396930223E+02 -0.40891857068E+02  0.37123053496E+03  0.37514956582E+03  0.00000000000E+00 0. -1.
        -12    1    5    5    0    0  0.25502954213E+02  0.14979097613E+02  0.14460797290E+03  0.14760162555E+03  0.00000000000E+00 0.  1.
          5    1    4    4  501    0 -0.39942688359E+02  0.23505463207E+02 -0.86728488480E+01  0.47335144038E+02  0.41800000000E+01 0.  1.
         -5    1    4    4    0  501  0.78557692929E+01 -0.35880140343E+02  0.11377941914E+03  0.11963413477E+03  0.41800000000E+01 0.  1.
</event>
<event>
11    1  0.8453735E-009  0.1341919E+03  0.7561462E-02  0.1114223E+00
         22   -1    0    0    0    0  0.00000000000E+00  0.00000000000E+00  0.40163709278E+03  0.40163709278E+03  0.00000000000E+00 0.  1.
         22   -1    0    0    0    0 -0.00000000000E+00 -0.00000000000E+00 -0.96355738890E+02  0.96355738890E+02  0.00000000000E+00 0.  1.
         24    2    1    2    0    0 -0.44882278907E+01 -0.22226010150E+02 -0.33813825353E+02  0.89562065268E+02  0.79773736489E+02 0.  0.
         25    2    1    2    0    0  0.43840487042E+02 -0.11512993805E+02  0.16849034634E+03  0.21468459135E+03  0.12508373045E+03 0.  0.
        -24    2    1    2    0    0 -0.39352259152E+02  0.33739003954E+02  0.17060483290E+03  0.19374617505E+03  0.75793473651E+02 0.  0.
        -13    1    3    3    0    0 -0.29035102768E+02 -0.19739533436E+02 -0.49231567038E+02  0.60468450998E+02  0.00000000000E+00 0.  1.
         14    1    3    3    0    0  0.24546874877E+02 -0.24864767133E+01  0.15417741685E+02  0.29093614271E+02  0.00000000000E+00 0. -1.
         13    1    5    5    0    0 -0.29093612320E+01  0.23311230561E+02  0.14748937981E+03  0.14934856883E+03  0.00000000000E+00 0. -1.
        -14    1    5    5    0    0 -0.36442897919E+02  0.10427773393E+02  0.23115453091E+02  0.44397606223E+02  0.00000000000E+00 0.  1.
          5    1    4    4  501    0  0.41229968311E+02 -0.33945180785E+02  0.99451878986E+01  0.54484536777E+02  0.41800000000E+01 0. -1.
         -5    1    4    4    0  501  0.26105187315E+01  0.22432186980E+02  0.15854515844E+03  0.16020005458E+03  0.41800000000E+01 0. -1.
</event>
<event>
11    1  0.8453735E-009  0.1533728E+03  0.7561462E-02  0.1093481E+00
         22   -1    0    0    0    0  0.00000000000E+00  0.00000000000E+00  0.73291830006E+02  0.73291830006E+02  0.00000000000E+00 0.  1.
         22   -1    0    0    0    0 -0.00000000000E+00 -0.00000000000E+00 -0.10252797535E+04  0.10252797535E+04  0.00000000000E+00 0.  1.
        -24    2    1    2    0    0 -0.89326057069E+02  0.63824665964E+01 -0.56001603501E+03  0.57300446382E+03  0.81830775017E+02 0.  0.
         25    2    1    2    0    0  0.81652069718E+02  0.78684759850E+02 -0.36908028451E+03  0.40586484261E+03  0.12509061567E+03 0.  0.
         24    2    1    2    0    0  0.76739873503E+01 -0.85067226447E+02 -0.22891604010E+02  0.11970227711E+03  0.80680149446E+02 0.  0.
        -13    1    5    5    0    0 -0.23032647781E+01 -0.97610031587E+02 -0.30039085557E+02  0.10215365855E+03  0.00000000000E+00 0.  1.
         14    1    5    5    0    0  0.99772521284E+01  0.12542805140E+02  0.71474815476E+01  0.17548618558E+02  0.00000000000E+00 0. -1.
         11    1    3    3    0    0  0.73138898709E-01 -0.25894472396E+02 -0.10254904757E+03  0.10576784108E+03  0.00000000000E+00 0. -1.
        -12    1    3    3    0    0 -0.89399195967E+02  0.32276938992E+02 -0.45746698745E+03  0.46723662274E+03  0.00000000000E+00 0.  1.
          5    1    4    4  501    0 -0.22508834961E+02  0.22720402567E+02 -0.21665391079E+02  0.38855191606E+02  0.41800000000E+01 0.  1.
         -5    1    4    4    0  501  0.10416090468E+03  0.55964357283E+02 -0.34741489343E+03  0.36700965100E+03  0.41800000000E+01 0.  1.
</event>
<event>
11    1  0.8453735E-009  0.1713866E+03  0.7561462E-02  0.1076831E+00
         22   -1    0    0    0    0  0.00000000000E+00  0.00000000000E+00  0.59907152956E+03  0.59907152956E+03  0.00000000000E+00 0.  1.
         22   -1    0    0    0    0 -0.00000000000E+00 -0.00000000000E+00 -0.33468990202E+03  0.33468990202E+03  0.00000000000E+00 0.  1.
         24    2    1    2    0    0  0.37798769946E+02  0.20953070268E+01 -0.25382299917E+03  0.26750695445E+03  0.75503102231E+02 0.  0.
         25    2    1    2    0    0 -0.13741997608E+03  0.50093925197E+02  0.82617243634E+02  0.20944413915E+03  0.12509031661E+03 0.  0.
        -24    2    1    2    0    0  0.99621206133E+02 -0.52189232224E+02  0.43558738309E+03  0.45681033798E+03  0.79317185497E+02 0.  0.
        -13    1    3    3    0    0  0.18752637981E+02 -0.10899280752E+02 -0.23924925715E+03  0.24023043687E+03  0.00000000000E+00 0.  1.
         14    1    3    3    0    0  0.19046131966E+02  0.12994587779E+02 -0.14573742020E+02  0.27276517572E+02  0.00000000000E+00 0. -1.
         11    1    5    5    0    0  0.71861095004E+02 -0.35435489145E+02  0.15623038633E+03  0.17557797265E+03  0.00000000000E+00 0. -1.
        -12    1    5    5    0    0  0.27760111128E+02 -0.16753743079E+02  0.27935699676E+03  0.28123236534E+03  0.00000000000E+00 0.  1.
          5    1    4    4  501    0 -0.50705505198E+02 -0.36582438159E+02  0.20910738793E+01  0.62699027337E+02  0.41800000000E+01 0. -1.
         -5    1    4    4    0  501 -0.86714470881E+02  0.86676363356E+02  0.80526169754E+02  0.14674511181E+03  0.41800000000E+01 0. -1.
</event>
<event>
11    1  0.8453735E-009  0.1355502E+03  0.7561462E-02  0.1112632E+00
         22   -1    0    0    0    0  0.00000000000E+00  0.00000000000E+00  0.22632818963E+03  0.22632818963E+03  0.00000000000E+00 0.  1.
         22   -1    0    0    0    0 -0.00000000000E+00 -0.00000000000E+00 -0.32050667620E+03  0.32050667620E+03  0.00000000000E+00 0.  1.
        -24    2    1    2    0    0 -0.11669550296E+02  0.27892545501E+02 -0.17599737864E+03  0.19265351777E+03  0.72291964456E+02 0.  0.
         25    2    1    2    0    0 -0.39998454259E+02 -0.38255044715E+02 -0.85219333518E+02  0.16116485729E+03  0.12509377135E+03 0.  0.
         24    2    1    2    0    0  0.51668004554E+02  0.10362499214E+02  0.16703822558E+03  0.19301649077E+03  0.81096441468E+02 0.  0.
        -13    1    5    5    0    0  0.64257949941E+02  0.29950853986E+02  0.10445549956E+03  0.12624218460E+03  0.00000000000E+00 0.  1.
         14    1    5    5    0    0 -0.12589945386E+02 -0.19588354773E+02  0.62582726026E+02  0.66774306169E+02  0.00000000000E+00 0. -1.
         13    1    3    3    0    0  0.19797012071E+02  0.11378050043E+02 -0.13955717307E+02  0.26760862379E+02  0.00000000000E+00 0. -1.
        -14    1    3    3    0    0 -0.31466562366E+02  0.16514495458E+02 -0.16204166133E+03  0.16589265539E+03  0.00000000000E+00 0.  1.
          5    1    4    4  501    0  0.19882660630E+02  0.18800980957E+02  0.14735216615E+02  0.31359146790E+02  0.41800000000E+01 0.  1.
         -5    1    4    4    0  501 -0.59881114889E+02 -0.57056025672E+02 -0.99954550133E+02  0.12980571050E+03  0.41800000000E+01 0.  1.
</event>
<event>
11    1  0.8453735E-009  0.1605947E+03  0.7561462E-02  0.1086519E+00
         22   -1    0    0    0    0  0.00000000000E+00  0.00000000000E+00  0.78637435618E+03  0.78637435618E+03  0.00000000000E+00 0. -1.
         22   -1    0    0    0    0 -0.00000000000E+00 -0.00000000000E+00 -0.14598047940E+03  0.14598047940E+03  0.00000000000E+00 0. -1.
        -24    2    1    2    0    0 -0.94143226201E+02  0.28237452025E+02 -0.79830422527E+02  0.15140896297E+03  0.83014920173E+02 0.  0.
         25    2    1    2    0    0  0.13485393468E+03  0.20065730403E+02  0.33483484566E+03  0.38256000170E+03  0.12509821660E+03 0.  0.
         24    2    1    2    0    0 -0.40710708480E+02 -0.48303182428E+02  0.38538945365E+03  0.39838587091E+03  0.78712844811E+02 0.  0.
        -13    1    5    5    0    0 -0.28357573248E+02 -0.25965394353E+02  0.55540646347E+02  0.67550847967E+02  0.00000000000E+00 0.  1.
         14    1    5    5    0    0 -0.12353135232E+02 -0.22337788074E+02  0.32984880730E+03  0.33083502294E+03  0.00000000000E+00 0. -1.
         13    1    3    3    0    0 -0.10484696709E+03  0.30916195052E+02 -0.85710245628E+02  0.13890624115E+03  0.00000000000E+00 0. -1.
        -14    1    3    3    0    0  0.10703740892E+02 -0.26787430269E+01  0.58798231005E+01  0.12502721823E+02  0.00000000000E+00 0.  1.
          5    1    4    4  501    0  0.65739790440E+02  0.41961893427E+02  0.28236563693E+03  0.29296816527E+03  0.41800000000E+01 0. -1.
         -5    1    4    4    0  501  0.69114144241E+02 -0.21896163024E+02  0.52469208736E+02  0.89591836429E+02  0.41800000000E+01 0. -1.
</event>
<event>
11    1  0.8453735E-009  0.2063614E+03  0.7561462E-02  0.1050114E+00
         22   -1    0    0    0    0  0.00000000000E+00  0.00000000000E+00  0.49784803188E+03  0.49784803188E+03  0.00000000000E+00 0.  1.
         22   -1    0    0    0    0 -0.00000000000E+00 -0.00000000000E+00 -0.91607450335E+03  0.91607450335E+03  0.00000000000E+00 0.  1.
         24    2    1    2    0    0  0.34632316562E+02 -0.16388286939E+03 -0.77314258114E+03  0.79537333821E+03  0.82536683506E+02 0.  0.
         25    2    1    2    0    0  0.36863284104E+01  0.14550909295E+03 -0.54160365914E+02  0.19941836288E+03  0.12509137887E+03 0.  0.
        -24    2    1    2    0    0 -0.38318644972E+02  0.18373776442E+02  0.40907647558E+03  0.41913083414E+03  0.80753817475E+02 0.  0.
        -11    1    3    3    0    0  0.22333170580E+02 -0.12582442692E+03 -0.70392773745E+03  0.71543330680E+03  0.00000000000E+00 0.  1.
         12    1    3    3    0    0  0.12299145982E+02 -0.38058442465E+02 -0.69214843690E+02  0.79940031410E+02  0.00000000000E+00 0. -1.
         11    1    5    5    0    0  0.17037530054E+01  0.31075374768E+02  0.60510466660E+02  0.68044825422E+02  0.00000000000E+00 0. -1.
        -12    1    5    5    0    0 -0.40022397978E+02 -0.12701598326E+02  0.34856600893E+03  0.35108600872E+03  0.00000000000E+00 0.  1.
          5    1    4    4  501    0  0.58576143773E+02  0.66686355421E+02 -0.52607984282E+02  0.10326328984E+03  0.41800000000E+01 0.  1.
         -5    1    4    4    0  501 -0.54889815362E+02  0.78822737525E+02 -0.15523816321E+01  0.96155073034E+02  0.41800000000E+01 0.  1.
</event>
<event>
11    1  0.8453735E-009  0.1554732E+03  0.7561462E-02  0.1091414E+00
         22   -1    0    0    0    0  0.00000000000E+00  0.00000000000E+00  0.21525426171E+04  0.21525426171E+04  0.00000000000E+00 0. -1.
         22   -1    0    0    0    0 -0.00000000000E+00 -0.00000000000E+00 -0.75994988365E+02  0.75994988365E+02  0.00000000000E+00 0. -1.
         24    2    1    2    0    0  0.56495927409E+02  0.31857907046E+02 -0.90118375019E+01  0.10504545104E+03  0.82137795892E+02 0.  0.
         25    2    1    2    0    0 -0.91590550179E+02 -0.11037507271E+03  0.52578825243E+03  0.55916123991E+03  0.12504607254E+03 0.  0.
        -24    2    1    2    0    0  0.35094622770E+02  0.78517165661E+02  0.15597712138E+04  0.15643309145E+04  0.82755017096E+02 0.  0.
        -11    1    3    3    0    0  0.36947525050E+02 -0.11611934619E+02 -0.33726341457E+02  0.51355844273E+02  0.00000000000E+00 0.  1.
         12    1    3    3    0    0  0.19548402359E+02  0.43469841665E+02  0.24714503955E+02  0.53689606768E+02  0.00000000000E+00 0. -1.
         11    1    5    5    0    0  0.54528878643E+01  0.33339953473E+02  0.12045486131E+04  0.12050222603E+04  0.00000000000E+00 0. -1.
        -12    1    5    5    0    0  0.29641734906E+02  0.45177212188E+02  0.35522260072E+03  0.35930865424E+03  0.00000000000E+00 0.  1.
          5    1    4    4  501    0 -0.18683301081E+02 -0.99273356533E+02  0.40625547898E+03  0.41864692959E+03  0.41800000000E+01 0. -1.
         -5    1    4    4    0  501 -0.72907249098E+02 -0.11101716174E+02  0.11953277345E+03  0.14051431031E+03  0.41800000000E+01 0. -1.
</event>
<event>
11    1  0.8453735E-009  0.1574121E+03  0.7561462E-02  0.1089537E+00
         22   -1    0    0    0    0  0.00000000000E+00  0.00000000000E+00  0.34975655428E+03  0.34975655428E+03  0.00000000000E+00 0. -1.
         22   -1    0    0    0    0 -0.00000000000E+00 -0.00000000000E+00 -0.19909167312E+04  0.19909167312E+04  0.00000000000E+00 0.  1.
         24    2    1    2    0    0  0.43611237064E+02  0.84159740824E+02 -0.19085278788E+04  0.19126303745E+04  0.81801486698E+02 0.  0.
         25    2    1    2    0    0 -0.95664810789E+02 -0.11833060736E+03  0.75043111776E+02  0.21079072720E+03  0.12508946153E+03 0.  0.
        -24    2    1    2    0    0  0.52053573725E+02  0.34170866539E+02  0.19232459013E+03  0.21725218379E+03  0.79577262688E+02 0.  0.
        -13    1    3    3    0    0  0.65621524718E+02  0.70136745521E+02 -0.13001421039E+04  0.13036850993E+04  0.00000000000E+00 0.  1.
         14    1    3    3    0    0 -0.22010287654E+02  0.14022995303E+02 -0.60838577486E+03  0.60894527522E+03  0.00000000000E+00 0. -1.
         11    1    5    5    0    0  0.22420668478E+01 -0.15168773363E+02  0.10080099465E+03  0.10196057606E+03  0.00000000000E+00 0. -1.
        -12    1    5    5    0    0  0.49811506877E+02  0.49339639903E+02  0.91523595479E+02  0.11529160773E+03  0.00000000000E+00 0.  1.
          5    1    4    4  501    0 -0.47966004520E+01 -0.16443464899E+02 -0.32482807026E+02  0.36959438118E+02  0.41800000000E+01 0. -1.
         -5    1    4    4    0  501 -0.90868210337E+02 -0.10188714247E+03  0.10752591880E+03  0.17383128908E+03  0.41800000000E+01 0. -1.
</event>
<event>
11    1  0.8453735E-009  0.1751443E+03  0.7561462E-02  0.1073640E+00
         22   -1    0    0    0    0  0.00000000000E+00  0.00000000000E+00  0.14117670743E+04  0.14117670743E+04  0.00000000000E+00 0.  1.
         22   -1    0    0    0    0 -0.00000000000E+00 -0.00000000000E+00 -0.83546844796E+03  0.83546844796E+03  0.00000000000E+00 0.  1.
        -24    2    1    2    0    0 -0.70359690305E+02 -0.97806244625E+02 -0.74906766491E+03  0.76302270198E+03  0.81146346845E+02 0.  0.
         25    2    1    2    0    0  0.87206861011E+02  0.13925776821E+03  0.59673850210E+02  0.21495648428E+03  0.12509020393E+03 0.  0.
         24    2    1    2    0    0 -0.16847170706E+02 -0.41451523587E+02  0.12656924411E+04  0.12692563360E+04  0.83858423523E+02 0.  0.
        -13    1    5    5    0    0  0.31062710226E+02 -0.33820834051E+02  0.68769290417E+03  0.68922439831E+03  0.00000000000E+00 0.  1.
         14    1    5    5    0    0 -0.47909880932E+02 -0.76306895361E+01  0.57799953691E+03  0.58003193773E+03  0.00000000000E+00 0. -1.
         11    1    3    3    0    0  0.10319117525E+02 -0.50771027572E+02 -0.27834219531E+03  0.28312286930E+03  0.00000000000E+00 0. -1.
        -12    1    3    3    0    0 -0.80678807830E+02 -0.47035217053E+02 -0.47072546960E+03  0.47989983268E+03  0.00000000000E+00 0.  1.
          5    1    4    4  501    0  0.85084471202E+02  0.26104957815E+02  0.47735461650E+02  0.10107909161E+03  0.41800000000E+01 0.  1.
         -5    1    4    4    0  501  0.21223898093E+01  0.11315281040E+03  0.11938388559E+02  0.11387739267E+03  0.41800000000E+01 0.  1.
</event>
<event>
11    1  0.8453735E-009  0.1524777E+03  0.7561462E-02  0.1094374E+00
         22   -1    0    0    0    0  0.00000000000E+00  0.00000000000E+00  0.10008101812E+04  0.10008101812E+04  0.00000000000E+00 0. -1.
         22   -1    0    0    0    0 -0.00000000000E+00 -0.00000000000E+00 -0.29402131564E+03  0.29402131564E+03  0.00000000000E+00 0.  1.
         24    2    1    2    0    0 -0.91889411552E+01  0.24359494431E+02 -0.21086945382E+03  0.22735850498E+03  0.80920588380E+02 0.  0.
         25    2    1    2    0    0 -0.21219039497E+01 -0.10945513510E+03  0.27295688884E+02  0.16846592108E+03  0.12510308892E+03 0.  0.
        -24    2    1    2    0    0  0.11310845105E+02  0.85095640665E+02  0.89036263051E+03  0.89900707080E+03  0.89993867909E+02 0.  0.
        -11    1    3    3    0    0 -0.19635220328E+02 -0.16962366601E+02 -0.15463555201E+03  0.15679737786E+03  0.00000000000E+00 0.  1.
         12    1    3    3    0    0  0.10446279173E+02  0.41321861033E+02 -0.56233901810E+02  0.70561127121E+02  0.00000000000E+00 0. -1.
         11    1    5    5    0    0 -0.28378984479E+02  0.12190172889E+02  0.43826729890E+03  0.43935429024E+03  0.00000000000E+00 0. -1.
        -12    1    5    5    0    0  0.39689829584E+02  0.72905467776E+02  0.45209533161E+03  0.45965278055E+03  0.00000000000E+00 0.  1.
          5    1    4    4  501    0  0.10088274315E+00 -0.39438686970E+02 -0.50161869820E+02  0.63946116310E+02  0.41800000000E+01 0.  1.
         -5    1    4    4    0  501 -0.22227866928E+01 -0.70016448126E+02  0.77457558704E+02  0.10451980477E+03  0.41800000000E+01 0.  1.
</event>
<event>
11    1  0.8453735E-009  0.1392342E+03  0.7561462E-02  0.1108417E+00
         22   -1    0    0    0    0  0.00000000000E+00  0.00000000000E+00  0.16697718814E+04  0.16697718814E+04  0.00000000000E+00 0.  1.
         22   -1    0    0    0    0 -0.00000000000E+00 -0.00000000000E+00 -0.61038556947E+03  0.61038556947E+03  0.00000000000E+00 0.  1.
         24    2    1    2    0    0 -0.55662055066E+01  0.52939756916E+02 -0.57630274755E+03  0.58417454477E+03  0.79381618934E+02 0.  0.
         25    2    1    2    0    0 -0.17059898595E+01  0.10772297646E+02  0.10994887496E+03  0.16689075349E+03  0.12507923767E+03 0.  0.
        -24    2    1    2    0    0  0.72721953661E+01 -0.63712054562E+02  0.15257401845E+04  0.15290921526E+04  0.78278923075E+02 0.  0.
        -13    1    3    3    0    0 -0.29008338739E+01  0.32125523010E+02 -0.54796295971E+03  0.54891153138E+03  0.00000000000E+00 0.  1.
         14    1    3    3    0    0 -0.26653716327E+01  0.20814233906E+02 -0.28339787836E+02  0.35263013393E+02  0.00000000000E+00 0. -1.
         13    1    5    5    0    0 -0.70286479063E+00  0.15749518365E+02  0.49973653838E+03  0.49998514892E+03  0.00000000000E+00 0. -1.
        -14    1    5    5    0    0  0.79750601567E+01 -0.79461572927E+02  0.10260036461E+04  0.10291070037E+04  0.00000000000E+00 0.  1.
          5    1    4    4  501    0 -0.24328722347E+02 -0.38926206989E+02  0.23460465838E+01  0.46153143513E+02  0.41800000000E+01 0. -1.
         -5    1    4    4    0  501  0.22622732487E+02  0.49698504635E+02  0.10760282838E+03  0.12073760998E+03  0.41800000000E+01 0. -1.
</event>
<event>
11    1  0.8453735E-009  0.1511196E+03  0.7561462E-02  0.1095740E+00
         22   -1    0    0    0    0  0.00000000000E+00  0.00000000000E+00  0.10112192956E+04  0.10112192956E+04  0.00000000000E+00 0.  1.
         22   -1    0    0    0    0 -0.00000000000E+00 -0.00000000000E+00 -0.18294460774E+03  0.18294460774E+03  0.00000000000E+00 0. -1.
         24    2    1    2    0    0  0.15221416459E+02 -0.40946913445E+01 -0.15088004094E+03  0.17199138999E+03  0.81041924079E+02 0.  0.
         25    2    1    2    0    0  0.33691886948E+02  0.74839236825E+02  0.32843762621E+03  0.36090891058E+03  0.12509161767E+03 0.  0.
        -24    2    1    2    0    0 -0.48913303407E+02 -0.70744545480E+02  0.65071710257E+03  0.66126360274E+03  0.80246512491E+02 0.  0.
        -13    1    3    3    0    0  0.10782125564E+02 -0.12436975213E+02  0.39060142171E+01  0.16917137205E+02  0.00000000000E+00 0.  1.
         14    1    3    3    0    0  0.44392908949E+01  0.83422838690E+01 -0.15478605516E+03  0.15507425278E+03  0.00000000000E+00 0. -1.
         13    1    5    5    0    0 -0.42501210612E+02 -0.29929601407E+02  0.14822266942E+03  0.15707352951E+03  0.00000000000E+00 0. -1.
        -14    1    5    5    0    0 -0.64120927949E+01 -0.40814944073E+02  0.50249443316E+03  0.50419007323E+03  0.00000000000E+00 0.  1.
          5    1    4    4  501    0 -0.37577411192E+02  0.26839649995E+02  0.20673638548E+03  0.21187221178E+03  0.41800000000E+01 0.  1.
         -5    1    4    4    0  501  0.71269298140E+02  0.47999586830E+02  0.12170124072E+03  0.14903669879E+03  0.41800000000E+01 0.  1.
</event>
<event>
11    1  0.8453735E-009  0.1333398E+03  0.7561462E-02  0.1115232E+00
         22   -1    0    0    0    0  0.00000000000E+00  0.00000000000E+00  0.43307585764E+03  0.43307585764E+03  0.00000000000E+00 0. -1.
         22   -1    0    0    0    0 -0.00000000000E+00 -0.00000000000E+00 -0.41165533065E+03  0.41165533065E+03  0.00000000000E+00 0.  1.
         24    2    1    2    0    0  0.45342837233E+01 -0.16652487712E+02 -0.29003511450E+03  0.30121922520E+03  0.79465646091E+02 0.  0.
         25    2    1    2    0    0  0.41795487454E+02  0.13527102671E+02 -0.70963544289E+02  0.15037461361E+03  0.12508738755E+03 0.  0.
        -24    2    1    2    0    0 -0.46329771178E+02  0.31253850419E+01  0.38241918578E+03  0.39313734948E+03  0.78462259558E+02 0.  0.
        -11    1    3    3    0    0  0.33622917888E+02 -0.32114266602E+02 -0.20037702258E+03  0.20570069982E+03  0.00000000000E+00 0.  1.
         12    1    3    3    0    0 -0.29088634165E+02  0.15461778890E+02 -0.89658091920E+02  0.95518525380E+02  0.00000000000E+00 0. -1.
         11    1    5    5    0    0 -0.59865677566E+02 -0.19352557550E+02  0.22877038758E+03  0.23726422206E+03  0.00000000000E+00 0. -1.
        -12    1    5    5    0    0  0.13535906389E+02  0.22477942592E+02  0.15364879820E+03  0.15587312742E+03  0.00000000000E+00 0.  1.
          5    1    4    4  501    0  0.48917526254E+02  0.28852095022E+02  0.18000629484E+02  0.59723218465E+02  0.41800000000E+01 0. -1.
         -5    1    4    4    0  501 -0.71220387999E+01 -0.15324992351E+02 -0.88964173773E+02  0.90651395149E+02  0.41800000000E+01 0. -1.
</event>
<event>
11    1  0.8453735E-009  0.1425137E+03  0.7561462E-02  0.1104783E+00
         22   -1    0    0    0    0  0.00000000000E+00  0.00000000000E+00  0.69006694203E+02  0.69006694203E+02  0.00000000000E+00 0. -1.
         22   -1    0    0    0    0 -0.00000000000E+00 -0.00000000000E+00 -0.13906428103E+04  0.13906428103E+04  0.00000000000E+00 0.  1.
         24    2    1    2    0    0 -0.17578734069E+02 -0.31967684601E+02 -0.11212401023E+04  0.11247052002E+04  0.80321078688E+02 0.  0.
         25    2    1    2    0    0 -0.33094462876E+01  0.90057545959E+02 -0.16917781808E+03  0.22888929929E+03  0.12509141929E+03 0.  0.
        -24    2    1    2    0    0  0.20888180356E+02 -0.58089861358E+02 -0.31218195781E+02  0.10605500504E+03  0.80388682505E+02 0.  0.
        -11    1    3    3    0    0  0.83318051690E+01 -0.33962983780E+02 -0.10044596356E+04  0.10050681881E+04  0.00000000000E+00 0.  1.
         12    1    3    3    0    0 -0.25910539238E+02  0.19952991786E+01 -0.11678046667E+03  0.11963701208E+03  0.00000000000E+00 0. -1.
         13    1    5    5    0    0 -0.25559692848E+02 -0.73410614198E+00  0.85098541377E+00  0.25584389507E+02  0.00000000000E+00 0. -1.
        -14    1    5    5    0    0  0.46447873204E+02 -0.57355755216E+02 -0.32069181195E+02  0.80470615532E+02  0.00000000000E+00 0.  1.
          5    1    4    4  501    0 -0.15312378558E+02  0.11939827917E+03 -0.11850489599E+03  0.16897130164E+03  0.41800000000E+01 0.  1.
         -5    1    4    4    0  501  0.12002932270E+02 -0.29340733213E+02 -0.50672922088E+02  0.59917997643E+02  0.41800000000E+01 0.  1.
</event>
<event>
11    1  0.8453735E-009  0.1535294E+03  0.7561462E-02  0.1093326E+00
         22   -1    0    0    0    0  0.00000000000E+00  0.00000000000E+00  0.80915997171E+03  0.80915997171E+03  0.00000000000E+00 0.  1.
         22   -1    0    0    0    0 -0.00000000000E+00 -0.00000000000E+00 -0.16380426690E+03  0.16380426690E+03  0.00000000000E+00 0. -1.
         24    2    1    2    0    0 -0.81713879241E+02  0.28933874517E+02 -0.11041855729E+03  0.16231967008E+03  0.81492885258E+02 0.  0.
         25    2    1    2    0    0  0.10940448930E+03 -0.41685780228E+02  0.28868560348E+03  0.33569920619E+03  0.12509009884E+03 0.  0.
        -24    2    1    2    0    0 -0.27690610061E+02  0.12751905711E+02  0.46708865861E+03  0.47494536233E+03  0.80448127444E+02 0.  0.
        -13    1    3    3    0    0  0.11340027606E+02 -0.82998697997E+01 -0.32368411307E+02  0.35287364812E+02  0.00000000000E+00 0.  1.
         14    1    3    3    0    0 -0.93053906847E+02  0.37233744316E+02 -0.78050145978E+02  0.12703230527E+03  0.00000000000E+00 0. -1.
         11    1    5    5    0    0  0.33930592417E+01 -0.39017636460E+01 -0.12185057278E+01  0.53123786363E+01  0.00000000000E+00 0. -1.
        -12    1    5    5    0    0 -0.31083669302E+02  0.16653669357E+02  0.46830716434E+03  0.46963298369E+03  0.00000000000E+00 0.  1.
          5    1    4    4  501    0  0.72197198083E+02  0.15104310869E+02  0.54420967954E+02  0.91758867533E+02  0.41800000000E+01 0.  1.
         -5    1    4    4    0  501  0.37207291218E+02 -0.56790091096E+02  0.23426463553E+03  0.24394033866E+03  0.41800000000E+01 0.  1.
</event>
<event>
11    1  0.8453735E-009  0.1426346E+03  0.7561462E-02  0.1104652E+00
         22   -1    0    0    0    0  0.00000000000E+00  0.00000000000E+00  0.22543200235E+04  0.22543200235E+04  0.00000000000E+00 0.  1.
         22   -1    0    0    0    0 -0.00000000000E+00 -0.00000000000E+00 -0.22078507823E+04  0.22078507823E+04  0.00000000000E+00 0.  1.
        -24    2    1    2    0    0  0.30001783050E+02  0.51193771458E+01 -0.21611120301E+04  0.21627771071E+04  0.79204124773E+02 0.  0.
         25    2    1    2    0    0 -0.46941980132E+02 -0.71169940818E+02  0.83740679422E+02  0.17299814809E+03  0.12508856014E+03 0.  0.
         24    2    1    2    0    0  0.16940197082E+02  0.66050563673E+02  0.21238405918E+04  0.21263955506E+04  0.78800577683E+02 0.  0.
        -11    1    5    5    0    0  0.18674818816E+00  0.87649512852E+01  0.14205055563E+04  0.14205326095E+04  0.00000000000E+00 0.  1.
         12    1    5    5    0    0  0.16753448894E+02  0.57285612387E+02  0.70333503549E+03  0.70586294108E+03  0.00000000000E+00 0. -1.
         13    1    3    3    0    0  0.45531850913E+02 -0.16682515962E+02 -0.84315965761E+03  0.84455293736E+03  0.00000000000E+00 0. -1.
        -14    1    3    3    0    0 -0.15530067863E+02  0.21801893108E+02 -0.13179523725E+04  0.13182241697E+04  0.00000000000E+00 0.  1.
          5    1    4    4  501    0  0.41145012886E+02 -0.31280246279E+02  0.45304257432E+02  0.68857200307E+02  0.41800000000E+01 0. -1.
         -5    1    4    4    0  501 -0.88086993018E+02 -0.39889694540E+02  0.38436421990E+02  0.10414094778E+03  0.41800000000E+01 0. -1.
</event>
<event>
11    1  0.8453735E-009  0.1347109E+03  0.7561462E-02  0.1113613E+00
         22   -1    0    0    0    0  0.00000000000E+00  0.00000000000E+00  0.37595550474E+03  0.37595550474E+03  0.00000000000E+00 0. -1.
         22   -1    0    0    0    0 -0.00000000000E+00 -0.00000000000E+00 -0.10550746675E+04  0.10550746675E+04  0.00000000000E+00 0. -1.
         24    2    1    2    0    0 -0.35423524418E+02 -0.36378095938E+02 -0.95471347081E+03  0.95941912687E+03  0.80181404988E+02 0.  0.
         25    2    1    2    0    0  0.48198557627E+02 -0.77526138955E+00 -0.42849474211E+02  0.14074033357E+03  0.12509221425E+03 0.  0.
        -24    2    1    2    0    0 -0.12775033209E+02  0.37153357328E+02  0.31844378229E+03  0.33087071178E+03  0.80780022271E+02 0.  0.
        -11    1    3    3    0    0  0.11122164005E+02 -0.45661919362E+02 -0.42851969769E+03  0.43108913779E+03  0.00000000000E+00 0.  1.
         12    1    3    3    0    0 -0.46545688423E+02  0.92838234237E+01 -0.52619377312E+03  0.52832998908E+03  0.00000000000E+00 0. -1.
         13    1    5    5    0    0 -0.41977195539E+02  0.23717354781E+02  0.25744064945E+03  0.26191656277E+03  0.00000000000E+00 0. -1.
        -14    1    5    5    0    0  0.29202162330E+02  0.13436002546E+02  0.61003132844E+02  0.68954149012E+02  0.00000000000E+00 0.  1.
          5    1    4    4  501    0 -0.11310124728E+02  0.21227808512E+02  0.33455472990E+02  0.41415937132E+02  0.41800000000E+01 0.  1.
         -5    1    4    4    0  501  0.59508682355E+02 -0.22003069902E+02 -0.76304947200E+02  0.99324396439E+02  0.41800000000E+01 0.  1.
</event>
<event>
11    1  0.8453735E-009  0.1773636E+03  0.7561462E-02  0.1071796E+00
         22   -1    0    0    0    0  0.00000000000E+00  0.00000000000E+00  0.65086915712E+03  0.65086915712E+03  0.00000000000E+00 0.  1.
         22   -1    0    0    0    0 -0.00000000000E+00 -0.00000000000E+00 -0.33301578947E+03  0.33301578947E+03  0.00000000000E+00 0. -1.
        -24    2    1    2    0    0 -0.13593568808E+02  0.26033250115E+01 -0.24308223856E+03  0.25944024965E+03  0.89603046949E+02 0.  0.
         25    2    1    2    0    0  0.93074690485E+02 -0.98265338323E+02  0.47761525789E+02  0.19038588443E+03  0.12508655771E+03 0.  0.
         24    2    1    2    0    0 -0.79481121677E+02  0.95662013311E+02  0.51317408041E+03  0.53405881251E+03  0.80016928941E+02 0.  0.
        -11    1    5    5    0    0 -0.68714996135E+02  0.10704154218E+03  0.48884277062E+03  0.50512067552E+03  0.00000000000E+00 0.  1.
         12    1    5    5    0    0 -0.10766125541E+02 -0.11379528868E+02  0.24331309794E+02  0.28938136994E+02  0.00000000000E+00 0. -1.
         11    1    3    3    0    0 -0.30795378183E+02  0.12067008880E+01 -0.23992392650E+03  0.24189522928E+03  0.00000000000E+00 0. -1.
        -12    1    3    3    0    0  0.17201809374E+02  0.13966241235E+01 -0.31583120636E+01  0.17545020370E+02  0.00000000000E+00 0.  1.
          5    1    4    4  501    0  0.10466538307E+02 -0.63760129802E+02  0.72705008207E+02  0.97357039781E+02  0.41800000000E+01 0. -1.
         -5    1    4    4    0  501  0.82608152178E+02 -0.34505208521E+02 -0.24943482418E+02  0.93028844647E+02  0.41800000000E+01 0. -1.
</event>
<event>
11    1  0.8453735E-009  0.1335915E+03  0.7561462E-02  0.1114933E+00
         22   -1    0    0    0    0  0.00000000000E+00  0.00000000000E+00  0.39175320586E+03  0.39175320586E+03  0.00000000000E+00 0. -1.
         22   -1    0    0    0    0 -0.00000000000E+00 -0.00000000000E+00 -0.30942025188E+03  0.30942025188E+03  0.00000000000E+00 0. -1.
        -24    2    1    2    0    0 -0.20196518663E+02  0.32309516201E+02 -0.24932602334E+03  0.26508730469E+03  0.81584367330E+02 0.  0.
         25    2    1    2    0    0  0.63861077001E+02 -0.23460485211E+02  0.70126884980E+02  0.15872678889E+03  0.12509109478E+03 0.  0.
         24    2    1    2    0    0 -0.43664558337E+02 -0.88490309900E+01  0.26153209233E+03  0.27735936416E+03  0.80896740130E+02 0.  0.
        -13    1    5    5    0    0 -0.40513479527E+02  0.31004077793E+02  0.16971076260E+03  0.17721269087E+03  0.00000000000E+00 0.  1.
         14    1    5    5    0    0 -0.31510788102E+01 -0.39853108783E+02  0.91821329735E+02  0.10014667329E+03  0.00000000000E+00 0. -1.
         13    1    3    3    0    0 -0.11015950358E+02  0.55057574114E+02 -0.21899213335E+03  0.22607574416E+03  0.00000000000E+00 0. -1.
        -14    1    3    3    0    0 -0.91805683055E+01 -0.22748057912E+02 -0.30333889988E+02  0.39011560530E+02  0.00000000000E+00 0.  1.
          5    1    4    4  501    0  0.77213998410E+02 -0.63366689863E+02  0.52392256207E+02  0.11287054463E+03  0.41800000000E+01 0.  1.
         -5    1    4    4    0  501 -0.13352921409E+02  0.39906204652E+02  0.17734628772E+02  0.45856244259E+02  0.41800000000E+01 0.  1.
</event>
<event>
11    1  0.8453735E-009  0.3128238E+03  0.7561462E-02  0.9949054E-01
         22   -1    0    0    0    0  0.00000000000E+00  0.00000000000E+00  0.66985370021E+02  0.66985370021E+02  0.00000000000E+00 0.  1.
         22   -1    0    0    0    0 -0.00000000000E+00 -0.00000000000E+00 -0.20727915384E+04  0.20727915384E+04  0.00000000000E+00 0. -1.
        -24    2    1    2    0    0 -0.57921989255E+02 -0.36616194959E+02 -0.52617644297E+03  0.53656018063E+03  0.79620824767E+02 0.  0.
         25    2    1    2    0    0 -0.18814691456E+03 -0.16249041997E+03 -0.84345638877E+03  0.88818307789E+03  0.12509237408E+03 0.  0.
         24    2    1    2    0    0  0.24606890381E+03  0.19910661492E+03 -0.63617333664E+03  0.71503364989E+03  0.79770023819E+02 0.  0.
        -13    1    5    5    0    0  0.10539534453E+03  0.12265041634E+03 -0.37949038085E+03  0.41250969981E+03  0.00000000000E+00 0.  1.
         14    1    5    5    0    0  0.14067355929E+03  0.76456198588E+02 -0.25668295578E+03  0.30252395008E+03  0.00000000000E+00 0. -1.
         11    1    3    3    0    0 -0.66084302380E+01  0.58039118632E+01 -0.31531903808E+03  0.31544167847E+03  0.00000000000E+00 0. -1.
        -12    1    3    3    0    0 -0.51313559017E+02 -0.42420106822E+02 -0.21085740489E+03  0.22111850216E+03  0.00000000000E+00 0.  1.
          5    1    4    4  501    0 -0.11867515144E+03 -0.35294204311E+02 -0.27656156376E+03  0.30304000293E+03  0.41800000000E+01 0.  1.
         -5    1    4    4    0  501 -0.69471763119E+02 -0.12719621565E+03 -0.56689482501E+03  0.58514307496E+03  0.41800000000E+01 0.  1.
</event>
<event>
11    1  0.8453735E-009  0.1250917E+03  0.7561462E-02  0.1125451E+00
         22   -1    0    0    0    0  0.00000000000E+00  0.00000000000E+00  0.17593149277E+04  0.17593149277E+04  0.00000000000E+00 0.  1.
         22   -1    0    0    0    0 -0.00000000000E+00 -0.00000000000E+00 -0.23827083237E+02  0.23827083237E+02  0.00000000000E+00 0.  1.
        -24    2    1    2    0    0  0.55402975831E+01 -0.10034770160E+01  0.11193975913E+03  0.13930639824E+03  0.82728840504E+02 0.  0.
         25    2    1    2    0    0  0.18506761464E+02 -0.14123015243E+01  0.45036067708E+03  0.46777857543E+03  0.12509021286E+03 0.  0.
         24    2    1    2    0    0 -0.24047059047E+02  0.24157785404E+01  0.11731874082E+04  0.11760570372E+04  0.78468866472E+02 0.  0.
        -11    1    5    5    0    0 -0.18709303916E+02 -0.37139898123E+02  0.66974837863E+03  0.67103822600E+03  0.00000000000E+00 0.  1.
         12    1    5    5    0    0 -0.53377551311E+01  0.39555676664E+02  0.50343902959E+03  0.50501881124E+03  0.00000000000E+00 0. -1.
         13    1    3    3    0    0  0.24588989876E+02 -0.63758021359E+01  0.11629847115E+03  0.11904034471E+03  0.00000000000E+00 0. -1.
        -14    1    3    3    0    0 -0.19048692293E+02  0.53723251199E+01 -0.43587120161E+01  0.20266053530E+02  0.00000000000E+00 0.  1.
          5    1    4    4  501    0  0.62868514851E+02 -0.49580886082E+01  0.37395518592E+03  0.37925846896E+03  0.41800000000E+01 0. -1.
         -5    1    4    4    0  501 -0.44361753387E+02  0.35457870839E+01  0.76405491157E+02  0.88520106465E+02  0.41800000000E+01 0. -1.
</event>
<event>
11    1  0.8453735E-009  0.9641319E+03  0.7561462E-02  0.8713898E-01
         22   -1    0    0    0    0  0.00000000000E+00  0.00000000000E+00  0.10119454373E+04  0.10119454373E+04  0.00000000000E+00 0. -1.
         22   -1    0    0    0    0 -0.00000000000E+00 -0.00000000000E+00 -0.14679354287E+04  0.14679354287E+04  0.00000000000E+00 0. -1.
         24    2    1    2    0    0  0.56764148713E+02 -0.29508026722E+01 -0.32920771602E+03  0.34336996274E+03  0.79336846482E+02 0.  0.
         25    2    1    2    0    0 -0.74663006958E+03  0.64672527008E+03 -0.50513166075E+03  0.11164747345E+04  0.12509117643E+03 0.  0.
        -24    2    1    2    0    0  0.68986592087E+03 -0.64377446741E+03  0.37834938541E+03  0.10200361688E+04  0.83456422485E+02 0.  0.
        -11    1    3    3    0    0 -0.91796791981E+01  0.59121750385E+01 -0.17599290178E+03  0.17633128424E+03  0.00000000000E+00 0.  1.
         12    1    3    3    0    0  0.65943827911E+02 -0.88629777107E+01 -0.15321481424E+03  0.16703867850E+03  0.00000000000E+00 0. -1.
         13    1    5    5    0    0  0.50340857509E+03 -0.47161998329E+03  0.31577877905E+03  0.75865791989E+03  0.00000000000E+00 0. -1.
        -14    1    5    5    0    0  0.18645734577E+03 -0.17215448413E+03  0.62570606360E+02  0.26137824886E+03  0.00000000000E+00 0.  1.
          5    1    4    4  501    0 -0.62543824259E+02  0.50598690908E+02 -0.83111876880E+02  0.11574547055E+03  0.41800000000E+01 0.  1.
         -5    1    4    4    0  501 -0.68408624532E+03  0.59612657918E+03 -0.42201978387E+03  0.10007292640E+04  0.41800000000E+01 0.  1.
</event>
<event>
11    1  0.8453735E-009  0.3181987E+03  0.7561462E-02  0.9927703E-01
         22   -1    0    0    0    0  0.00000000000E+00  0.00000000000E+00  0.29654691426E+04  0.29654691426E+04  0.00000000000E+00 0. -1.
         22   -1    0    0    0    0 -0.00000000000E+00 -0.00000000000E+00 -0.14115534367E+03  0.14115534367E+03  0.00000000000E+00 0.  1.
        -24    2    1    2    0    0  0.27043538145E+02 -0.42047599303E+02 -0.72291618901E+02  0.11930443657E+03  0.80672900404E+02 0.  0.
         25    2    1    2    0    0 -0.21016546621E+02 -0.26025137596E+03  0.56562452061E+03  0.63540642414E+03  0.12505099604E+03 0.  0.
         24    2    1    2    0    0 -0.60269915236E+01  0.30229897526E+03  0.23309808972E+04  0.23519136256E+04  0.81269697689E+02 0.  0.
        -11    1    5    5    0    0 -0.32968353169E+02  0.53776664912E+02  0.48377696275E+03  0.48787190090E+03  0.00000000000E+00 0.  1.
         12    1    5    5    0    0  0.26941361645E+02  0.24852231035E+03  0.18472039345E+04  0.18640417247E+04  0.00000000000E+00 0. -1.
         13    1    3    3    0    0  0.18205497012E+02  0.16655334196E+02  0.13536339365E+01  0.24711790779E+02  0.00000000000E+00 0. -1.
        -14    1    3    3    0    0  0.88380411328E+01 -0.58702933499E+02 -0.73645252838E+02  0.94592645792E+02  0.00000000000E+00 0.  1.
          5    1    4    4  501    0 -0.58578472760E+02 -0.23642190108E+03  0.45521122101E+03  0.51629592378E+03  0.41800000000E+01 0.  1.
         -5    1    4    4    0  501  0.37561926138E+02 -0.23829474881E+02  0.11041329960E+03  0.11911050036E+03  0.41800000000E+01 0.  1.
</event>
<event>
11    1  0.8453735E-009  0.8150783E+03  0.7561462E-02  0.8878028E-01
         22   -1    0    0    0    0  0.00000000000E+00  0.00000000000E+00  0.11076472700E+04  0.11076472700E+04  0.00000000000E+00 0.  1.
         22   -1    0    0    0    0 -0.00000000000E+00 -0.00000000000E+00 -0.11823388033E+04  0.11823388033E+04  0.00000000000E+00 0.  1.
        -24    2    1    2    0    0  0.97623252102E+03  0.19307287487E+03 -0.24618270839E+03  0.10307946723E+04  0.10781771825E+03 0.  0.
         25    2    1    2    0    0 -0.65529454403E+03  0.21558245169E+03 -0.14954962096E+02  0.70125334828E+03  0.12508347080E+03 0.  0.
         24    2    1    2    0    0 -0.32093797699E+03 -0.40865532656E+03  0.18644613712E+03  0.55793805277E+03  0.80822940325E+02 0.  0.
        -11    1    5    5    0    0 -0.24244405074E+03 -0.34972587560E+03  0.17082278641E+03  0.45854959400E+03  0.00000000000E+00 0.  1.
         12    1    5    5    0    0 -0.78493926253E+02 -0.58929450957E+02  0.15623350708E+02  0.99388458767E+02  0.00000000000E+00 0. -1.
         13    1    3    3    0    0  0.59172135113E+03  0.85641459195E+02 -0.19163904493E+03  0.62784881975E+03  0.00000000000E+00 0. -1.
        -14    1    3    3    0    0  0.38451116989E+03  0.10743141568E+03 -0.54543663460E+02  0.40294585252E+03  0.00000000000E+00 0.  1.
          5    1    4    4  501    0 -0.65246216973E+03  0.21793816508E+03 -0.28380006715E+01  0.68791674887E+03  0.41800000000E+01 0.  1.
         -5    1    4    4    0  501 -0.28323743064E+01 -0.23557133893E+01 -0.12116961424E+02  0.13336599415E+02  0.41800000000E+01 0.  1.
</event>
<event>
11    1  0.8453735E-009  0.1443151E+03  0.7561462E-02  0.1102833E+00
         22   -1    0    0    0    0  0.00000000000E+00  0.00000000000E+00  0.33168478662E+03  0.33168478662E+03  0.00000000000E+00 0.  1.
         22   -1    0    0    0    0 -0.00000000000E+00 -0.00000000000E+00 -0.39954078828E+03  0.39954078828E+03  0.00000000000E+00 0. -1.
        -24    2    1    2    0    0 -0.65896603223E+02  0.13848966533E+02 -0.24465085425E+03  0.26587570125E+03  0.79383196182E+02 0.  0.
         25    2    1    2    0    0  0.94574296050E+02  0.10590305951E+02 -0.92581646268E+02  0.18241627533E+03  0.12509150342E+03 0.  0.
         24    2    1    2    0    0 -0.28677692826E+02 -0.24439272483E+02  0.26937649886E+03  0.28293359832E+03  0.77897591814E+02 0.  0.
        -11    1    5    5    0    0 -0.71320620325E+01 -0.49778836191E+02  0.19638174461E+03  0.20271800231E+03  0.00000000000E+00 0.  1.
         12    1    5    5    0    0 -0.21545630794E+02  0.25339563707E+02  0.72994754251E+02  0.80215596010E+02  0.00000000000E+00 0. -1.
         11    1    3    3    0    0 -0.48515322361E+02  0.26132865243E+02 -0.66084954625E+02  0.86045827193E+02  0.00000000000E+00 0. -1.
        -12    1    3    3    0    0 -0.17381280863E+02 -0.12283898711E+02 -0.17856589963E+03  0.17982987405E+03  0.00000000000E+00 0.  1.
          5    1    4    4  501    0  0.52587578805E+02  0.61826525495E+02 -0.81545831876E+02  0.11513108961E+03  0.41800000000E+01 0. -1.
         -5    1    4    4    0  501  0.41986717245E+02 -0.51236219544E+02 -0.11035814392E+02  0.67285185721E+02  0.41800000000E+01 0. -1.
</event>
<event>
11    1  0.8453735E-009  0.1622553E+03  0.7561462E-02  0.1084975E+00
         22   -1    0    0    0    0  0.00000000000E+00  0.00000000000E+00  0.53459352284E+03  0.53459352284E+03  0.00000000000E+00 0.  1.
         22   -1    0    0    0    0 -0.00000000000E+00 -0.00000000000E+00 -0.39913728982E+03  0.39913728982E+03  0.00000000000E+00 0.  1.
        -24    2    1    2    0    0 -0.56646890830E+02 -0.16466508580E+02 -0.32020864333E+03  0.33522838409E+03  0.79777679165E+02 0.  0.
         25    2    1    2    0    0  0.65080628373E+01 -0.80632243169E+02  0.30888578848E+02  0.15213551590E+03  0.12508875799E+03 0.  0.
         24    2    1    2    0    0  0.50138827993E+02  0.97098751749E+02  0.42477629750E+03  0.44636691266E+03  0.82864034019E+02 0.  0.
        -11    1    5    5    0    0 -0.16487094737E+01  0.52537328904E+02  0.29559215804E+03  0.30022926751E+03  0.00000000000E+00 0.  1.
         12    1    5    5    0    0  0.51787537467E+02  0.44561422845E+02  0.12918413946E+03  0.14613764515E+03  0.00000000000E+00 0. -1.
         11    1    3    3    0    0 -0.55442448187E+01  0.23988963946E+02 -0.35816117925E+02  0.43462666106E+02  0.00000000000E+00 0. -1.
        -12    1    3    3    0    0 -0.51102646012E+02 -0.40455472525E+02 -0.28439252541E+03  0.29176571799E+03  0.00000000000E+00 0.  1.
          5    1    4    4  501    0  0.69784386349E+01  0.18491199909E+02 -0.29674840534E+02  0.35898351502E+02  0.41800000000E+01 0.  1.
         -5    1    4    4    0  501 -0.47037579759E+00 -0.99123443078E+02  0.60563419382E+02  0.11623716440E+03  0.41800000000E+01 0.  1.
</event>
<event>
11    1  0.8453735E-009  0.2981169E+03  0.7561462E-02  0.1000991E+00
         22   -1    0    0    0    0  0.00000000000E+00  0.00000000000E+00  0.46536065146E+03  0.46536065146E+03  0.00000000000E+00 0. -1.
         22   -1    0    0    0    0 -0.00000000000E+00 -0.00000000000E+00 -0.70953400011E+03  0.70953400011E+03  0.00000000000E+00 0. -1.
        -24    2    1    2    0    0  0.15637237369E+03 -0.21526484613E+03 -0.53407807423E+03  0.60223683452E+03  0.81599891198E+02 0.  0.
         25    2    1    2    0    0 -0.91166761699E+02  0.30940244091E+03  0.15677686941E+03  0.37982447217E+03  0.12508554673E+03 0.  0.
         24    2    1    2    0    0 -0.65205611996E+02 -0.94137594774E+02  0.13312785617E+03  0.19283334488E+03  0.79674426409E+02 0.  0.
        -13    1    5    5    0    0 -0.21719500118E+02  0.60985539496E+01  0.52193263071E+02  0.56860054130E+02  0.00000000000E+00 0.  1.
         14    1    5    5    0    0 -0.43486111877E+02 -0.10023614872E+03  0.80934593098E+02  0.13597329075E+03  0.00000000000E+00 0. -1.
         11    1    3    3    0    0  0.94810615856E+02 -0.18159077100E+03 -0.43506677518E+03  0.48088185644E+03  0.00000000000E+00 0. -1.
        -12    1    3    3    0    0  0.61561757838E+02 -0.33674075128E+02 -0.99011299056E+02  0.12135497808E+03  0.00000000000E+00 0.  1.
          5    1    4    4  501    0 -0.15094236307E+02  0.12292565790E+03  0.12478171187E+03  0.17585932263E+03  0.41800000000E+01 0. -1.
         -5    1    4    4    0  501 -0.76072525391E+02  0.18647678301E+03  0.31995157542E+02  0.20396514954E+03  0.41800000000E+01 0. -1.
</event>
<event>
11    1  0.8453735E-009  0.2923024E+03  0.7561462E-02  0.1003503E+00
         22   -1    0    0    0    0  0.00000000000E+00  0.00000000000E+00  0.14862148169E+03  0.14862148169E+03  0.00000000000E+00 0. -1.
         22   -1    0    0    0    0 -0.00000000000E+00 -0.00000000000E+00 -0.13568477327E+04  0.13568477327E+04  0.00000000000E+00 0. -1.
         24    2    1    2    0    0  0.28970761881E+02  0.24674310118E+02 -0.41009902444E+03  0.42083474155E+03  0.86443873274E+02 0.  0.
         25    2    1    2    0    0 -0.25626770473E+03 -0.14605491000E+03 -0.74363169971E+03  0.80971612515E+03  0.12508767044E+03 0.  0.
        -24    2    1    2    0    0  0.22729694285E+03  0.12138059988E+03 -0.54495526828E+02  0.27491834766E+03  0.78823760260E+02 0.  0.
        -11    1    3    3    0    0 -0.32402231203E+01 -0.25040411916E+02 -0.51283100979E+02  0.57161855470E+02  0.00000000000E+00 0.  1.
         12    1    3    3    0    0  0.32210985001E+02  0.49714722034E+02 -0.35881592346E+03  0.36367288608E+03  0.00000000000E+00 0. -1.
         13    1    5    5    0    0  0.19088913844E+03  0.10088043166E+03 -0.13414178497E+02  0.21632259440E+03  0.00000000000E+00 0. -1.
        -14    1    5    5    0    0  0.36407804410E+02  0.20500168215E+02 -0.41081348330E+02  0.58595753254E+02  0.00000000000E+00 0.  1.
          5    1    4    4  501    0 -0.22162524488E+03 -0.98877370053E+02 -0.46031265697E+03  0.52038418312E+03  0.41800000000E+01 0.  1.
         -5    1    4    4    0  501 -0.34642459848E+02 -0.47177539943E+02 -0.28331904274E+03  0.28933194203E+03  0.41800000000E+01 0.  1.
</event>
<event>
11    1  0.8453735E-009  0.1441494E+03  0.7561462E-02  0.1103011E+00
         22   -1    0    0    0    0  0.00000000000E+00  0.00000000000E+00  0.82369596327E+03  0.82369596327E+03  0.00000000000E+00 0.  1.
         22   -1    0    0    0    0 -0.00000000000E+00 -0.00000000000E+00 -0.83840507047E+02  0.83840507047E+02  0.00000000000E+00 0.  1.
         24    2    1    2    0    0  0.63410827804E+02 -0.52857584185E+02 -0.10578326469E+02  0.11287608645E+03  0.76251246628E+02 0.  0.
         25    2    1    2    0    0 -0.25700036913E+02  0.25804208865E+01  0.21735710394E+03  0.25210245616E+03  0.12507752515E+03 0.  0.
        -24    2    1    2    0    0 -0.37710790890E+02  0.50277163299E+02  0.53307667875E+03  0.54255792771E+03  0.79047217519E+02 0.  0.
        -11    1    3    3    0    0  0.56337036689E+02  0.72179983011E+00  0.51851745772E+01  0.56579755507E+02  0.00000000000E+00 0.  1.
         12    1    3    3    0    0  0.70737911150E+01 -0.53579384015E+02 -0.15763501046E+02  0.56296330941E+02  0.00000000000E+00 0. -1.
         13    1    5    5    0    0  0.11597851737E+02  0.38529356113E+02  0.12429602798E+03  0.13064656145E+03  0.00000000000E+00 0. -1.
        -14    1    5    5    0    0 -0.49308642627E+02  0.11747807185E+02  0.40878065076E+03  0.41191136625E+03  0.00000000000E+00 0.  1.
          5    1    4    4  501    0 -0.29195764751E+02  0.38304395635E+02  0.20965125207E+03  0.21515282777E+03  0.41800000000E+01 0.  1.
         -5    1    4    4    0  501  0.34957278370E+01 -0.35723974748E+02  0.77058518778E+01  0.36949628389E+02  0.41800000000E+01 0.  1.
</event>
<event>
11    1  0.8453735E-009  0.1619440E+03  0.7561462E-02  0.1085263E+00
         22   -1    0    0    0    0  0.00000000000E+00  0.00000000000E+00  0.20580117521E+04  0.20580117521E+04  0.00000000000E+00 0. -1.
         22   -1    0    0    0    0 -0.00000000000E+00 -0.00000000000E+00 -0.27681393833E+03  0.27681393833E+03  0.00000000000E+00 0. -1.
         24    2    1    2    0    0  0.20599176821E+02  0.12441028472E+02 -0.24069774731E+03  0.25465131206E+03  0.79578765367E+02 0.  0.
         25    2    1    2    0    0 -0.41091050496E+01  0.90338462285E+02  0.19555878358E+03  0.24913613523E+03  0.12509058129E+03 0.  0.
        -24    2    1    2    0    0 -0.16490071771E+02 -0.10277949076E+03  0.18263367775E+04  0.18310382432E+04  0.79746328111E+02 0.  0.
        -13    1    3    3    0    0 -0.27762429567E+02  0.19922749067E+02 -0.95634286686E+02  0.10155582315E+03  0.00000000000E+00 0.  1.
         14    1    3    3    0    0  0.48361606388E+02 -0.74817205949E+01 -0.14506346062E+03  0.15309548891E+03  0.00000000000E+00 0. -1.
         11    1    5    5    0    0 -0.25222648435E+02 -0.64166161443E+02  0.15831220350E+04  0.15846226225E+04  0.00000000000E+00 0. -1.
        -12    1    5    5    0    0  0.87325766636E+01 -0.38613329315E+02  0.24321474255E+03  0.24641562063E+03  0.00000000000E+00 0.  1.
          5    1    4    4  501    0  0.25805669347E+02 -0.50077571085E+01 -0.30241177544E+01  0.26788577601E+02  0.41800000000E+01 0. -1.
         -5    1    4    4    0  501 -0.29914774396E+02  0.95346219394E+02  0.19858290134E+03  0.22234755763E+03  0.41800000000E+01 0. -1.
</event>
<event>
11    1  0.8453735E-009  0.1601325E+03  0.7561462E-02  0.1086953E+00
         22   -1    0    0    0    0  0.00000000000E+00  0.00000000000E+00  0.23486630626E+03  0.23486630626E+03  0.00000000000E+00 0. -1.
         22   -1    0    0    0    0 -0.00000000000E+00 -0.00000000000E+00 -0.36636495594E+03  0.36636495594E+03  0.00000000000E+00 0. -1.
         24    2    1    2    0    0  0.25191866023E+02 -0.47858132428E+02 -0.22745143014E+03  0.24745402783E+03  0.81082130354E+02 0.  0.
         25    2    1    2    0    0  0.74828016167E+02  0.69505395912E+02 -0.39739825727E+02  0.16630485188E+03  0.12509123849E+03 0.  0.
        -24    2    1    2    0    0 -0.10001988219E+03 -0.21647263484E+02  0.13569260619E+03  0.18747238249E+03  0.79125406609E+02 0.  0.
        -13    1    3    3    0    0  0.27499791266E+02 -0.61777972330E+02 -0.10975169566E+03  0.12891156304E+03  0.00000000000E+00 0.  1.
         14    1    3    3    0    0 -0.23079252432E+01  0.13919839902E+02 -0.11769973448E+03  0.11854246479E+03  0.00000000000E+00 0. -1.
         11    1    5    5    0    0 -0.10423557754E+03 -0.92240529916E+01  0.13895859646E+03  0.17395295430E+03  0.00000000000E+00 0. -1.
        -12    1    5    5    0    0  0.42156953490E+01 -0.12423210492E+02 -0.32659902672E+01  0.13519428192E+02  0.00000000000E+00 0.  1.
          5    1    4    4  501    0  0.70843395753E+02 -0.18280835572E+02 -0.22460314830E+02  0.76647986362E+02  0.41800000000E+01 0. -1.
         -5    1    4    4    0  501  0.39846204138E+01  0.87786231484E+02 -0.17279510897E+02  0.89656865520E+02  0.41800000000E+01 0. -1.
</event>
<event>
11    1  0.8453735E-009  0.1485820E+03  0.7561462E-02  0.1098337E+00
         22   -1    0    0    0    0  0.00000000000E+00  0.00000000000E+00  0.41680702987E+04  0.41680702987E+04  0.00000000000E+00 0.  1.
         22   -1    0    0    0    0 -0.00000000000E+00 -0.00000000000E+00 -0.47701188785E+02  0.47701188785E+02  0.00000000000E+00 0.  1.
         24    2    1    2    0    0  0.24685947607E+02  0.38012910335E+02  0.62445965892E+02  0.11145274992E+03  0.80422878880E+02 0.  0.
         25    2    1    2    0    0 -0.48181353590E+02 -0.11301281077E+03  0.32142382066E+03  0.36613418959E+03  0.12509050352E+03 0.  0.
        -24    2    1    2    0    0  0.23495405983E+02  0.74999900437E+02  0.37364993233E+04  0.37381845479E+04  0.80121794789E+02 0.  0.
        -11    1    3    3    0    0 -0.79224801702E+01  0.51501434066E+02  0.18958212576E+02  0.55448870386E+02  0.00000000000E+00 0.  1.
         12    1    3    3    0    0  0.32608427777E+02 -0.13488523731E+02  0.43487753316E+02  0.56003879536E+02  0.00000000000E+00 0. -1.
         13    1    5    5    0    0 -0.60204502206E+01 -0.13107786256E+02  0.22851076435E+03  0.22896556358E+03  0.00000000000E+00 0. -1.
        -14    1    5    5    0    0  0.29515856204E+02  0.88107686693E+02  0.35079885590E+04  0.35092189843E+04  0.00000000000E+00 0.  1.
          5    1    4    4  501    0 -0.30508611239E+02 -0.12895182052E+03  0.31402408249E+03  0.34086352718E+03  0.41800000000E+01 0. -1.
         -5    1    4    4    0  501 -0.17672742351E+02  0.15939009752E+02  0.73997381685E+01  0.25270662418E+02  0.41800000000E+01 0. -1.
</event>
<event>
11    1  0.8453735E-009  0.3711161E+03  0.7561462E-02  0.9739049E-01
         22   -1    0    0    0    0  0.00000000000E+00  0.00000000000E+00  0.67991421022E+03  0.67991421022E+03  0.00000000000E+00 0.  1.
         22   -1    0    0    0    0 -0.00000000000E+00 -0.00000000000E+00 -0.69457874552E+03  0.69457874552E+03  0.00000000000E+00 0.  1.
         24    2    1    2    0    0 -0.38252380243E+02  0.64515373872E+01 -0.13860341763E+03  0.16360620769E+03  0.77789567975E+02 0.  0.
         25    2    1    2    0    0  0.33024908526E+03  0.18016719181E+03 -0.40931015540E+03  0.56983010087E+03  0.12508743033E+03 0.  0.
        -24    2    1    2    0    0 -0.29199670502E+03 -0.18661872920E+03  0.53324903774E+03  0.64105664718E+03  0.80687439019E+02 0.  0.
        -11    1    3    3    0    0 -0.46320547399E+02  0.34488474837E+02 -0.92476483424E+02  0.10902728096E+03  0.00000000000E+00 0.  1.
         12    1    3    3    0    0  0.80681671567E+01 -0.28036937450E+02 -0.46126934210E+02  0.54578926725E+02  0.00000000000E+00 0. -1.
         11    1    5    5    0    0 -0.13074574441E+03 -0.39390190779E+02  0.18325934588E+03  0.22853889092E+03  0.00000000000E+00 0. -1.
        -12    1    5    5    0    0 -0.16125096061E+03 -0.14722853842E+03  0.34998969186E+03  0.41251775626E+03  0.00000000000E+00 0.  1.
          5    1    4    4  501    0  0.22994452024E+03  0.16130423104E+03 -0.22828665695E+03  0.36197487134E+03  0.41800000000E+01 0. -1.
         -5    1    4    4    0  501  0.10030456502E+03  0.18862960766E+02 -0.18102349844E+03  0.20785522953E+03  0.41800000000E+01 0. -1.
</event>
<event>
11    1  0.8453735E-009  0.1501927E+03  0.7561462E-02  0.1096682E+00
         22   -1    0    0    0    0  0.00000000000E+00  0.00000000000E+00  0.20814595496E+04  0.20814595496E+04  0.00000000000E+00 0.  1.
         22   -1    0    0    0    0 -0.00000000000E+00 -0.00000000000E+00 -0.88861859450E+02  0.88861859450E+02  0.00000000000E+00 0.  1.
        -24    2    1    2    0    0  0.75800622199E+02  0.20001315755E+02 -0.17542702609E+02  0.11884835543E+03  0.87586518454E+02 0.  0.
         25    2    1    2    0    0 -0.12492316422E+03 -0.47367384138E+01  0.40317241958E+03  0.44025534865E+03  0.12509411839E+03 0.  0.
         24    2    1    2    0    0  0.49122542021E+02 -0.15264577341E+02  0.16069679732E+04  0.16112177050E+04  0.10502568517E+03 0.  0.
        -11    1    5    5    0    0 -0.30407271996E+02 -0.10740843010E+02  0.70564248336E+03  0.70637899333E+03  0.00000000000E+00 0.  1.
         12    1    5    5    0    0  0.79529814017E+02 -0.45237343315E+01  0.90132548983E+03  0.90483871166E+03  0.00000000000E+00 0. -1.
         13    1    3    3    0    0  0.68602229831E+02  0.48933250885E+02 -0.19071292939E-01  0.84265825479E+02  0.00000000000E+00 0. -1.
        -14    1    3    3    0    0  0.71983923679E+01 -0.28931935130E+02 -0.17523631316E+02  0.34582529947E+02  0.00000000000E+00 0.  1.
          5    1    4    4  501    0 -0.12077335554E+03  0.43064658814E+02  0.30590047608E+03  0.33171274005E+03  0.41800000000E+01 0.  1.
         -5    1    4    4    0  501 -0.41498086805E+01 -0.47801397228E+02  0.97271943502E+02  0.10854260860E+03  0.41800000000E+01 0.  1.
</event>
<event>
11    1  0.8453735E-009  0.1676112E+03  0.7561462E-02  0.1080129E+00
         22   -1    0    0    0    0  0.00000000000E+00  0.00000000000E+00  0.38919067306E+03  0.38919067306E+03  0.00000000000E+00 0.  1.
         22   -1    0    0    0    0 -0.00000000000E+00 -0.00000000000E+00 -0.34284919819E+03  0.34284919819E+03  0.00000000000E+00 0.  1.
        -24    2    1    2    0    0 -0.19242594761E+02  0.10762717124E+03 -0.21395494977E+03  0.25256230615E+03  0.77827453478E+02 0.  0.
         25    2    1    2    0    0 -0.28232747143E+02 -0.12539870350E+03 -0.23078790011E+02  0.18083685100E+03  0.12508962099E+03 0.  0.
         24    2    1    2    0    0  0.47475341904E+02  0.17771532267E+02  0.28337521465E+03  0.29864071410E+03  0.79467152939E+02 0.  0.
        -11    1    5    5    0    0  0.35196188099E+02 -0.77042780936E+01  0.25843318697E+03  0.26093263438E+03  0.00000000000E+00 0.  1.
         12    1    5    5    0    0  0.12279153806E+02  0.25475810361E+02  0.24942027676E+02  0.37708079722E+02  0.00000000000E+00 0. -1.
         13    1    3    3    0    0 -0.29674817863E+01 -0.12014702469E+02 -0.30749496413E+02  0.33146501372E+02  0.00000000000E+00 0. -1.
        -14    1    3    3    0    0 -0.16275112975E+02  0.11964187371E+03 -0.18320545336E+03  0.21941580478E+03  0.00000000000E+00 0.  1.
          5    1    4    4  501    0 -0.42661141430E+02  0.47261681280E+01 -0.24973088982E+02  0.49834097028E+02  0.41800000000E+01 0. -1.
         -5    1    4    4    0  501  0.14428394287E+02 -0.13012487163E+03  0.18942989710E+01  0.13100275397E+03  0.41800000000E+01 0. -1.
</event>
<event>
11    1  0.8453735E-009  0.2136322E+03  0.7561462E-02  0.1045281E+00
         22   -1    0    0    0    0  0.00000000000E+00  0.00000000000E+00  0.26526887698E+03  0.26526887698E+03  0.00000000000E+00 0. -1.
         22   -1    0    0    0    0 -0.00000000000E+00 -0.00000000000E+00 -0.24007543727E+04  0.24007543727E+04  0.00000000000E+00 0.  1.
         24    2    1    2    0    0  0.59314622924E+02 -0.17034479917E+03 -0.20279615411E+04  0.20375623569E+04  0.80602548488E+02 0.  0.
         25    2    1    2    0    0 -0.66169167279E+01  0.14086502266E+03 -0.33299285558E+03  0.38264681665E+03  0.12509039223E+03 0.  0.
        -24    2    1    2    0    0 -0.52697706196E+02  0.29479776503E+02  0.22546890101E+03  0.24581407612E+03  0.77085856243E+02 0.  0.
        -11    1    3    3    0    0  0.44653179273E+02 -0.91104190753E+02 -0.71907928995E+03  0.72620169735E+03  0.00000000000E+00 0.  1.
         12    1    3    3    0    0  0.14661443652E+02 -0.79240608413E+02 -0.13088822512E+04  0.13113606596E+04  0.00000000000E+00 0. -1.
         13    1    5    5    0    0  0.16864008540E+01  0.15014931820E+02  0.15451954471E+03  0.15525650332E+03  0.00000000000E+00 0. -1.
        -14    1    5    5    0    0 -0.54384107050E+02  0.14464844683E+02  0.70949356300E+02  0.90557572796E+02  0.00000000000E+00 0.  1.
          5    1    4    4  501    0 -0.17979065441E+01 -0.13765494610E+02  0.10078271010E+01  0.14533045974E+02  0.41800000000E+01 0. -1.
         -5    1    4    4    0  501 -0.48190101838E+01  0.15463051727E+03 -0.33400068268E+03  0.36811377068E+03  0.41800000000E+01 0. -1.
</event>
<event>
11    1  0.9798143E-009  0.1449689E+03  0.7561462E-02  0.1102133E+00
         22   -1    0    0    0    0  0.00000000000E+00  0.00000000000E+00  0.33119619260E+03  0.33119619260E+03  0.00000000000E+00 0.  1.
         22   -1    0    0    0    0 -0.00000000000E+00 -0.00000000000E+00 -0.66673665447E+03  0.66673665447E+03  0.00000000000E+00 0.  1.
        -24    2    1    2    0    0  0.11655526468E+02  0.32375846668E+02 -0.48983477098E+03  0.49732211685E+03  0.78785393980E+02 0.  0.
         25    2    1    2    0    0 -0.72983469959E+02 -0.69523606619E+02 -0.12355343759E+03  0.20266709242E+03  0.12509348362E+03 0.  0.
         24    2    1    2    0    0  0.61327943491E+02  0.37147759952E+02  0.27784774669E+03  0.29794363780E+03  0.80187082775E+02 0.  0.
        -13    1    5    5    0    0  0.70568296271E+02  0.51807601227E+02  0.25244139124E+03  0.26719013454E+03  0.00000000000E+00 0.  1.
         14    1    5    5    0    0 -0.92403527802E+01 -0.14659841276E+02  0.25406355449E+02  0.30753503263E+02  0.00000000000E+00 0. -1.
         11    1    3    3    0    0 -0.15807025881E+02  0.18485978026E+02 -0.42793127533E+02  0.49222405618E+02  0.00000000000E+00 0. -1.
        -12    1    3    3    0    0  0.27462552349E+02  0.13889868642E+02 -0.44704164344E+03  0.44809971123E+03  0.00000000000E+00 0.  1.
          5    1    4    4  501    0  0.16754665155E+02  0.18212249484E+02 -0.52978786240E+02  0.58622768846E+02  0.41800000000E+01 0.  1.
         -5    1    4    4    0  501 -0.89738135115E+02 -0.87735856103E+02 -0.70574651351E+02  0.14404432357E+03  0.41800000000E+01 0.  1.
</event>
<event>
11    1  0.8453735E-009  0.2248213E+03  0.7561462E-02  0.1038239E+00
         22   -1    0    0    0    0  0.00000000000E+00  0.00000000000E+00  0.39821074610E+03  0.39821074610E+03  0.00000000000E+00 0. -1.
         22   -1    0    0    0    0 -0.00000000000E+00 -0.00000000000E+00 -0.64292221899E+03  0.64292221899E+03  0.00000000000E+00 0. -1.
         24    2    1    2    0    0 -0.40112228063E+02 -0.88801336945E+01 -0.39463434538E+03  0.40362868338E+03  0.74108028432E+02 0.  0.
         25    2    1    2    0    0  0.21367515062E+03 -0.46788027413E+02 -0.13812234607E+03  0.28735079530E+03  0.12508600072E+03 0.  0.
        -24    2    1    2    0    0 -0.17356292255E+03  0.55668161108E+02  0.28804521856E+03  0.35015348640E+03  0.80089848656E+02 0.  0.
        -11    1    3    3    0    0  0.17234206020E+02 -0.19260489972E+02 -0.14467165370E+03  0.14696214382E+03  0.00000000000E+00 0.  1.
         12    1    3    3    0    0 -0.57346434084E+02  0.10380356278E+02 -0.24996269168E+03  0.25666653956E+03  0.00000000000E+00 0. -1.
         13    1    5    5    0    0 -0.16886186982E+03  0.52413560891E+02  0.22173946379E+03  0.28360166122E+03  0.00000000000E+00 0. -1.
        -14    1    5    5    0    0 -0.47010527318E+01  0.32546002169E+01  0.66305754772E+02  0.66551825183E+02  0.00000000000E+00 0.  1.
          5    1    4    4  501    0  0.27556880101E+02 -0.23326514057E+01  0.23739256789E+02  0.36685795839E+02  0.41800000000E+01 0. -1.
         -5    1    4    4    0  501  0.18611827052E+03 -0.44455376007E+02 -0.16186160286E+03  0.25066499946E+03  0.41800000000E+01 0. -1.
</event>
<event>
11    1  0.8453735E-009  0.1284906E+03  0.7561462E-02  0.1121138E+00
         22   -1    0    0    0    0  0.00000000000E+00  0.00000000000E+00  0.17400148515E+04  0.17400148515E+04  0.00000000000E+00 0.  1.
         22   -1    0    0    0    0 -0.00000000000E+00 -0.00000000000E+00 -0.15205207256E+03  0.15205207256E+03  0.00000000000E+00 0.  1.
         24    2    1    2    0    0 -0.22829770501E+02  0.17209366731E+02 -0.11910789568E+03  0.14661137058E+03  0.80565764734E+02 0.  0.
         25    2    1    2    0    0  0.30530656311E+02 -0.32270235022E+02  0.22680028862E+03  0.26278745665E+03  0.12508152306E+03 0.  0.
        -24    2    1    2    0    0 -0.77008858104E+01  0.15060868291E+02  0.14802703860E+04  0.14826680968E+04  0.82572006547E+02 0.  0.
        -13    1    3    3    0    0 -0.51807509681E+01  0.43736527607E+02 -0.10046831170E+03  0.10969779252E+03  0.00000000000E+00 0.  1.
         14    1    3    3    0    0 -0.17649019533E+02 -0.26527160876E+02 -0.18639583976E+02  0.36913578063E+02  0.00000000000E+00 0. -1.
         11    1    5    5    0    0  0.20540570052E+02 -0.42350855351E+01  0.12175393906E+04  0.12177200083E+04  0.00000000000E+00 0. -1.
        -12    1    5    5    0    0 -0.28241455863E+02  0.19295953826E+02  0.26273099539E+03  0.26494808850E+03  0.00000000000E+00 0.  1.
          5    1    4    4  501    0 -0.10176735798E+02 -0.23392157813E+01 -0.13285260675E+02  0.17407137421E+02  0.41800000000E+01 0. -1.
         -5    1    4    4    0  501  0.40707392110E+02 -0.29931019241E+02  0.24008554929E+03  0.24538031923E+03  0.41800000000E+01 0. -1.
</event>
<event>
11    1  0.8453735E-009  0.1904458E+03  0.7561462E-02  0.1061493E+00
         22   -1    0    0    0    0  0.00000000000E+00  0.00000000000E+00  0.68407452631E+03  0.68407452631E+03  0.00000000000E+00 0. -1.
         22   -1    0    0    0    0 -0.00000000000E+00 -0.00000000000E+00 -0.10684382929E+04  0.10684382929E+04  0.00000000000E+00 0. -1.
         24    2    1    2    0    0 -0.80958516231E+01 -0.48386342757E+02 -0.85882520711E+03  0.86464231701E+03  0.87285846624E+02 0.  0.
         25    2    1    2    0    0  0.14807821509E+03  0.15705856364E+02 -0.14772277594E+03  0.24421799765E+03  0.12508629076E+03 0.  0.
        -24    2    1    2    0    0 -0.13998236347E+03  0.32680486393E+02  0.62218421643E+03  0.64365250458E+03  0.80698644404E+02 0.  0.
        -13    1    3    3    0    0  0.74271173599E+01 -0.60662673866E+02 -0.34062404917E+03  0.34606338285E+03  0.00000000000E+00 0.  1.
         14    1    3    3    0    0 -0.15522968983E+02  0.12276331109E+02 -0.51820115793E+03  0.51857893416E+03  0.00000000000E+00 0. -1.
         11    1    5    5    0    0 -0.56170584927E+02  0.12506032525E+02  0.41905618820E+03  0.42298891750E+03  0.00000000000E+00 0. -1.
        -12    1    5    5    0    0 -0.83811778542E+02  0.20174453869E+02  0.20312802823E+03  0.22066358708E+03  0.00000000000E+00 0.  1.
          5    1    4    4  501    0  0.72139472855E+01  0.37659171000E+02  0.42425032685E+00  0.38573392179E+02  0.41800000000E+01 0. -1.
         -5    1    4    4    0  501  0.14086426781E+03 -0.21953314636E+02 -0.14814702627E+03  0.20564460547E+03  0.41800000000E+01 0. -1.
</event>
<event>
11    1  0.8453735E-009  0.1742597E+03  0.7561462E-02  0.1074383E+00
         22   -1    0    0    0    0  0.00000000000E+00  0.00000000000E+00  0.85753476117E+02  0.85753476117E+02  0.00000000000E+00 0. -1.
         22   -1    0    0    0    0 -0.00000000000E+00 -0.00000000000E+00 -0.13270774757E+04  0.13270774757E+04  0.00000000000E+00 0. -1.
        -24    2    1    2    0    0 -0.97344846659E+02  0.49435732048E+02 -0.62237981831E+03  0.63718801618E+03  0.82048881420E+02 0.  0.
         25    2    1    2    0    0  0.26028938895E+02 -0.14917975642E+03 -0.59510581497E+03  0.62668181082E+03  0.12508819135E+03 0.  0.
         24    2    1    2    0    0  0.71315907764E+02  0.99744024367E+02 -0.23838366325E+02  0.14896112485E+03  0.81156145233E+02 0.  0.
        -13    1    5    5    0    0  0.69751650641E+02  0.41052135257E+02 -0.36681660217E+02  0.88860085373E+02  0.00000000000E+00 0.  1.
         14    1    5    5    0    0  0.15642571232E+01  0.58691889110E+02  0.12843293893E+02  0.60101039472E+02  0.00000000000E+00 0. -1.
         11    1    3    3    0    0 -0.34431972358E+02  0.49613050774E+02 -0.44296050096E+03  0.44705818518E+03  0.00000000000E+00 0. -1.
        -12    1    3    3    0    0 -0.62912874301E+02 -0.17731872564E+00 -0.17941931735E+03  0.19012983099E+03  0.00000000000E+00 0.  1.
          5    1    4    4  501    0  0.59314338068E+01 -0.12041891216E+03 -0.57171949669E+03  0.58430860990E+03  0.41800000000E+01 0. -1.
         -5    1    4    4    0  501  0.20097505089E+02 -0.28760844259E+02 -0.23386318284E+02  0.42373200920E+02  0.41800000000E+01 0. -1.
</event>
<event>
11    1  0.8453735E-009  0.1362635E+03  0.7561462E-02  0.1111804E+00
         22   -1    0    0    0    0  0.00000000000E+00  0.00000000000E+00  0.38174350202E+03  0.38174350202E+03  0.00000000000E+00 0.  1.
         22   -1    0    0    0    0 -0.00000000000E+00 -0.00000000000E+00 -0.13209424710E+03  0.13209424710E+03  0.00000000000E+00 0. -1.
        -24    2    1    2    0    0 -0.12911452755E+02 -0.76015748447E+01 -0.75230544153E+02  0.11135887338E+03  0.80725921206E+02 0.  0.
         25    2    1    2    0    0  0.32429901357E+02 -0.43458948228E+02  0.15336699410E+03  0.20520006438E+03  0.12508098521E+03 0.  0.
         24    2    1    2    0    0 -0.19518448602E+02  0.51060523073E+02  0.17151280497E+03  0.19727881135E+03  0.80710224175E+02 0.  0.
        -11    1    5    5    0    0 -0.27947028037E+02  0.63938846076E+02  0.87745508900E+02  0.11210926253E+03  0.00000000000E+00 0.  1.
         12    1    5    5    0    0  0.84285794353E+01 -0.12878323003E+02  0.83767296070E+02  0.85169548816E+02  0.00000000000E+00 0. -1.
         13    1    3    3    0    0 -0.45983713368E+02 -0.97209127395E+01 -0.55746443473E+02  0.72915457891E+02  0.00000000000E+00 0. -1.
        -14    1    3    3    0    0  0.33072260613E+02  0.21193378948E+01 -0.19484100680E+02  0.38443415489E+02  0.00000000000E+00 0.  1.
          5    1    4    4  501    0  0.19847748474E+02  0.16517050714E+02 -0.12011134687E+02  0.28783429960E+02  0.41800000000E+01 0.  1.
         -5    1    4    4    0  501  0.12582152883E+02 -0.59975998942E+02  0.16537812879E+03  0.17641663442E+03  0.41800000000E+01 0.  1.
</event>
<event>
11    1  0.8453735E-009  0.1329438E+03  0.7561462E-02  0.1115704E+00
         22   -1    0    0    0    0  0.00000000000E+00  0.00000000000E+00  0.58886012087E+03  0.58886012087E+03  0.00000000000E+00 0. -1.
         22   -1    0    0    0    0 -0.00000000000E+00 -0.00000000000E+00 -0.14340934178E+03  0.14340934178E+03  0.00000000000E+00 0.  1.
        -24    2    1    2    0    0  0.12938936705E+02 -0.54152544031E+02 -0.50756649253E+02  0.10978215057E+03  0.79849665198E+02 0.  0.
         25    2    1    2    0    0  0.12440775681E+02  0.22928813592E+02  0.81143385175E+01  0.12803796858E+03  0.12508947005E+03 0.  0.
         24    2    1    2    0    0 -0.25379712386E+02  0.31223730440E+02  0.48809308983E+03  0.49444934349E+03  0.68016452438E+02 0.  0.
        -11    1    5    5    0    0 -0.17541629595E+02  0.33668612744E+01  0.26545527377E+02  0.31995461356E+02  0.00000000000E+00 0.  1.
         12    1    5    5    0    0 -0.78380827910E+01  0.27856869165E+02  0.46154756245E+03  0.46245388214E+03  0.00000000000E+00 0. -1.
         13    1    3    3    0    0  0.37931947872E+02 -0.18915570725E+02  0.95789964324E+00  0.42397512391E+02  0.00000000000E+00 0. -1.
        -14    1    3    3    0    0 -0.24993011167E+02 -0.35236973306E+02 -0.51714548896E+02  0.67384638179E+02  0.00000000000E+00 0.  1.
          5    1    4    4  501    0  0.56496007734E+02  0.50289329448E+02  0.45743221378E+01  0.75889474693E+02  0.41800000000E+01 0. -1.
         -5    1    4    4    0  501 -0.44055232053E+02 -0.27360515856E+02  0.35400163798E+01  0.52148493892E+02  0.41800000000E+01 0. -1.
</event>
<event>
11    1  0.8453735E-009  0.2575706E+03  0.7561462E-02  0.1019942E+00
         22   -1    0    0    0    0  0.00000000000E+00  0.00000000000E+00  0.10451086106E+03  0.10451086106E+03  0.00000000000E+00 0.  1.
         22   -1    0    0    0    0 -0.00000000000E+00 -0.00000000000E+00 -0.22163742649E+04  0.22163742649E+04  0.00000000000E+00 0.  1.
        -24    2    1    2    0    0  0.14965744561E+03 -0.16956546245E+03 -0.17161730602E+04  0.17330242117E+04  0.83505380960E+02 0.  0.
         25    2    1    2    0    0 -0.19138687898E+03  0.12326404087E+03 -0.41220506471E+03  0.48722400126E+03  0.12510495917E+03 0.  0.
         24    2    1    2    0    0  0.41729433369E+02  0.46301421585E+02  0.16514721124E+02  0.10063691297E+03  0.77265030819E+02 0.  0.
        -13    1    5    5    0    0  0.55292811470E+02  0.61507141486E+01  0.17262676745E+02  0.58250547579E+02  0.00000000000E+00 0.  1.
         14    1    5    5    0    0 -0.13563378102E+02  0.40150707436E+02 -0.74795562119E+00  0.42386365388E+02  0.00000000000E+00 0. -1.
         11    1    3    3    0    0 -0.70308865005E+01 -0.28519402668E+02 -0.16559318641E+03  0.16817815874E+03  0.00000000000E+00 0. -1.
        -12    1    3    3    0    0  0.15668833211E+03 -0.14104605978E+03 -0.15505798738E+04  0.15648460530E+04  0.00000000000E+00 0.  1.
          5    1    4    4  501    0  0.36754148493E+01  0.33050782820E+02 -0.11923155240E+03  0.12385272870E+03  0.41800000000E+01 0.  1.
         -5    1    4    4    0  501 -0.19506229383E+03  0.90213258047E+02 -0.29297351231E+03  0.36337127256E+03  0.41800000000E+01 0.  1.
</event>
<event>
11    1  0.8453735E-009  0.1891097E+03  0.7561462E-02  0.1062503E+00
         22   -1    0    0    0    0  0.00000000000E+00  0.00000000000E+00  0.24538320126E+02  0.24538320126E+02  0.00000000000E+00 0. -1.
         22   -1    0    0    0    0 -0.00000000000E+00 -0.00000000000E+00 -0.37419950072E+04  0.37419950072E+04  0.00000000000E+00 0. -1.
        -24    2    1    2    0    0  0.75050321832E+02  0.11394606372E+03 -0.13246331134E+04  0.13340440623E+04  0.80027613650E+02 0.  0.
         25    2    1    2    0    0 -0.12369442022E+03  0.35883625244E+02 -0.19164094030E+04  0.19248014303E+04  0.12509037449E+03 0.  0.
         24    2    1    2    0    0  0.48644098389E+02 -0.14982968897E+03 -0.47641417068E+03  0.50768783474E+03  0.77209400408E+02 0.  0.
        -11    1    5    5    0    0 -0.20800420028E+02 -0.26528684146E+02 -0.10178279253E+03  0.10722017259E+03  0.00000000000E+00 0.  1.
         12    1    5    5    0    0  0.69444518417E+02 -0.12330100482E+03 -0.37463137815E+03  0.40046766214E+03  0.00000000000E+00 0. -1.
         13    1    3    3    0    0  0.82440870168E+02  0.90856761696E+02 -0.12385777312E+04  0.12446390017E+04  0.00000000000E+00 0. -1.
        -14    1    3    3    0    0 -0.73905483365E+01  0.23089302026E+02 -0.86055382143E+02  0.89405060643E+02  0.00000000000E+00 0.  1.
          5    1    4    4  501    0 -0.82519537692E+02 -0.95654110904E+01 -0.16174924439E+04  0.16196296643E+04  0.41800000000E+01 0. -1.
         -5    1    4    4    0  501 -0.41174882529E+02  0.45449036334E+02 -0.29891695917E+03  0.30517176596E+03  0.41800000000E+01 0. -1.
</event>
<event>
11    1  0.8453735E-009  0.1334945E+03  0.7561462E-02  0.1115048E+00
         22   -1    0    0    0    0  0.00000000000E+00  0.00000000000E+00  0.13658188202E+04  0.13658188202E+04  0.00000000000E+00 0.  1.
         22   -1    0    0    0    0 -0.00000000000E+00 -0.00000000000E+00 -0.50018709043E+03  0.50018709043E+03  0.00000000000E+00 0.  1.
         24    2    1    2    0    0  0.12485849812E+02 -0.10434464162E+02 -0.48624060876E+03  0.49324317763E+03  0.81204237423E+02 0.  0.
         25    2    1    2    0    0 -0.20439799004E+02 -0.37750641168E+02  0.56963225770E+03  0.58477474624E+03  0.12505078383E+03 0.  0.
        -24    2    1    2    0    0  0.79539491916E+01  0.48185105330E+02  0.78224008086E+03  0.78798798679E+03  0.81488978013E+02 0.  0.
        -13    1    3    3    0    0  0.32616790206E+02 -0.34250052302E+02 -0.36521078033E+03  0.36826055336E+03  0.00000000000E+00 0.  1.
         14    1    3    3    0    0 -0.20130940393E+02  0.23815588139E+02 -0.12102982843E+03  0.12498262427E+03  0.00000000000E+00 0. -1.
         13    1    5    5    0    0 -0.24642530502E+02  0.28338050556E+02  0.15116161148E+03  0.15575664417E+03  0.00000000000E+00 0. -1.
        -14    1    5    5    0    0  0.32596479694E+02  0.19847054774E+02  0.63107846938E+03  0.63223134262E+03  0.00000000000E+00 0.  1.
          5    1    4    4  501    0 -0.19736912687E+02 -0.28176288734E+02  0.57279073190E+03  0.57383808162E+03  0.41800000000E+01 0. -1.
         -5    1    4    4    0  501 -0.70288631729E+00 -0.95743524343E+01 -0.31584741993E+01  0.10936664619E+02  0.41800000000E+01 0. -1.
</event>
<event>
11    1  0.8453735E-009  0.1777647E+03  0.7561462E-02  0.1071465E+00
         22   -1    0    0    0    0  0.00000000000E+00  0.00000000000E+00  0.20004295898E+03  0.20004295898E+03  0.00000000000E+00 0. -1.
         22   -1    0    0    0    0 -0.00000000000E+00 -0.00000000000E+00 -0.74641176016E+03  0.74641176016E+03  0.00000000000E+00 0.  1.
         24    2    1    2    0    0  0.62959989239E+02 -0.97339827080E+02 -0.50302882225E+03  0.52217414253E+03  0.78669161263E+02 0.  0.
         25    2    1    2    0    0 -0.95864825316E+02  0.17574488429E+03 -0.13780612629E+03  0.27334095941E+03  0.12509365515E+03 0.  0.
        -24    2    1    2    0    0  0.32904836077E+02 -0.78405057215E+02  0.94466147361E+02  0.15093961721E+03  0.81417650492E+02 0.  0.
        -11    1    3    3    0    0  0.37563342283E+02 -0.21633549966E+01 -0.20087478063E+03  0.20436820272E+03  0.00000000000E+00 0.  1.
         12    1    3    3    0    0  0.25396646956E+02 -0.95176472083E+02 -0.30215404162E+03  0.31780593981E+03  0.00000000000E+00 0. -1.
         13    1    5    5    0    0  0.33376783283E+02 -0.90659467681E+02  0.58499111540E+02  0.11293934121E+03  0.00000000000E+00 0. -1.
        -14    1    5    5    0    0 -0.47194720610E+00  0.12254410466E+02  0.35967035821E+02  0.38000275996E+02  0.00000000000E+00 0.  1.
          5    1    4    4  501    0 -0.10260072937E+03  0.16373497378E+03 -0.72425186707E+02  0.20639508564E+03  0.41800000000E+01 0. -1.
         -5    1    4    4    0  501  0.67359040550E+01  0.12009910512E+02 -0.65380939583E+02  0.66945873769E+02  0.41800000000E+01 0. -1.
</event>
<event>
11    1  0.8453735E-009  0.1318032E+03  0.7561462E-02  0.1117073E+00
         22   -1    0    0    0    0  0.00000000000E+00  0.00000000000E+00  0.55159950458E+03  0.55159950458E+03  0.00000000000E+00 0.  1.
         22   -1    0    0    0    0 -0.00000000000E+00 -0.00000000000E+00 -0.47928382399E+03  0.47928382399E+03  0.00000000000E+00 0. -1.
         24    2    1    2    0    0  0.54124540872E+01 -0.30777155544E+02 -0.44999541126E+03  0.45695872095E+03  0.73067602539E+02 0.  0.
         25    2    1    2    0    0  0.10424613379E+02 -0.15792280741E+02  0.18690833432E+03  0.22569857170E+03  0.12508817345E+03 0.  0.
        -24    2    1    2    0    0 -0.15837067466E+02  0.46569436286E+02  0.33540275754E+03  0.34822603592E+03  0.79667039747E+02 0.  0.
        -13    1    3    3    0    0  0.63564670980E+01 -0.21069134902E+02 -0.31928908315E+02  0.38778451563E+02  0.00000000000E+00 0.  1.
         14    1    3    3    0    0 -0.94401301074E+00 -0.97080206429E+01 -0.41806650294E+03  0.41818026939E+03  0.00000000000E+00 0. -1.
         11    1    5    5    0    0 -0.14262135911E+02  0.65240503422E+02  0.18546021082E+03  0.19711727881E+03  0.00000000000E+00 0. -1.
        -12    1    5    5    0    0 -0.15749315546E+01 -0.18671067136E+02  0.14994254672E+03  0.15110875711E+03  0.00000000000E+00 0.  1.
          5    1    4    4  501    0  0.56803214604E+02 -0.43864220243E+02  0.99373820250E+02  0.12265114577E+03  0.41800000000E+01 0. -1.
         -5    1    4    4    0  501 -0.46378601225E+02  0.28071939502E+02  0.87534514065E+02  0.10304742593E+03  0.41800000000E+01 0. -1.
</event>
<event>
11    1  0.8453735E-009  0.1484287E+03  0.7561462E-02  0.1098495E+00
         22   -1    0    0    0    0  0.00000000000E+00  0.00000000000E+00  0.11822252346E+04  0.11822252346E+04  0.00000000000E+00 0.  1.
         22   -1    0    0    0    0 -0.00000000000E+00 -0.00000000000E+00 -0.22051328201E+04  0.22051328201E+04  0.00000000000E+00 0. -1.
         24    2    1    2    0    0 -0.74632906480E+02 -0.21531573874E+02 -0.18864773903E+04  0.18897613514E+04  0.79795623906E+02 0.  0.
         25    2    1    2    0    0  0.12776421681E+03 -0.32301734838E+02 -0.28810104678E+03  0.34061201839E+03  0.12508891537E+03 0.  0.
        -24    2    1    2    0    0 -0.53131310325E+02  0.53833308713E+02  0.11516708515E+04  0.11569846850E+04  0.80912606050E+02 0.  0.
        -13    1    3    3    0    0  0.50665811128E+01  0.14056878365E+02 -0.95830412245E+02  0.96988318805E+02  0.00000000000E+00 0.  1.
         14    1    3    3    0    0 -0.79699487593E+02 -0.35588452240E+02 -0.17906469780E+04  0.17927730325E+04  0.00000000000E+00 0. -1.
         11    1    5    5    0    0 -0.46135308364E+02  0.61525530662E+01  0.86819614599E+03  0.86944284947E+03  0.00000000000E+00 0. -1.
        -12    1    5    5    0    0 -0.69960019607E+01  0.47680755646E+02  0.28347470549E+03  0.28754183549E+03  0.00000000000E+00 0.  1.
          5    1    4    4  501    0  0.90350318689E+02 -0.74744213991E+02 -0.14403625755E+03  0.18577888336E+03  0.41800000000E+01 0.  1.
         -5    1    4    4    0  501  0.37413898116E+02  0.42442479153E+02 -0.14406478923E+03  0.15483313504E+03  0.41800000000E+01 0.  1.
</event>
<event>
11    1  0.8453735E-009  0.2498420E+03  0.7561462E-02  0.1023983E+00
         22   -1    0    0    0    0  0.00000000000E+00  0.00000000000E+00  0.10946981702E+03  0.10946981702E+03  0.00000000000E+00 0. -1.
         22   -1    0    0    0    0 -0.00000000000E+00 -0.00000000000E+00 -0.83984923733E+03  0.83984923733E+03  0.00000000000E+00 0.  1.
        -24    2    1    2    0    0  0.15427619178E+03 -0.17891778054E+03 -0.43909864154E+03  0.50492428868E+03  0.79550014114E+02 0.  0.
         25    2    1    2    0    0 -0.13769775737E+03  0.13173345284E+03 -0.25710962686E+03  0.34360992687E+03  0.12509215257E+03 0.  0.
         24    2    1    2    0    0 -0.16578434410E+02  0.47184327704E+02 -0.34171151913E+02  0.10078483881E+03  0.80552534669E+02 0.  0.
        -13    1    5    5    0    0  0.23485342715E+02 -0.52126894231E+01 -0.24117227482E+02  0.34064264484E+02  0.00000000000E+00 0.  1.
         14    1    5    5    0    0 -0.40063777124E+02  0.52397017127E+02 -0.10053924432E+02  0.66720574321E+02  0.00000000000E+00 0. -1.
         13    1    3    3    0    0  0.10932025705E+03 -0.70108298008E+02 -0.20093767401E+03  0.23925308961E+03  0.00000000000E+00 0. -1.
        -14    1    3    3    0    0  0.44955934728E+02 -0.10880948254E+03 -0.23816096753E+03  0.26567119906E+03  0.00000000000E+00 0.  1.
          5    1    4    4  501    0 -0.10376206198E+02  0.80409751396E+02 -0.14558761842E+03  0.16669319365E+03  0.41800000000E+01 0.  1.
         -5    1    4    4    0  501 -0.12732155117E+03  0.51323701444E+02 -0.11152200845E+03  0.17691673321E+03  0.41800000000E+01 0.  1.
</event>
<event>
11    1  0.8453735E-009  0.1985585E+03  0.7561462E-02  0.1055548E+00
         22   -1    0    0    0    0  0.00000000000E+00  0.00000000000E+00  0.17517734268E+03  0.17517734268E+03  0.00000000000E+00 0. -1.
         22   -1    0    0    0    0 -0.00000000000E+00 -0.00000000000E+00 -0.10954574803E+04  0.10954574803E+04  0.00000000000E+00 0. -1.
        -24    2    1    2    0    0 -0.21277901226E+02  0.42738078991E+02 -0.84947997332E+03  0.85353292622E+03  0.67992195115E+02 0.  0.
         25    2    1    2    0    0  0.14281506064E+03  0.55825162889E+02 -0.12367646539E+03  0.23335894623E+03  0.12509172369E+03 0.  0.
         24    2    1    2    0    0 -0.12153715942E+03 -0.98563241880E+02  0.52876301099E+02  0.18374295053E+03  0.80495806606E+02 0.  0.
        -11    1    5    5    0    0 -0.75141276199E+01 -0.91202733905E+01 -0.18693380759E+02  0.22115243268E+02  0.00000000000E+00 0.  1.
         12    1    5    5    0    0 -0.11402303180E+03 -0.89442968490E+02  0.71569681857E+02  0.16162770726E+03  0.00000000000E+00 0. -1.
         11    1    3    3    0    0 -0.26618040238E+01  0.19654296266E+02 -0.73521560442E+03  0.73548308040E+03  0.00000000000E+00 0. -1.
        -12    1    3    3    0    0 -0.18616097202E+02  0.23083782725E+02 -0.11426436890E+03  0.11804984583E+03  0.00000000000E+00 0.  1.
          5    1    4    4  501    0  0.12929077184E+03 -0.34387720676E+01 -0.52458294327E+02  0.13963263902E+03  0.41800000000E+01 0. -1.
         -5    1    4    4    0  501  0.13524288806E+02  0.59263934957E+02 -0.71218171062E+02  0.93726307213E+02  0.41800000000E+01 0. -1.
</event>
<event>
11    1  0.8453735E-009  0.1424567E+03  0.7561462E-02  0.1104846E+00
         22   -1    0    0    0    0  0.00000000000E+00  0.00000000000E+00  0.14898504070E+04  0.14898504070E+04  0.00000000000E+00 0. -1.
         22   -1    0    0    0    0 -0.00000000000E+00 -0.00000000000E+00 -0.91982427598E+03  0.91982427598E+03  0.00000000000E+00 0. -1.
        -24    2    1    2    0    0 -0.93396534314E+01  0.15766328537E+02 -0.49618231151E+03  0.50287821384E+03  0.79710761252E+02 0.  0.
         25    2    1    2    0    0 -0.42233978036E+02 -0.60305610529E+02 -0.40585484339E+03  0.43103015126E+03  0.12509341241E+03 0.  0.
         24    2    1    2    0    0  0.51573631467E+02  0.44539281992E+02  0.14720632859E+04  0.14757663179E+04  0.79197980306E+02 0.  0.
        -11    1    5    5    0    0 -0.31305031897E+00  0.15694732012E+02  0.98129358832E+03  0.98141914037E+03  0.00000000000E+00 0.  1.
         12    1    5    5    0    0  0.51886681786E+02  0.28844549981E+02  0.49076969762E+03  0.49434717751E+03  0.00000000000E+00 0. -1.
         11    1    3    3    0    0  0.29844658041E+02  0.18224971698E+02 -0.34170619679E+03  0.34349087052E+03  0.00000000000E+00 0. -1.
        -12    1    3    3    0    0 -0.39184311472E+02 -0.24586431606E+01 -0.15447611473E+03  0.15938734333E+03  0.00000000000E+00 0.  1.
          5    1    4    4  501    0 -0.49078480822E+02 -0.93967971315E+01 -0.47772305831E+02  0.69257943086E+02  0.41800000000E+01 0. -1.
         -5    1    4    4    0  501  0.68445027862E+01 -0.50908813398E+02 -0.35808253756E+03  0.36177220817E+03  0.41800000000E+01 0. -1.
</event>
<event>
11    1  0.8453735E-009  0.2165926E+03  0.7561462E-02  0.1043373E+00
         22   -1    0    0    0    0  0.00000000000E+00  0.00000000000E+00  0.19459735983E+04  0.19459735983E+04  0.00000000000E+00 0.  1.
         22   -1    0    0    0    0 -0.00000000000E+00 -0.00000000000E+00 -0.48272630725E+03  0.48272630725E+03  0.00000000000E+00 0. -1.
        -24    2    1    2    0    0 -0.14646647584E+03 -0.92611809272E+02 -0.42165353694E+03  0.46274417153E+03  0.79442352095E+02 0.  0.
         25    2    1    2    0    0  0.20529964714E+03 -0.78815528577E+02  0.43979424021E+03  0.50737189783E+03  0.12508971310E+03 0.  0.
         24    2    1    2    0    0 -0.58833171298E+02  0.17142733785E+03  0.14451065878E+04  0.14585838362E+04  0.79278515274E+02 0.  0.
        -13    1    5    5    0    0 -0.53235977857E+02  0.17147958769E+03  0.14395228345E+04  0.14506775346E+04  0.00000000000E+00 0.  1.
         14    1    5    5    0    0 -0.55971934406E+01 -0.52249843015E-01  0.55837532853E+01  0.79063016138E+01  0.00000000000E+00 0. -1.
         11    1    3    3    0    0 -0.72945593298E+02 -0.33182865239E+02 -0.28863769126E+03  0.29955613655E+03  0.00000000000E+00 0. -1.
        -12    1    3    3    0    0 -0.73520882544E+02 -0.59428944032E+02 -0.13301584568E+03  0.16318803498E+03  0.00000000000E+00 0.  1.
          5    1    4    4  501    0  0.55177740476E+02 -0.65233334332E+02  0.25439480096E+03  0.26839179963E+03  0.41800000000E+01 0.  1.
         -5    1    4    4    0  501  0.15012190666E+03 -0.13582194244E+02  0.18539943925E+03  0.23898009820E+03  0.41800000000E+01 0.  1.
</event>
<event>
11    1  0.8453735E-009  0.1701882E+03  0.7561462E-02  0.1077868E+00
         22   -1    0    0    0    0  0.00000000000E+00  0.00000000000E+00  0.42845916920E+03  0.42845916920E+03  0.00000000000E+00 0.  1.
         22   -1    0    0    0    0 -0.00000000000E+00 -0.00000000000E+00 -0.27852331067E+03  0.27852331067E+03  0.00000000000E+00 0. -1.
         24    2    1    2    0    0 -0.10597421306E+02  0.13857202643E+02 -0.19369395577E+03  0.21029599870E+03  0.80017067967E+02 0.  0.
         25    2    1    2    0    0 -0.99161463444E+02 -0.53039634007E+02  0.60384094474E+02  0.17871742152E+03  0.12508988481E+03 0.  0.
        -24    2    1    2    0    0  0.10975888475E+03  0.39182431364E+02  0.28324571983E+03  0.31796905965E+03  0.85404387384E+02 0.  0.
        -13    1    3    3    0    0 -0.12877356968E+02  0.22504720163E+02 -0.12328674354E+02  0.28710363345E+02  0.00000000000E+00 0.  1.
         14    1    3    3    0    0  0.22799356612E+01 -0.86475175196E+01 -0.18136528141E+03  0.18158563536E+03  0.00000000000E+00 0. -1.
         11    1    5    5    0    0  0.38418514393E+02 -0.16504455353E+02  0.37788230705E+02  0.56358936066E+02  0.00000000000E+00 0. -1.
        -12    1    5    5    0    0  0.71340370358E+02  0.55686886717E+02  0.24545748912E+03  0.26161012358E+03  0.00000000000E+00 0.  1.
          5    1    4    4  501    0 -0.84283370530E+02  0.14658368314E+02  0.67308785338E+02  0.10893346269E+03  0.41800000000E+01 0.  1.
         -5    1    4    4    0  501 -0.14878092915E+02 -0.67698002321E+02 -0.69246908640E+01  0.69783958834E+02  0.41800000000E+01 0.  1.
</event>
<event>
11    1  0.8453735E-009  0.1562718E+03  0.7561462E-02  0.1090637E+00
         22   -1    0    0    0    0  0.00000000000E+00  0.00000000000E+00  0.10608113657E+03  0.10608113657E+03  0.00000000000E+00 0. -1.
         22   -1    0    0    0    0 -0.00000000000E+00 -0.00000000000E+00 -0.84549530702E+03  0.84549530702E+03  0.00000000000E+00 0.  1.
        -24    2    1    2    0    0  0.46954393685E+02 -0.81297309432E+02 -0.68510149740E+03  0.69634137918E+03  0.81934650899E+02 0.  0.
         25    2    1    2    0    0 -0.43252279013E+02  0.81871740955E+02 -0.77036076034E+02  0.17361326302E+03  0.12503306155E+03 0.  0.
         24    2    1    2    0    0 -0.37021146722E+01 -0.57443152233E+00  0.22723402973E+02  0.81621801387E+02  0.78305362487E+02 0.  0.
        -11    1    5    5    0    0 -0.40239202470E+02 -0.23078276765E+01  0.39253693124E+01  0.40496024598E+02  0.00000000000E+00 0.  1.
         12    1    5    5    0    0  0.36537087798E+02  0.17333961542E+01  0.18798033661E+02  0.41125776789E+02  0.00000000000E+00 0. -1.
         13    1    3    3    0    0 -0.20882566934E+02 -0.31499574699E+01 -0.11358145133E+03  0.11552813476E+03  0.00000000000E+00 0. -1.
        -14    1    3    3    0    0  0.67836960619E+02 -0.78147351962E+02 -0.57152004606E+03  0.58081324442E+03  0.00000000000E+00 0.  1.
          5    1    4    4  501    0 -0.40471510222E+02  0.11171945669E+02  0.25249281923E+02  0.49170663483E+02  0.41800000000E+01 0. -1.
         -5    1    4    4    0  501 -0.27807687907E+01  0.70699795285E+02 -0.10228535796E+03  0.12444259954E+03  0.41800000000E+01 0. -1.
</event>
<event>
11    1  0.8453735E-009  0.2180572E+03  0.7561462E-02  0.1042441E+00
         22   -1    0    0    0    0  0.00000000000E+00  0.00000000000E+00  0.81958111911E+03  0.81958111911E+03  0.00000000000E+00 0. -1.
         22   -1    0    0    0    0 -0.00000000000E+00 -0.00000000000E+00 -0.55850134341E+03  0.55850134341E+03  0.00000000000E+00 0. -1.
         24    2    1    2    0    0 -0.14206353874E+03  0.11352665756E+03 -0.48086347996E+03  0.52034055828E+03  0.80338404372E+02 0.  0.
         25    2    1    2    0    0  0.14429960495E+03 -0.56276332444E+02  0.12974205804E+03  0.23763361889E+03  0.12508930259E+03 0.  0.
        -24    2    1    2    0    0 -0.22360662131E+01 -0.57250325119E+02  0.61220119762E+03  0.62010828535E+03  0.80382706339E+02 0.  0.
        -13    1    3    3    0    0 -0.64330489819E+02  0.10029686908E+03 -0.31184251084E+03  0.33383173222E+03  0.00000000000E+00 0.  1.
         14    1    3    3    0    0 -0.77733048917E+02  0.13229788479E+02 -0.16902096912E+03  0.18650882606E+03  0.00000000000E+00 0. -1.
         13    1    5    5    0    0 -0.38906185268E+02 -0.37661160623E+02  0.41901268157E+03  0.42249696045E+03  0.00000000000E+00 0. -1.
        -14    1    5    5    0    0  0.36670119055E+02 -0.19589164496E+02  0.19318851605E+03  0.19761132490E+03  0.00000000000E+00 0.  1.
          5    1    4    4  501    0  0.13741977622E+03  0.31522912631E+01  0.76094882849E+02  0.15716881190E+03  0.41800000000E+01 0. -1.
         -5    1    4    4    0  501  0.68798287280E+01 -0.59428623707E+02  0.53647175195E+02  0.80464806999E+02  0.41800000000E+01 0. -1.
</event>
<event>
11    1  0.8453735E-009  0.2091183E+03  0.7561462E-02  0.1048257E+00
         22   -1    0    0    0    0  0.00000000000E+00  0.00000000000E+00  0.48815486877E+03  0.48815486877E+03  0.00000000000E+00 0.  1.
         22   -1    0    0    0    0 -0.00000000000E+00 -0.00000000000E+00 -0.21145727935E+03  0.21145727935E+03  0.00000000000E+00 0. -1.
        -24    2    1    2    0    0  0.77331637398E+02 -0.14161785046E+03 -0.80689750588E+02  0.19795020697E+03  0.81471779660E+02 0.  0.
         25    2    1    2    0    0 -0.14526365008E+03  0.14916750578E+03  0.27855855898E+03  0.36958782459E+03  0.12509123267E+03 0.  0.
         24    2    1    2    0    0  0.67932012685E+02 -0.75496553212E+01  0.78828781038E+02  0.13207411655E+03  0.80980490865E+02 0.  0.
        -11    1    5    5    0    0  0.16016309959E+02 -0.38544201819E+02  0.15522767758E+02  0.44532392676E+02  0.00000000000E+00 0.  1.
         12    1    5    5    0    0  0.51915702726E+02  0.30994546498E+02  0.63306013281E+02  0.87541723879E+02  0.00000000000E+00 0. -1.
         13    1    3    3    0    0  0.87085099621E+02 -0.89951497145E+02 -0.72673605224E+02  0.14476373617E+03  0.00000000000E+00 0. -1.
        -14    1    3    3    0    0 -0.97534622230E+01 -0.51666353310E+02 -0.80161453635E+01  0.53186470800E+02  0.00000000000E+00 0.  1.
          5    1    4    4  501    0  0.68235456402E+01  0.44079419181E+01  0.80177179342E+02  0.80695992554E+02  0.41800000000E+01 0. -1.
         -5    1    4    4    0  501 -0.15208719572E+03  0.14475956386E+03  0.19838137963E+03  0.28889183204E+03  0.41800000000E+01 0. -1.
</event>
<event>
11    1  0.8453735E-009  0.1921793E+03  0.7561462E-02  0.1060196E+00
         22   -1    0    0    0    0  0.00000000000E+00  0.00000000000E+00  0.10149090340E+04  0.10149090340E+04  0.00000000000E+00 0.  1.
         22   -1    0    0    0    0 -0.00000000000E+00 -0.00000000000E+00 -0.16829437303E+03  0.16829437303E+03  0.00000000000E+00 0.  1.
        -24    2    1    2    0    0  0.59263929232E+02 -0.45369568698E+02 -0.93390130500E+02  0.14411186391E+03  0.80472987842E+02 0.  0.
         25    2    1    2    0    0 -0.89772161318E+02 -0.10306956488E+03  0.17415871292E+03  0.25428868806E+03  0.12509637660E+03 0.  0.
         24    2    1    2    0    0  0.30508232086E+02  0.14843913358E+03  0.76584607855E+03  0.78480285506E+03  0.80189629476E+02 0.  0.
        -13    1    5    5    0    0  0.17681185571E+02  0.13926819265E+03  0.74769032784E+03  0.76075559818E+03  0.00000000000E+00 0.  1.
         14    1    5    5    0    0  0.12827046515E+02  0.91709409252E+01  0.18155750703E+02  0.24047256878E+02  0.00000000000E+00 0. -1.
         11    1    3    3    0    0 -0.17543526024E+02 -0.17183746172E+02 -0.38232055142E+02  0.45439481492E+02  0.00000000000E+00 0. -1.
        -12    1    3    3    0    0  0.76807455256E+02 -0.28185822527E+02 -0.55158075358E+02  0.98672382416E+02  0.00000000000E+00 0.  1.
          5    1    4    4  501    0 -0.43698328608E+02 -0.12332455104E+03  0.14739473149E+03  0.19713236184E+03  0.41800000000E+01 0. -1.
         -5    1    4    4    0  501 -0.46073832710E+02  0.20254986167E+02  0.26763981424E+02  0.57156326219E+02  0.41800000000E+01 0. -1.
</event>
<event>
11    1  0.8453735E-009  0.1814181E+03  0.7561462E-02  0.1068502E+00
         22   -1    0    0    0    0  0.00000000000E+00  0.00000000000E+00  0.74356348143E+03  0.74356348143E+03  0.00000000000E+00 0. -1.
         22   -1    0    0    0    0 -0.00000000000E+00 -0.00000000000E+00 -0.54037334726E+03  0.54037334726E+03  0.00000000000E+00 0. -1.
        -24    2    1    2    0    0 -0.10115259760E+02  0.15075763471E+02 -0.30328253655E+03  0.31533840229E+03  0.84429934606E+02 0.  0.
         25    2    1    2    0    0 -0.99306141527E+02  0.58772835935E+02 -0.19011228651E+03  0.25515877619E+03  0.12508942240E+03 0.  0.
         24    2    1    2    0    0  0.10942140129E+03 -0.73848599406E+02  0.69658495724E+03  0.71343965020E+03  0.79617040429E+02 0.  0.
        -13    1    5    5    0    0  0.66671361969E+02 -0.76474260315E+02  0.35608682600E+03  0.37025830261E+03  0.00000000000E+00 0.  1.
         14    1    5    5    0    0  0.42750039318E+02  0.26256609097E+01  0.34049813124E+03  0.34318134759E+03  0.00000000000E+00 0. -1.
         11    1    3    3    0    0 -0.19263334219E+02 -0.65841402700E+01 -0.28454662898E+03  0.28527392277E+03  0.00000000000E+00 0. -1.
        -12    1    3    3    0    0  0.91480744592E+01  0.21659903741E+02 -0.18735907573E+02  0.30064479523E+02  0.00000000000E+00 0.  1.
          5    1    4    4  501    0  0.21974854777E+02  0.76359089569E+01  0.30881068144E+00  0.23638297572E+02  0.41800000000E+01 0. -1.
         -5    1    4    4    0  501 -0.12128099630E+03  0.51136926978E+02 -0.19042109719E+03  0.23152047862E+03  0.41800000000E+01 0. -1.
</event>
<event>
11    1  0.8453735E-009  0.1782045E+03  0.7561462E-02  0.1071104E+00
         22   -1    0    0    0    0  0.00000000000E+00  0.00000000000E+00  0.46734632125E+03  0.46734632125E+03  0.00000000000E+00 0. -1.
         22   -1    0    0    0    0 -0.00000000000E+00 -0.00000000000E+00 -0.11639578413E+04  0.11639578413E+04  0.00000000000E+00 0.  1.
        -24    2    1    2    0    0  0.49972874810E+02  0.11620003990E+03 -0.11110885127E+04  0.11208185624E+04  0.75609717079E+02 0.  0.
         25    2    1    2    0    0 -0.58140543759E+02 -0.13553118284E+03  0.19071125278E+03  0.27160137077E+03  0.12508996090E+03 0.  0.
         24    2    1    2    0    0  0.81676689483E+01  0.19331142941E+02  0.22376573986E+03  0.23888422937E+03  0.80957796432E+02 0.  0.
        -11    1    5    5    0    0  0.41987315012E+02  0.95114333163E+01  0.16360101107E+03  0.16917060267E+03  0.00000000000E+00 0.  1.
         12    1    5    5    0    0 -0.33819646063E+02  0.98197096250E+01  0.60164728798E+02  0.69713626705E+02  0.00000000000E+00 0. -1.
         13    1    3    3    0    0 -0.19427395161E+01  0.31613150061E+02 -0.10060830317E+03  0.10547604543E+03  0.00000000000E+00 0. -1.
        -14    1    3    3    0    0  0.51915614327E+02  0.84586889836E+02 -0.10104802095E+04  0.10153425170E+04  0.00000000000E+00 0.  1.
          5    1    4    4  501    0  0.10358067534E+02 -0.11665080434E+03  0.87589643272E+02  0.14630146180E+03  0.41800000000E+01 0.  1.
         -5    1    4    4    0  501 -0.68498611293E+02 -0.18880378500E+02  0.10312160951E+03  0.12529990897E+03  0.41800000000E+01 0.  1.
</event>
<event>
11    1  0.8453735E-009  0.1418171E+03  0.7561462E-02  0.1105546E+00
         22   -1    0    0    0    0  0.00000000000E+00  0.00000000000E+00  0.13358876301E+04  0.13358876301E+04  0.00000000000E+00 0.  1.
         22   -1    0    0    0    0 -0.00000000000E+00 -0.00000000000E+00 -0.81406000603E+03  0.81406000603E+03  0.00000000000E+00 0. -1.
         24    2    1    2    0    0  0.13029777870E+02 -0.31743742801E+02 -0.79410295535E+03  0.79911040096E+03  0.82465076911E+02 0.  0.
         25    2    1    2    0    0  0.54630953137E+02  0.13718459590E+02  0.30671195245E+03  0.33599416729E+03  0.12508845471E+03 0.  0.
        -24    2    1    2    0    0 -0.67660731007E+02  0.18025283210E+02  0.10092186269E+04  0.10148430678E+04  0.80506708034E+02 0.  0.
        -13    1    3    3    0    0 -0.11708173803E+02  0.10560128487E+02 -0.34543862779E+02  0.37972043705E+02  0.00000000000E+00 0.  1.
         14    1    3    3    0    0  0.24737951672E+02 -0.42303871287E+02 -0.75955909257E+03  0.76113835726E+03  0.00000000000E+00 0. -1.
         11    1    5    5    0    0 -0.65280080416E+01  0.38425546722E+02  0.26671641237E+03  0.26954922028E+03  0.00000000000E+00 0. -1.
        -12    1    5    5    0    0 -0.61132722966E+02 -0.20400263512E+02  0.74250221458E+03  0.74529384756E+03  0.00000000000E+00 0.  1.
          5    1    4    4  501    0  0.50830184564E+02  0.62116136396E+02  0.24194287020E+03  0.25494302678E+03  0.41800000000E+01 0. -1.
         -5    1    4    4    0  501  0.38007685733E+01 -0.48397676806E+02  0.64769082251E+02  0.81051140508E+02  0.41800000000E+01 0.  1.
</event>
<event>
11    1  0.8453735E-009  0.2264327E+03  0.7561462E-02  0.1037261E+00
         22   -1    0    0    0    0  0.00000000000E+00  0.00000000000E+00  0.54643184460E+03  0.54643184460E+03  0.00000000000E+00 0.  1.
         22   -1    0    0    0    0 -0.00000000000E+00 -0.00000000000E+00 -0.20593763782E+04  0.20593763782E+04  0.00000000000E+00 0.  1.
        -24    2    1    2    0    0  0.18134636459E+03  0.52980725523E+02 -0.19971930365E+04  0.20079914969E+04  0.86927356804E+02 0.  0.
         25    2    1    2    0    0 -0.17335878831E+03 -0.51518357800E+02  0.18233374122E+03  0.28565735555E+03  0.12508845238E+03 0.  0.
         24    2    1    2    0    0 -0.79875762825E+01 -0.14623677232E+01  0.30191476163E+03  0.31215937039E+03  0.78898728358E+02 0.  0.
        -13    1    5    5    0    0  0.31532147510E+02 -0.11892435708E+02  0.19106481853E+03  0.19401410061E+03  0.00000000000E+00 0.  1.
         14    1    5    5    0    0 -0.39519723792E+02  0.10430067985E+02  0.11084994310E+03  0.11814526979E+03  0.00000000000E+00 0. -1.
         13    1    3    3    0    0  0.93126713175E+02  0.68628589590E+02 -0.96264637141E+03  0.96957233067E+03  0.00000000000E+00 0. -1.
        -14    1    3    3    0    0  0.88219651416E+02 -0.15647864066E+02 -0.10345466651E+04  0.10384191662E+04  0.00000000000E+00 0.  1.
          5    1    4    4  501    0 -0.18104485985E+03 -0.50941576966E+02  0.19454493413E+03  0.27062425859E+03  0.41800000000E+01 0. -1.
         -5    1    4    4    0  501  0.76860715446E+01 -0.57678083411E+00 -0.12211192909E+02  0.15033096959E+02  0.41800000000E+01 0. -1.
</event>
<event>
11    1  0.8453735E-009  0.1381061E+03  0.7561462E-02  0.1109692E+00
         22   -1    0    0    0    0  0.00000000000E+00  0.00000000000E+00  0.37840506279E+02  0.37840506279E+02  0.00000000000E+00 0. -1.
         22   -1    0    0    0    0 -0.00000000000E+00 -0.00000000000E+00 -0.12603789976E+04  0.12603789976E+04  0.00000000000E+00 0. -1.
        -24    2    1    2    0    0  0.57663071591E+01  0.36947647605E+02 -0.73631043479E+03  0.74161943883E+03  0.80299170054E+02 0.  0.
         25    2    1    2    0    0  0.45729487771E+02 -0.59296658635E+02 -0.40215634104E+03  0.42776722423E+03  0.12509114962E+03 0.  0.
         24    2    1    2    0    0 -0.51495794930E+02  0.22349011031E+02 -0.84071715492E+02  0.12883284081E+03  0.79865839608E+02 0.  0.
        -11    1    5    5    0    0  0.12671939227E+02  0.12024651297E+02  0.53656291489E+01  0.18274579578E+02  0.00000000000E+00 0.  1.
         12    1    5    5    0    0 -0.64167734157E+02  0.10324359734E+02 -0.89437344641E+02  0.11055826123E+03  0.00000000000E+00 0. -1.
         11    1    3    3    0    0  0.34357318514E+02  0.36413831928E+02 -0.61280946855E+03  0.61485106915E+03  0.00000000000E+00 0. -1.
        -12    1    3    3    0    0 -0.28591011355E+02  0.53381567695E+00 -0.12350096624E+03  0.12676836968E+03  0.00000000000E+00 0.  1.
          5    1    4    4  501    0  0.32441227220E+02 -0.65910491865E+02 -0.94706442089E+02  0.11993084980E+03  0.41800000000E+01 0. -1.
         -5    1    4    4    0  501  0.13288260551E+02  0.66138332298E+01 -0.30744989895E+03  0.30783637443E+03  0.41800000000E+01 0. -1.
</event>
<event>
11    1  0.8453735E-009  0.5476189E+03  0.7561462E-02  0.9292990E-01
         22   -1    0    0    0    0  0.00000000000E+00  0.00000000000E+00  0.77076754438E+03  0.77076754438E+03  0.00000000000E+00 0.  1.
         22   -1    0    0    0    0 -0.00000000000E+00 -0.00000000000E+00 -0.51825263096E+03  0.51825263096E+03  0.00000000000E+00 0.  1.
        -24    2    1    2    0    0 -0.22933575597E+03  0.52119429388E+03 -0.76152928915E+02  0.58002298642E+03  0.79931315834E+02 0.  0.
         25    2    1    2    0    0  0.22569304750E+03 -0.42261951713E+03  0.22066977289E+03  0.54211397257E+03  0.12509117728E+03 0.  0.
         24    2    1    2    0    0  0.36427084718E+01 -0.98574776749E+02  0.10799806945E+03  0.16688321635E+03  0.80350289109E+02 0.  0.
        -13    1    5    5    0    0  0.35574486705E+02 -0.51608304807E+02  0.27696982897E+02  0.68527980351E+02  0.00000000000E+00 0.  1.
         14    1    5    5    0    0 -0.31931778233E+02 -0.46966471942E+02  0.80301086550E+02  0.98355236002E+02  0.00000000000E+00 0. -1.
         13    1    3    3    0    0 -0.72572287745E+02  0.17319032029E+03 -0.63164235813E+02  0.19811952119E+03  0.00000000000E+00 0. -1.
        -14    1    3    3    0    0 -0.15676346823E+03  0.34800397359E+03 -0.12988693102E+02  0.38190346523E+03  0.00000000000E+00 0.  1.
          5    1    4    4  501    0  0.92029352067E+02 -0.29895903754E+03  0.14681381437E+03  0.34556862742E+03  0.41800000000E+01 0. -1.
         -5    1    4    4    0  501  0.13366369543E+03 -0.12366047960E+03  0.73855958514E+02  0.19654534515E+03  0.41800000000E+01 0. -1.
</event>
<event>
11    1  0.8453735E-009  0.1887738E+03  0.7561462E-02  0.1062759E+00
         22   -1    0    0    0    0  0.00000000000E+00  0.00000000000E+00  0.39982161526E+02  0.39982161526E+02  0.00000000000E+00 0.  1.
         22   -1    0    0    0    0 -0.00000000000E+00 -0.00000000000E+00 -0.22484521878E+04  0.22484521878E+04  0.00000000000E+00 0. -1.
        -24    2    1    2    0    0 -0.92753893237E+01 -0.75718184572E+02 -0.87678773093E+03  0.88379225425E+03  0.80701593788E+02 0.  0.
         25    2    1    2    0    0  0.14832964734E+03  0.48415797076E+02 -0.11195491050E+04  0.11372703385E+04  0.12509136912E+03 0.  0.
         24    2    1    2    0    0 -0.13905425802E+03  0.27302387496E+02 -0.21213319030E+03  0.26737175654E+03  0.80035359254E+02 0.  0.
        -13    1    5    5    0    0 -0.27108866543E+02 -0.85558883877E+01 -0.45104588925E+01  0.28782600834E+02  0.00000000000E+00 0.  1.
         14    1    5    5    0    0 -0.11194539147E+03  0.35858275884E+02 -0.20762273141E+03  0.23858915570E+03  0.00000000000E+00 0. -1.
         13    1    3    3    0    0  0.13222241281E+01 -0.82975975383E+02 -0.85045037812E+03  0.85448967601E+03  0.00000000000E+00 0. -1.
        -14    1    3    3    0    0 -0.10597613452E+02  0.72577908107E+01 -0.26337352815E+02  0.29302578242E+02  0.00000000000E+00 0.  1.
          5    1    4    4  501    0  0.11888857628E+02 -0.17054005589E+02 -0.27244778161E+02  0.34524402665E+02  0.41800000000E+01 0. -1.
         -5    1    4    4    0  501  0.13644078971E+03  0.65469802665E+02 -0.10923043268E+04  0.11027459358E+04  0.41800000000E+01 0. -1.
</event>
<event>
11    1  0.8453735E-009  0.1551522E+03  0.7561462E-02  0.1091728E+00
         22   -1    0    0    0    0  0.00000000000E+00  0.00000000000E+00  0.81442101160E+03  0.81442101160E+03  0.00000000000E+00 0. -1.
         22   -1    0    0    0    0 -0.00000000000E+00 -0.00000000000E+00 -0.12053069119E+03  0.12053069119E+03  0.00000000000E+00 0. -1.
         24    2    1    2    0    0 -0.26107963098E+02 -0.97589014550E+02  0.29286153781E+01  0.12898891074E+03  0.80151860910E+02 0.  0.
         25    2    1    2    0    0  0.36599762330E+02  0.70051763082E+02  0.45368863753E+02  0.15476636371E+03  0.12508997332E+03 0.  0.
        -24    2    1    2    0    0 -0.10491799232E+02  0.27537251469E+02  0.64559284128E+03  0.65119642834E+03  0.79989333701E+02 0.  0.
        -13    1    3    3    0    0  0.16199766487E+02  0.37043697409E+01  0.92763635046E+01  0.19031702743E+02  0.00000000000E+00 0.  1.
         14    1    3    3    0    0 -0.42307729586E+02 -0.10129338429E+03 -0.63477481265E+01  0.10995720800E+03  0.00000000000E+00 0. -1.
         13    1    5    5    0    0 -0.25887538550E+02 -0.21546302492E+02  0.23858408602E+03  0.24094973315E+03  0.00000000000E+00 0. -1.
        -14    1    5    5    0    0  0.15395739319E+02  0.49083553961E+02  0.40700875525E+03  0.41024669519E+03  0.00000000000E+00 0.  1.
          5    1    4    4  501    0  0.78510509508E+02  0.70782488549E+02  0.34295627871E+02  0.11121026607E+03  0.41800000000E+01 0. -1.
         -5    1    4    4    0  501 -0.41910747178E+02 -0.73072546722E+00  0.11073235882E+02  0.43556097640E+02  0.41800000000E+01 0. -1.
</event>
<event>
11    1  0.8453735E-009  0.2997862E+03  0.7561462E-02  0.1000282E+00
         22   -1    0    0    0    0  0.00000000000E+00  0.00000000000E+00  0.12652957266E+04  0.12652957266E+04  0.00000000000E+00 0. -1.
         22   -1    0    0    0    0 -0.00000000000E+00 -0.00000000000E+00 -0.45662240541E+03  0.45662240541E+03  0.00000000000E+00 0. -1.
         24    2    1    2    0    0 -0.26016614381E+03  0.82773048858E+02 -0.37481669055E+03  0.46987663365E+03  0.75886094455E+02 0.  0.
         25    2    1    2    0    0  0.25115115940E+03 -0.82030911488E+02  0.64877486305E+03  0.71159173083E+03  0.12509193880E+03 0.  0.
        -24    2    1    2    0    0  0.90149844165E+01 -0.74213737077E+00  0.53471514871E+03  0.54044976753E+03  0.77998976001E+02 0.  0.
        -11    1    3    3    0    0 -0.56785887916E+02  0.52657054621E+02 -0.92707194183E+02  0.12079745991E+03  0.00000000000E+00 0.  1.
         12    1    3    3    0    0 -0.20338025590E+03  0.30115994237E+02 -0.28210949637E+03  0.34907917374E+03  0.00000000000E+00 0. -1.
         13    1    5    5    0    0 -0.12103670036E+02  0.11416296881E+02  0.24283124110E+02  0.29436385297E+02  0.00000000000E+00 0. -1.
        -14    1    5    5    0    0  0.21118654453E+02 -0.12158434251E+02  0.51043202460E+03  0.51101338223E+03  0.00000000000E+00 0.  1.
          5    1    4    4  501    0  0.21362803027E+03 -0.11396799861E+03  0.51907683384E+03  0.57278606115E+03  0.41800000000E+01 0. -1.
         -5    1    4    4    0  501  0.37523129129E+02  0.31937087118E+02  0.12969802921E+03  0.13880566968E+03  0.41800000000E+01 0. -1.
</event>
<event>
11    1  0.8453735E-009  0.1453093E+03  0.7561462E-02  0.1101770E+00
         22   -1    0    0    0    0  0.00000000000E+00  0.00000000000E+00  0.57361015077E+03  0.57361015077E+03  0.00000000000E+00 0.  1.
         22   -1    0    0    0    0 -0.00000000000E+00 -0.00000000000E+00 -0.79105269944E+02  0.79105269944E+02  0.00000000000E+00 0.  1.
        -24    2    1    2    0    0 -0.81038573588E+02  0.15231335308E+02  0.28994179486E+01  0.11031648663E+03  0.73226201684E+02 0.  0.
         25    2    1    2    0    0  0.37189305319E+02  0.38376724104E+01  0.23554289814E+03  0.26930525298E+03  0.12508832983E+03 0.  0.
         24    2    1    2    0    0  0.43849268268E+02 -0.19069007719E+02  0.25606256473E+03  0.27309368110E+03  0.82010586003E+02 0.  0.
        -11    1    5    5    0    0 -0.59021584699E+01  0.22842051997E+01  0.17789624560E+03  0.17800878424E+03  0.00000000000E+00 0.  1.
         12    1    5    5    0    0  0.49751426738E+02 -0.21353212918E+02  0.78166319138E+02  0.95084896866E+02  0.00000000000E+00 0. -1.
         13    1    3    3    0    0  0.11356321040E+02  0.10906979790E+02 -0.71174353308E+01  0.17279644713E+02  0.00000000000E+00 0. -1.
        -14    1    3    3    0    0 -0.92394894628E+02  0.43243555185E+01  0.10016853279E+02  0.93036841915E+02  0.00000000000E+00 0.  1.
          5    1    4    4  501    0 -0.90948096031E+01 -0.92957116080E+01  0.21722681661E+03  0.21765589372E+03  0.41800000000E+01 0.  1.
         -5    1    4    4    0  501  0.46284114922E+02  0.13133384018E+02  0.18316081536E+02  0.51649359268E+02  0.41800000000E+01 0.  1.
</event>
<event>
11    1  0.8453735E-009  0.1285137E+03  0.7561462E-02  0.1121109E+00
         22   -1    0    0    0    0  0.00000000000E+00  0.00000000000E+00  0.46283446839E+03  0.46283446839E+03  0.00000000000E+00 0. -1.
         22   -1    0    0    0    0 -0.00000000000E+00 -0.00000000000E+00 -0.22102175583E+04  0.22102175583E+04  0.00000000000E+00 0. -1.
        -24    2    1    2    0    0  0.29500214854E+02 -0.10056435152E+01 -0.21851566420E+04  0.21871196467E+04  0.87815289123E+02 0.  0.
         25    2    1    2    0    0 -0.10403083775E+02  0.73474942167E+01  0.22999492731E+03  0.26212364570E+03  0.12509568026E+03 0.  0.
         24    2    1    2    0    0 -0.19097131079E+02 -0.63418507015E+01  0.20777862470E+03  0.22380873434E+03  0.80706091460E+02 0.  0.
        -11    1    5    5    0    0  0.38229346864E+01  0.51609615613E+01 -0.58253109288E+01  0.86709054470E+01  0.00000000000E+00 0.  1.
         12    1    5    5    0    0 -0.22920065765E+02 -0.11502812263E+02  0.21360393563E+03  0.21513782889E+03  0.00000000000E+00 0. -1.
         13    1    3    3    0    0 -0.19171121545E+02  0.72084501020E+01 -0.15185286560E+04  0.15186667748E+04  0.00000000000E+00 0. -1.
        -14    1    3    3    0    0  0.48671336398E+02 -0.82140936172E+01 -0.66662798595E+03  0.66845287192E+03  0.00000000000E+00 0.  1.
          5    1    4    4  501    0  0.34550275092E+02  0.44020363888E+02  0.16795587457E+03  0.17708235979E+03  0.41800000000E+01 0. -1.
         -5    1    4    4    0  501 -0.44953358867E+02 -0.36672869671E+02  0.62039052746E+02  0.85041285909E+02  0.41800000000E+01 0. -1.
</event>
<event>
11    1  0.8453735E-009  0.1421186E+03  0.7561462E-02  0.1105215E+00
         22   -1    0    0    0    0  0.00000000000E+00  0.00000000000E+00  0.71224219323E+03  0.71224219323E+03  0.00000000000E+00 0.  1.
         22   -1    0    0    0    0 -0.00000000000E+00 -0.00000000000E+00 -0.20425654355E+03  0.20425654355E+03  0.00000000000E+00 0. -1.
         24    2    1    2    0    0 -0.32163545779E+02 -0.53048028443E+02 -0.11002775754E+03  0.14994278725E+03  0.80796936937E+02 0.  0.
         25    2    1    2    0    0 -0.24134274766E+02  0.89647441402E+02  0.17272085800E+02  0.15676725598E+03  0.12513401069E+03 0.  0.
        -24    2    1    2    0    0  0.56297820545E+02 -0.36599412959E+02  0.60074132142E+03  0.60978869355E+03  0.80269258729E+02 0.  0.
        -13    1    3    3    0    0 -0.18725306526E+02  0.12735298248E+02 -0.19788360899E+01  0.22731931687E+02  0.00000000000E+00 0.  1.
         14    1    3    3    0    0 -0.13438239252E+02 -0.65783326691E+02 -0.10804892145E+03  0.12721085556E+03  0.00000000000E+00 0. -1.
         13    1    5    5    0    0 -0.94227478466E+01  0.14847413417E+01  0.87502681327E+01  0.12944490188E+02  0.00000000000E+00 0. -1.
        -14    1    5    5    0    0  0.65720568392E+02 -0.38084154301E+02  0.59199105329E+03  0.59684420337E+03  0.00000000000E+00 0.  1.
          5    1    4    4  501    0  0.29258328497E+02  0.78447460448E+02 -0.25163083343E+02  0.87525464869E+02  0.41800000000E+01 0. -1.
         -5    1    4    4    0  501 -0.53392603263E+02  0.11199980954E+02  0.42435169143E+02  0.69241791115E+02  0.41800000000E+01 0. -1.
</event>
<event>
11    1  0.8453735E-009  0.1603013E+03  0.7561462E-02  0.1086794E+00
         22   -1    0    0    0    0  0.00000000000E+00  0.00000000000E+00  0.60826250160E+02  0.60826250160E+02  0.00000000000E+00 0.  1.
         22   -1    0    0    0    0 -0.00000000000E+00 -0.00000000000E+00 -0.24647151954E+04  0.24647151954E+04  0.00000000000E+00 0.  1.
         24    2    1    2    0    0  0.87973690703E+01 -0.22268274058E+02 -0.16834705219E+04  0.16855529191E+04  0.80264408787E+02 0.  0.
         25    2    1    2    0    0 -0.59617450208E+02  0.10567984821E+03 -0.68544813111E+03  0.70725949356E+03  0.12511746519E+03 0.  0.
        -24    2    1    2    0    0  0.50820081137E+02 -0.83411574149E+02 -0.34970292204E+02  0.13272903286E+03  0.82788305198E+02 0.  0.
        -11    1    3    3    0    0  0.39497768949E+02  0.83769838910E+01 -0.82093426766E+03  0.82192659005E+03  0.00000000000E+00 0.  1.
         12    1    3    3    0    0 -0.30700399879E+02 -0.30645257949E+02 -0.86253625423E+03  0.86362632907E+03  0.00000000000E+00 0. -1.
         13    1    5    5    0    0  0.34157436274E+02  0.78294148024E+01 -0.59485777645E+01  0.35544560293E+02  0.00000000000E+00 0. -1.
        -14    1    5    5    0    0  0.16662644863E+02 -0.91240988952E+02 -0.29021714440E+02  0.97184472565E+02  0.00000000000E+00 0.  1.
          5    1    4    4  501    0 -0.25888040998E+02  0.12992111851E+03 -0.51991844495E+03  0.53654668902E+03  0.41800000000E+01 0. -1.
         -5    1    4    4    0  501 -0.33729409210E+02 -0.24241270300E+02 -0.16552968616E+03  0.17071280453E+03  0.41800000000E+01 0. -1.
</event>
<event>
11    1  0.8453735E-009  0.1885714E+03  0.7561462E-02  0.1062913E+00
         22   -1    0    0    0    0  0.00000000000E+00  0.00000000000E+00  0.39105816249E+04  0.39105816249E+04  0.00000000000E+00 0.  1.
         22   -1    0    0    0    0 -0.00000000000E+00 -0.00000000000E+00 -0.34695699078E+03  0.34695699078E+03  0.00000000000E+00 0.  1.
         24    2    1    2    0    0 -0.39336596749E+02  0.13407898774E+03 -0.29354599289E+03  0.33448594895E+03  0.78657849618E+02 0.  0.
         25    2    1    2    0    0  0.13797363676E+03 -0.13418561015E+03  0.38288701726E+03  0.44642094415E+03  0.12508672581E+03 0.  0.
        -24    2    1    2    0    0 -0.98637040015E+02  0.10662240500E+00  0.34742836097E+04  0.34766317225E+04  0.81192711634E+02 0.  0.
        -11    1    3    3    0    0 -0.27282575507E+02  0.13410483577E+03 -0.29181127110E+03  0.32230771608E+03  0.00000000000E+00 0.  1.
         12    1    3    3    0    0 -0.12054021242E+02 -0.25848033487E-01 -0.17347217943E+01  0.12178232874E+02  0.00000000000E+00 0. -1.
         13    1    5    5    0    0 -0.12759515600E+01  0.10390164030E+02  0.57459256612E+02  0.58405048851E+02  0.00000000000E+00 0. -1.
        -14    1    5    5    0    0 -0.97361088456E+02 -0.10283541625E+02  0.34168243531E+04  0.34182266737E+04  0.00000000000E+00 0.  1.
          5    1    4    4  501    0  0.15288782328E+03 -0.14213668424E+03  0.32780595764E+03  0.38865375565E+03  0.41800000000E+01 0. -1.
         -5    1    4    4    0  501 -0.14914186514E+02  0.79510740903E+01  0.55081059619E+02  0.57767188501E+02  0.41800000000E+01 0. -1.
</event>
<event>
11    1  0.8453735E-009  0.1285696E+03  0.7561462E-02  0.1121039E+00
         22   -1    0    0    0    0  0.00000000000E+00  0.00000000000E+00  0.18415135782E+04  0.18415135782E+04  0.00000000000E+00 0.  1.
         22   -1    0    0    0    0 -0.00000000000E+00 -0.00000000000E+00 -0.10573566150E+03  0.10573566150E+03  0.00000000000E+00 0. -1.
        -24    2    1    2    0    0 -0.24304799616E+02  0.10425203523E+02 -0.23720502849E+02  0.92667035774E+02  0.85586851273E+02 0.  0.
         25    2    1    2    0    0  0.40716515165E+02  0.39644587585E+00  0.46520983665E+02  0.13953486988E+03  0.12509111166E+03 0.  0.
         24    2    1    2    0    0 -0.16411715549E+02 -0.10821649399E+02  0.17129774359E+04  0.17150473340E+04  0.81909765400E+02 0.  0.
        -11    1    5    5    0    0 -0.46276889940E+02 -0.14394477867E+02  0.13332393552E+04  0.13341199084E+04  0.00000000000E+00 0.  1.
         12    1    5    5    0    0  0.29865174391E+02  0.35728284679E+01  0.37973808066E+03  0.38092742569E+03  0.00000000000E+00 0. -1.
         13    1    3    3    0    0 -0.26383421887E+02  0.45398941498E+02 -0.44882837152E+01  0.52700033494E+02  0.00000000000E+00 0. -1.
        -14    1    3    3    0    0  0.20786222704E+01 -0.34973737974E+02 -0.19232219134E+02  0.39967002280E+02  0.00000000000E+00 0.  1.
          5    1    4    4  501    0 -0.22939197971E+02  0.44756981984E+02  0.33951726191E+02  0.60824225036E+02  0.41800000000E+01 0.  1.
         -5    1    4    4    0  501  0.63655713136E+02 -0.44360536108E+02  0.12569257474E+02  0.78710644847E+02  0.41800000000E+01 0.  1.
</event>
<event>
11    1  0.8453735E-009  0.1684465E+03  0.7561462E-02  0.1079391E+00
         22   -1    0    0    0    0  0.00000000000E+00  0.00000000000E+00  0.16250718970E+04  0.16250718970E+04  0.00000000000E+00 0.  1.
         22   -1    0    0    0    0 -0.00000000000E+00 -0.00000000000E+00 -0.12256795713E+03  0.12256795713E+03  0.00000000000E+00 0. -1.
        -24    2    1    2    0    0 -0.80213217194E+02 -0.84843059987E+02 -0.59311258069E+02  0.16048447807E+03  0.92762801415E+02 0.  0.
         25    2    1    2    0    0  0.74189064757E+02  0.27685115387E+02  0.51972420823E+03  0.54039760574E+03  0.12508331917E+03 0.  0.
         24    2    1    2    0    0  0.60241524369E+01  0.57157944600E+02  0.10420909897E+04  0.10467577703E+04  0.80279996605E+02 0.  0.
        -11    1    5    5    0    0  0.10953317249E+02  0.30054013361E+02  0.95226979317E+03  0.95280689432E+03  0.00000000000E+00 0.  1.
         12    1    5    5    0    0 -0.49291648125E+01  0.27103931239E+02  0.89821196564E+02  0.93950876029E+02  0.00000000000E+00 0. -1.
         11    1    3    3    0    0 -0.54673204346E+02 -0.34229323636E+01 -0.50833799533E+02  0.74732529158E+02  0.00000000000E+00 0. -1.
        -12    1    3    3    0    0 -0.25540012848E+02 -0.81420127624E+02 -0.84774585356E+01  0.85751948909E+02  0.00000000000E+00 0.  1.
          5    1    4    4  501    0 -0.32434988342E+02  0.25208976443E+02  0.14150762094E+03  0.14740895544E+03  0.41800000000E+01 0.  1.
         -5    1    4    4    0  501  0.10662405310E+03  0.24761389442E+01  0.37821658729E+03  0.39298865030E+03  0.41800000000E+01 0.  1.
</event>
<event>
11    1  0.8453735E-009  0.1338879E+03  0.7561462E-02  0.1114582E+00
         22   -1    0    0    0    0  0.00000000000E+00  0.00000000000E+00  0.23743547024E+03  0.23743547024E+03  0.00000000000E+00 0. -1.
         22   -1    0    0    0    0 -0.00000000000E+00 -0.00000000000E+00 -0.25610310791E+04  0.25610310791E+04  0.00000000000E+00 0. -1.
         24    2    1    2    0    0 -0.95719208908E+01 -0.16841188723E+02 -0.24953182556E+04  0.24966936245E+04  0.80564325356E+02 0.  0.
         25    2    1    2    0    0  0.55131962862E+02  0.12887419078E+02  0.43464362461E+02  0.14402255746E+03  0.12509087639E+03 0.  0.
        -24    2    1    2    0    0 -0.45560041971E+02  0.39537696456E+01  0.12825828425E+03  0.15775036742E+03  0.79646978745E+02 0.  0.
        -11    1    3    3    0    0  0.57776514320E+01  0.28785582991E+02 -0.14134291078E+04  0.14137340039E+04  0.00000000000E+00 0.  1.
         12    1    3    3    0    0 -0.15349572323E+02 -0.45626771714E+02 -0.10818891478E+04  0.10829596206E+04  0.00000000000E+00 0. -1.
         11    1    5    5    0    0 -0.56058056542E+02  0.62633822918E+01  0.13412576467E+03  0.14550414568E+03  0.00000000000E+00 0. -1.
        -12    1    5    5    0    0  0.10498014570E+02 -0.23096126462E+01 -0.58674804192E+01  0.12246221742E+02  0.00000000000E+00 0.  1.
          5    1    4    4  501    0  0.51948106742E+02 -0.48827020284E+02  0.40305800451E+02  0.82004351432E+02  0.41800000000E+01 0. -1.
         -5    1    4    4    0  501  0.31838561202E+01  0.61714439361E+02  0.31585620102E+01  0.62018206032E+02  0.41800000000E+01 0. -1.
</event>
<event>
11    1  0.8453735E-009  0.1725179E+03  0.7561462E-02  0.1075861E+00
         22   -1    0    0    0    0  0.00000000000E+00  0.00000000000E+00  0.23365393471E+03  0.23365393471E+03  0.00000000000E+00 0.  1.
         22   -1    0    0    0    0 -0.00000000000E+00 -0.00000000000E+00 -0.40961093925E+03  0.40961093925E+03  0.00000000000E+00 0. -1.
         24    2    1    2    0    0  0.52201328161E+02  0.51938182046E+01 -0.22609636107E+03  0.24492001678E+03  0.78193962177E+02 0.  0.
         25    2    1    2    0    0 -0.14576119115E+03 -0.64078897959E+02 -0.72433996635E+02  0.21505102957E+03  0.12509129243E+03 0.  0.
        -24    2    1    2    0    0  0.93559862984E+02  0.58885079755E+02  0.12257335316E+03  0.18329382761E+03  0.79696297013E+02 0.  0.
        -13    1    3    3    0    0  0.32095817464E+01 -0.29666207453E+02 -0.44086474980E+02  0.53235350621E+02  0.00000000000E+00 0.  1.
         14    1    3    3    0    0  0.48991746415E+02  0.34860025658E+02 -0.18200988609E+03  0.19168466616E+03  0.00000000000E+00 0. -1.
         13    1    5    5    0    0  0.30297314176E+02  0.20949911623E+02 -0.37344206314E+01  0.37023937402E+02  0.00000000000E+00 0. -1.
        -14    1    5    5    0    0  0.63262548808E+02  0.37935168132E+02  0.12630777379E+03  0.14626989021E+03  0.00000000000E+00 0.  1.
          5    1    4    4  501    0 -0.70716959015E+02  0.31723240340E+02 -0.10151357696E+02  0.78280104325E+02  0.41800000000E+01 0.  1.
         -5    1    4    4    0  501 -0.75044232130E+02 -0.95802138299E+02 -0.62282638940E+02  0.13677092524E+03  0.41800000000E+01 0.  1.
</event>
<event>
11    1  0.8453735E-009  0.1365844E+03  0.7561462E-02  0.1111434E+00
         22   -1    0    0    0    0  0.00000000000E+00  0.00000000000E+00  0.12974702711E+04  0.12974702711E+04  0.00000000000E+00 0.  1.
         22   -1    0    0    0    0 -0.00000000000E+00 -0.00000000000E+00 -0.50846836250E+02  0.50846836250E+02  0.00000000000E+00 0.  1.
         24    2    1    2    0    0 -0.11912077548E+02 -0.89199818286E+01  0.78414904527E+01  0.81713884055E+02  0.79963780597E+02 0.  0.
         25    2    1    2    0    0  0.47330578823E+02 -0.32604936663E+02  0.41342805671E+03  0.43574473690E+03  0.12508977606E+03 0.  0.
        -24    2    1    2    0    0 -0.35418501276E+02  0.41524918491E+02  0.82535388766E+03  0.83085848637E+03  0.78345359820E+02 0.  0.
        -13    1    3    3    0    0 -0.82036410086E+01  0.11022767833E+02 -0.33201182997E+02  0.35932153970E+02  0.00000000000E+00 0.  1.
         14    1    3    3    0    0 -0.37084365392E+01 -0.19942749661E+02  0.41042673450E+02  0.45781730085E+02  0.00000000000E+00 0. -1.
         11    1    5    5    0    0 -0.35919356741E+02 -0.24720433415E+01  0.15776627964E+03  0.16182246500E+03  0.00000000000E+00 0. -1.
        -12    1    5    5    0    0  0.50085546534E+00  0.43996961833E+02  0.66758760802E+03  0.66903602137E+03  0.00000000000E+00 0.  1.
          5    1    4    4  501    0  0.63179200953E+02 -0.48878282909E+02  0.13919718148E+03  0.16054290923E+03  0.41800000000E+01 0. -1.
         -5    1    4    4    0  501 -0.15848622130E+02  0.16273346246E+02  0.27423087524E+03  0.27520182767E+03  0.41800000000E+01 0. -1.
</event>
<event>
11    1  0.8453735E-009  0.1388759E+03  0.7561462E-02  0.1108820E+00
         22   -1    0    0    0    0  0.00000000000E+00  0.00000000000E+00  0.58583478295E+02  0.58583478295E+02  0.00000000000E+00 0. -1.
         22   -1    0    0    0    0 -0.00000000000E+00 -0.00000000000E+00 -0.11478425774E+04  0.11478425774E+04  0.00000000000E+00 0. -1.
         24    2    1    2    0    0  0.38492117484E+02 -0.31109569066E+02 -0.54656349975E+03  0.55458371651E+03  0.79887364207E+02 0.  0.
         25    2    1    2    0    0 -0.18533611872E+02 -0.29848463697E+02 -0.53384565995E+03  0.54942973601E+03  0.12508965030E+03 0.  0.
        -24    2    1    2    0    0 -0.19958505612E+02  0.60958032763E+02 -0.88499394081E+01  0.10241260318E+03  0.79346053198E+02 0.  0.
        -11    1    3    3    0    0  0.42048233293E+02 -0.48363722975E+02 -0.27168458646E+03  0.27914085717E+03  0.00000000000E+00 0.  1.
         12    1    3    3    0    0 -0.35561158096E+01  0.17254153909E+02 -0.27487891330E+03  0.27544285934E+03  0.00000000000E+00 0. -1.
         13    1    5    5    0    0  0.58498209030E+01  0.70754282165E+02  0.56701302259E+01  0.71221760902E+02  0.00000000000E+00 0. -1.
        -14    1    5    5    0    0 -0.25808326515E+02 -0.97962494021E+01 -0.14520069634E+02  0.31190842278E+02  0.00000000000E+00 0.  1.
          5    1    4    4  501    0 -0.17985031849E+01 -0.74674244228E+02 -0.23137375908E+03  0.24316818492E+03  0.41800000000E+01 0.  1.
         -5    1    4    4    0  501 -0.16735108687E+02  0.44825780531E+02 -0.30247190087E+03  0.30626155109E+03  0.41800000000E+01 0.  1.
</event>
<event>
11    1  0.8453735E-009  0.1474472E+03  0.7561462E-02  0.1099516E+00
         22   -1    0    0    0    0  0.00000000000E+00  0.00000000000E+00  0.24795757264E+04  0.24795757264E+04  0.00000000000E+00 0.  1.
         22   -1    0    0    0    0 -0.00000000000E+00 -0.00000000000E+00 -0.19771343266E+03  0.19771343266E+03  0.00000000000E+00 0.  1.
        -24    2    1    2    0    0  0.62981717294E+02 -0.12049074567E+01 -0.15109863161E+03  0.18122774033E+03  0.77746696878E+02 0.  0.
         25    2    1    2    0    0 -0.82627660003E+02  0.75904434771E+02  0.20407669442E+03  0.26435618624E+03  0.12509229625E+03 0.  0.
         24    2    1    2    0    0  0.19645942709E+02 -0.74699527314E+02  0.22288842310E+04  0.22317052325E+04  0.81347079479E+02 0.  0.
        -13    1    5    5    0    0  0.28901937808E+02 -0.25171317255E+01  0.11518083771E+04  0.11521736829E+04  0.00000000000E+00 0.  1.
         14    1    5    5    0    0 -0.92559950985E+01 -0.72182395589E+02  0.10770758538E+04  0.10795315496E+04  0.00000000000E+00 0. -1.
         11    1    3    3    0    0  0.43589790160E+02 -0.10737912822E+02 -0.21384214997E+02  0.49725820547E+02  0.00000000000E+00 0. -1.
        -12    1    3    3    0    0  0.19391927134E+02  0.95330053656E+01 -0.12971441662E+03  0.13150191979E+03  0.00000000000E+00 0.  1.
          5    1    4    4  501    0 -0.77680556684E+02  0.27934338853E+02  0.37274178717E+02  0.90672117946E+02  0.41800000000E+01 0. -1.
         -5    1    4    4    0  501 -0.49471033194E+01  0.47970095918E+02  0.16680251570E+03  0.17368406829E+03  0.41800000000E+01 0. -1.
</event>
<event>
11    1  0.8453735E-009  0.1324144E+03  0.7561462E-02  0.1116338E+00
         22   -1    0    0    0    0  0.00000000000E+00  0.00000000000E+00  0.80066456523E+03  0.80066456523E+03  0.00000000000E+00 0.  1.
         22   -1    0    0    0    0 -0.00000000000E+00 -0.00000000000E+00 -0.12658969560E+03  0.12658969560E+03  0.00000000000E+00 0. -1.
        -24    2    1    2    0    0  0.21842413202E+02  0.36244583601E+01 -0.69381855423E+02  0.10958802455E+03  0.81886907076E+02 0.  0.
         25    2    1    2    0    0 -0.62555463745E+02  0.48861216877E+01  0.11092593141E+03  0.17857673731E+03  0.12509208056E+03 0.  0.
         24    2    1    2    0    0  0.40713050543E+02 -0.85105800479E+01  0.63253079365E+03  0.63908949896E+03  0.81303138420E+02 0.  0.
        -11    1    5    5    0    0  0.40398219881E+02  0.31315332621E+02  0.38420746106E+03  0.38759262036E+03  0.00000000000E+00 0.  1.
         12    1    5    5    0    0  0.31483066268E+00 -0.39825912669E+02  0.24832333259E+03  0.25149687860E+03  0.00000000000E+00 0. -1.
         11    1    3    3    0    0  0.18629603273E+02 -0.12084449863E+02 -0.84609715833E+02  0.87475139668E+02  0.00000000000E+00 0. -1.
        -12    1    3    3    0    0  0.32128099285E+01  0.15708908223E+02  0.15227860411E+02  0.22112884884E+02  0.00000000000E+00 0.  1.
          5    1    4    4  501    0 -0.31049789929E+01  0.42101556444E+01 -0.27267951679E+02  0.28078103459E+02  0.41800000000E+01 0.  1.
         -5    1    4    4    0  501 -0.59450484752E+02  0.67596604331E+00  0.13819388309E+03  0.15049863385E+03  0.41800000000E+01 0.  1.
</event>
<event>
11    1  0.8453735E-009  0.1381593E+03  0.7561462E-02  0.1109631E+00
         22   -1    0    0    0    0  0.00000000000E+00  0.00000000000E+00  0.44806224036E+03  0.44806224036E+03  0.00000000000E+00 0.  1.
         22   -1    0    0    0    0 -0.00000000000E+00 -0.00000000000E+00 -0.17877590950E+04  0.17877590950E+04  0.00000000000E+00 0. -1.
        -24    2    1    2    0    0  0.90821321234E+01  0.57859644216E+02 -0.17342252373E+04  0.17372999977E+04  0.85111013310E+02 0.  0.
         25    2    1    2    0    0 -0.57126799439E+02 -0.57439816223E+02  0.77967305766E+02  0.16819322340E+03  0.12508899204E+03 0.  0.
         24    2    1    2    0    0  0.48044667316E+02 -0.41982799347E+00  0.31656107692E+03  0.33032811428E+03  0.81223650178E+02 0.  0.
        -13    1    5    5    0    0 -0.13755810429E+02  0.22464814249E+02  0.12508237748E+03  0.12782601987E+03  0.00000000000E+00 0.  1.
         14    1    5    5    0    0  0.61800477745E+02 -0.22884642242E+02  0.19147869944E+03  0.20250209441E+03  0.00000000000E+00 0. -1.
         11    1    3    3    0    0 -0.18165515123E+02 -0.15911275859E+02 -0.48637406957E+03  0.48697319248E+03  0.00000000000E+00 0. -1.
        -12    1    3    3    0    0  0.27247647246E+02  0.73770920075E+02 -0.12478511678E+04  0.12503268052E+04  0.00000000000E+00 0.  1.
          5    1    4    4  501    0 -0.71675158023E+02  0.12807350573E+02  0.19337794022E+02  0.75450508176E+02  0.41800000000E+01 0. -1.
         -5    1    4    4    0  501  0.14548358584E+02 -0.70247166796E+02  0.58629511744E+02  0.92742715227E+02  0.41800000000E+01 0. -1.
</event>
<event>
11    1  0.8453735E-009  0.1275757E+03  0.7561462E-02  0.1122284E+00
         22   -1    0    0    0    0  0.00000000000E+00  0.00000000000E+00  0.56654919257E+03  0.56654919257E+03  0.00000000000E+00 0.  1.
         22   -1    0    0    0    0 -0.00000000000E+00 -0.00000000000E+00 -0.23502973718E+04  0.23502973718E+04  0.00000000000E+00 0. -1.
        -24    2    1    2    0    0 -0.24892395995E+02 -0.33299640204E+01 -0.23291172370E+04  0.23306321263E+04  0.80176583078E+02 0.  0.
         25    2    1    2    0    0  0.64930042900E+01  0.59915019284E-03  0.24791199211E+03  0.27775897727E+03  0.12509010559E+03 0.  0.
         24    2    1    2    0    0  0.18399391705E+02  0.33293648702E+01  0.29745706566E+03  0.30845546079E+03  0.79463470186E+02 0.  0.
        -11    1    5    5    0    0  0.34345591733E+02 -0.18185821675E+02  0.25710336752E+03  0.26002400922E+03  0.00000000000E+00 0.  1.
         12    1    5    5    0    0 -0.15946200028E+02  0.21515186545E+02  0.40353698140E+02  0.48431451567E+02  0.00000000000E+00 0. -1.
         13    1    3    3    0    0 -0.20656820964E+02  0.30753099135E+02 -0.18104471848E+04  0.18108261834E+04  0.00000000000E+00 0. -1.
        -14    1    3    3    0    0 -0.42355750310E+01 -0.34083063155E+02 -0.51867005221E+03  0.51980594297E+03  0.00000000000E+00 0.  1.
          5    1    4    4  501    0  0.53012008087E+02 -0.37584881052E+02  0.12143962820E+03  0.13779677783E+03  0.41800000000E+01 0. -1.
         -5    1    4    4    0  501 -0.46519003797E+02  0.37585480202E+02  0.12647236391E+03  0.13996219943E+03  0.41800000000E+01 0. -1.
</event>
<event>
11    1  0.1141815E-008  0.9218379E+03  0.7561462E-02  0.8757131E-01
         22   -1    0    0    0    0  0.00000000000E+00  0.00000000000E+00  0.18241418489E+04  0.18241418489E+04  0.00000000000E+00 0.  1.
         22   -1    0    0    0    0 -0.00000000000E+00 -0.00000000000E+00 -0.28649148643E+04  0.28649148643E+04  0.00000000000E+00 0.  1.
        -24    2    1    2    0    0  0.89010180663E+03  0.19390457424E+03 -0.25815424157E+04  0.27387092318E+04  0.79289356903E+02 0.  0.
         25    2    1    2    0    0 -0.93085094880E+03 -0.25485047223E+03  0.15610826723E+04  0.18395806792E+04  0.12508282656E+03 0.  0.
         24    2    1    2    0    0  0.40749142171E+02  0.60945897985E+02 -0.20313272002E+02  0.11076680219E+03  0.80509380695E+02 0.  0.
        -13    1    5    5    0    0  0.19693766630E+01 -0.13475157903E+02 -0.23084686765E+02  0.26802259009E+02  0.00000000000E+00 0.  1.
         14    1    5    5    0    0  0.38779765508E+02  0.74421055888E+02  0.27714147630E+01  0.83964543184E+02  0.00000000000E+00 0. -1.
         11    1    3    3    0    0  0.59814833290E+03  0.14845318519E+03 -0.18399909249E+04  0.19404603526E+04  0.00000000000E+00 0. -1.
        -12    1    3    3    0    0  0.29195347372E+03  0.45451389053E+02 -0.74155149075E+03  0.79824887912E+03  0.00000000000E+00 0.  1.
          5    1    4    4  501    0 -0.67507878922E+03 -0.21282093501E+03  0.12293413869E+04  0.14185633013E+04  0.41800000000E+01 0.  1.
         -5    1    4    4    0  501 -0.25577215958E+03 -0.42029537223E+02  0.33174128547E+03  0.42101737791E+03  0.41800000000E+01 0.  1.
</event>
<event>
11    1  0.8453735E-009  0.1486479E+03  0.7561462E-02  0.1098268E+00
         22   -1    0    0    0    0  0.00000000000E+00  0.00000000000E+00  0.16660654430E+04  0.16660654430E+04  0.00000000000E+00 0. -1.
         22   -1    0    0    0    0 -0.00000000000E+00 -0.00000000000E+00 -0.12905673155E+03  0.12905673155E+03  0.00000000000E+00 0.  1.
        -24    2    1    2    0    0 -0.37646216402E+02  0.70222444490E+02 -0.23750312192E+02  0.11608978642E+03  0.81020564436E+02 0.  0.
         25    2    1    2    0    0  0.16448911528E+02 -0.82453571249E+02  0.40255134955E+02  0.15600361097E+03  0.12508993822E+03 0.  0.
         24    2    1    2    0    0  0.21197304873E+02  0.12231126759E+02  0.15205038887E+04  0.15230287772E+04  0.84176328844E+02 0.  0.
        -13    1    5    5    0    0  0.22598059945E+02 -0.33985267263E+02  0.80314893171E+03  0.80418522568E+03  0.00000000000E+00 0.  1.
         14    1    5    5    0    0 -0.14007550712E+01  0.46216394022E+02  0.71735495698E+03  0.71884355148E+03  0.00000000000E+00 0. -1.
         13    1    3    3    0    0  0.10994538600E+02  0.20654370968E+02  0.22651994495E+02  0.32566789429E+02  0.00000000000E+00 0. -1.
        -14    1    3    3    0    0 -0.48640755002E+02  0.49568073522E+02 -0.46402306688E+02  0.83522996987E+02  0.00000000000E+00 0.  1.
          5    1    4    4  501    0 -0.41355304573E+02 -0.86892701570E+01  0.45259906996E+02  0.62062035203E+02  0.41800000000E+01 0. -1.
         -5    1    4    4    0  501  0.57804216101E+02 -0.73764301092E+02 -0.50047720410E+01  0.93941575768E+02  0.41800000000E+01 0. -1.
</event>
<event>
11    1  0.8453735E-009  0.1750489E+03  0.7561462E-02  0.1073720E+00
         22   -1    0    0    0    0  0.00000000000E+00  0.00000000000E+00  0.95097792524E+03  0.95097792524E+03  0.00000000000E+00 0.  1.
         22   -1    0    0    0    0 -0.00000000000E+00 -0.00000000000E+00 -0.28793139990E+03  0.28793139990E+03  0.00000000000E+00 0.  1.
         24    2    1    2    0    0 -0.34849687111E+02  0.10547808699E+03 -0.16438726389E+03  0.21427179473E+03  0.80926521989E+02 0.  0.
         25    2    1    2    0    0  0.94911574958E+02 -0.20320288101E+03  0.88551176490E+02  0.27163698990E+03  0.12508287457E+03 0.  0.
        -24    2    1    2    0    0 -0.60061887846E+02  0.97724794014E+02  0.73888261273E+03  0.75300054051E+03  0.88908564739E+02 0.  0.
        -11    1    3    3    0    0  0.91935158014E+01  0.89778882911E+02 -0.11617438452E+03  0.14710967394E+03  0.00000000000E+00 0.  1.
         12    1    3    3    0    0 -0.44043202913E+02  0.15699204083E+02 -0.48212879370E+02  0.67162120789E+02  0.00000000000E+00 0. -1.
         13    1    5    5    0    0 -0.28071676571E+02  0.28049327394E+02  0.76354507235E+02  0.86051116017E+02  0.00000000000E+00 0. -1.
        -14    1    5    5    0    0 -0.31990211275E+02  0.69675466620E+02  0.66252810549E+03  0.66694942450E+03  0.00000000000E+00 0.  1.
          5    1    4    4  501    0  0.11353225677E+01 -0.12368690942E+03  0.68399244304E+01  0.12395159332E+03  0.41800000000E+01 0. -1.
         -5    1    4    4    0  501  0.93776252390E+02 -0.79515971586E+02  0.81711252060E+02  0.14768539658E+03  0.41800000000E+01 0. -1.
</event>
<event>
11    1  0.8453735E-009  0.1534953E+03  0.7561462E-02  0.1093360E+00
         22   -1    0    0    0    0  0.00000000000E+00  0.00000000000E+00  0.23919565835E+03  0.23919565835E+03  0.00000000000E+00 0. -1.
         22   -1    0    0    0    0 -0.00000000000E+00 -0.00000000000E+00 -0.11140303192E+04  0.11140303192E+04  0.00000000000E+00 0.  1.
         24    2    1    2    0    0  0.51977362168E+02 -0.19311905983E+02 -0.10046231264E+04  0.10092832486E+04  0.79438365395E+02 0.  0.
         25    2    1    2    0    0 -0.23255081934E+02  0.10240749981E+03 -0.57699088879E+01  0.16343177521E+03  0.12509419829E+03 0.  0.
        -24    2    1    2    0    0 -0.28722280235E+02 -0.83095593829E+02  0.13555837444E+03  0.18051095376E+03  0.80487790702E+02 0.  0.
        -11    1    3    3    0    0  0.48019662261E+02 -0.37660157385E+02 -0.94027757276E+03  0.94225585127E+03  0.00000000000E+00 0.  1.
         12    1    3    3    0    0  0.39576999069E+01  0.18348251402E+02 -0.64345553600E+02  0.67027397280E+02  0.00000000000E+00 0. -1.
         11    1    5    5    0    0 -0.51013276443E+02 -0.68561178484E+02  0.72501602956E+02  0.11206905014E+03  0.00000000000E+00 0. -1.
        -12    1    5    5    0    0  0.22290996208E+02 -0.14534415344E+02  0.63056771482E+02  0.68441903620E+02  0.00000000000E+00 0.  1.
          5    1    4    4  501    0  0.39813733339E+02  0.58574881121E+02 -0.37472794585E+02  0.80236106553E+02  0.41800000000E+01 0. -1.
         -5    1    4    4    0  501 -0.63068815273E+02  0.43832618691E+02  0.31702885697E+02  0.83195668654E+02  0.41800000000E+01 0. -1.
</event>
<event>
11    1  0.8453735E-009  0.1335376E+03  0.7561462E-02  0.1114997E+00
         22   -1    0    0    0    0  0.00000000000E+00  0.00000000000E+00  0.14046251434E+03  0.14046251434E+03  0.00000000000E+00 0. -1.
         22   -1    0    0    0    0 -0.00000000000E+00 -0.00000000000E+00 -0.41392390117E+03  0.41392390117E+03  0.00000000000E+00 0.  1.
        -24    2    1    2    0    0  0.39605033203E+02 -0.16638518075E+02 -0.15787549860E+03  0.18281235885E+03  0.81549289085E+02 0.  0.
         25    2    1    2    0    0 -0.40840114733E+02  0.36331294351E+02 -0.20713640018E+03  0.24807126080E+03  0.12508390879E+03 0.  0.
         24    2    1    2    0    0  0.12350815301E+01 -0.19692776277E+02  0.91550511950E+02  0.12350279587E+03  0.80511573607E+02 0.  0.
        -13    1    5    5    0    0 -0.28920984870E+02  0.12891333579E+02  0.63582777746E+02  0.71030834665E+02  0.00000000000E+00 0.  1.
         14    1    5    5    0    0  0.30156066400E+02 -0.32584109856E+02  0.27967734205E+02  0.52471961202E+02  0.00000000000E+00 0. -1.
         13    1    3    3    0    0  0.23188572561E+01  0.25800917946E+02 -0.16876324684E+02  0.30917224983E+02  0.00000000000E+00 0. -1.
        -14    1    3    3    0    0  0.37286175946E+02 -0.42439436021E+02 -0.14099917392E+03  0.15189513386E+03  0.00000000000E+00 0.  1.
          5    1    4    4  501    0  0.22967728515E+02  0.62101318940E+02 -0.85074728751E+02  0.10788545889E+03  0.41800000000E+01 0.  1.
         -5    1    4    4    0  501 -0.63807843247E+02 -0.25770024589E+02 -0.12206167143E+03  0.14018580192E+03  0.41800000000E+01 0.  1.
</event>
<event>
11    1  0.1256719E-008  0.1509277E+03  0.7561462E-02  0.1095935E+00
         22   -1    0    0    0    0  0.00000000000E+00  0.00000000000E+00  0.19555191186E+03  0.19555191186E+03  0.00000000000E+00 0.  1.
         22   -1    0    0    0    0 -0.00000000000E+00 -0.00000000000E+00 -0.27340946362E+04  0.27340946362E+04  0.00000000000E+00 0. -1.
         24    2    1    2    0    0 -0.15814352898E+01 -0.58235759376E+02 -0.10978579939E+04  0.11025428052E+04  0.83153820164E+02 0.  0.
         25    2    1    2    0    0 -0.20249782891E+02  0.13915266785E+03 -0.16096477450E+04  0.16206130034E+04  0.12508846988E+03 0.  0.
        -24    2    1    2    0    0  0.21831218180E+02 -0.80916908469E+02  0.16896301457E+03  0.20649073946E+03  0.84058176449E+02 0.  0.
        -11    1    3    3    0    0  0.82452503885E+01  0.19568514535E+02 -0.15834427048E+03  0.15976175672E+03  0.00000000000E+00 0.  1.
         12    1    3    3    0    0 -0.98266856783E+01 -0.77804273911E+02 -0.93951372345E+03  0.94278104846E+03  0.00000000000E+00 0. -1.
         11    1    5    5    0    0  0.48921922826E+01  0.20927897126E+01 -0.83936446891E+01  0.99381379180E+01  0.00000000000E+00 0. -1.
        -12    1    5    5    0    0  0.16939025898E+02 -0.83009698182E+02  0.17735665926E+03  0.19655260154E+03  0.00000000000E+00 0.  1.
          5    1    4    4  501    0  0.41982659125E+01  0.88864060443E+01 -0.80807393868E+03  0.80814451457E+03  0.41800000000E+01 0.  1.
         -5    1    4    4    0  501 -0.24448048803E+02  0.13026626180E+03 -0.80157380631E+03  0.81246848887E+03  0.41800000000E+01 0.  1.
</event>
<event>
11    1  0.8453735E-009  0.1822785E+03  0.7561462E-02  0.1067815E+00
         22   -1    0    0    0    0  0.00000000000E+00  0.00000000000E+00  0.13580790906E+03  0.13580790906E+03  0.00000000000E+00 0. -1.
         22   -1    0    0    0    0 -0.00000000000E+00 -0.00000000000E+00 -0.81865241362E+03  0.81865241362E+03  0.00000000000E+00 0.  1.
        -24    2    1    2    0    0 -0.71892251590E+02 -0.11474279941E+03 -0.65177954793E+03  0.67062399220E+03  0.81151426135E+02 0.  0.
         25    2    1    2    0    0  0.59254115182E+02  0.99286791893E+02 -0.70923804038E+02  0.18451386849E+03  0.12508502898E+03 0.  0.
         24    2    1    2    0    0  0.12638136408E+02  0.15456007515E+02  0.39858847405E+02  0.99322461985E+02  0.88755918553E+02 0.  0.
        -11    1    5    5    0    0  0.14220583745E+02 -0.79016441659E+01 -0.25303592662E+02  0.30082100727E+02  0.00000000000E+00 0.  1.
         12    1    5    5    0    0 -0.15824473370E+01  0.23357651681E+02  0.65162440067E+02  0.69240361258E+02  0.00000000000E+00 0. -1.
         11    1    3    3    0    0 -0.82198035650E+02 -0.60040842719E+02 -0.44383238261E+03  0.45535546962E+03  0.00000000000E+00 0. -1.
        -12    1    3    3    0    0  0.10305784059E+02 -0.54701956689E+02 -0.20794716532E+03  0.21526852258E+03  0.00000000000E+00 0.  1.
          5    1    4    4  501    0 -0.37215406216E+02  0.12889520237E+02 -0.77213408118E+01  0.40351179607E+02  0.41800000000E+01 0.  1.
         -5    1    4    4    0  501  0.96469521398E+02  0.86397271656E+02 -0.63202463227E+02  0.14416268888E+03  0.41800000000E+01 0.  1.
</event>
<event>
11    1  0.8453735E-009  0.5041877E+03  0.7561462E-02  0.9384212E-01
         22   -1    0    0    0    0  0.00000000000E+00  0.00000000000E+00  0.17438054103E+04  0.17438054103E+04  0.00000000000E+00 0. -1.
         22   -1    0    0    0    0 -0.00000000000E+00 -0.00000000000E+00 -0.42211252078E+03  0.42211252078E+03  0.00000000000E+00 0. -1.
        -24    2    1    2    0    0  0.15765377841E+02  0.29175162456E+03  0.11727596530E+03  0.32494199292E+03  0.80411996322E+02 0.  0.
         25    2    1    2    0    0  0.51421125609E+02 -0.72980955734E+03  0.24582718798E+03  0.78188506671E+03  0.12508848491E+03 0.  0.
         24    2    1    2    0    0 -0.67186503450E+02  0.43805793278E+03  0.95858973621E+03  0.10590908714E+04  0.79814865830E+02 0.  0.
        -11    1    5    5    0    0 -0.88152897021E+01  0.46120268575E+02  0.17245245727E+03  0.17873063118E+03  0.00000000000E+00 0.  1.
         12    1    5    5    0    0 -0.58371213748E+02  0.39193766421E+03  0.78613727894E+03  0.88036024022E+03  0.00000000000E+00 0. -1.
         11    1    3    3    0    0  0.38567797705E+02  0.16884126776E+03  0.39250295132E+02  0.17758219051E+03  0.00000000000E+00 0. -1.
        -12    1    3    3    0    0 -0.22802419864E+02  0.12291035680E+03  0.78025670164E+02  0.14735980240E+03  0.00000000000E+00 0.  1.
          5    1    4    4  501    0 -0.22140537099E+01 -0.12408397237E+03 -0.45275536008E+01  0.12425661099E+03  0.41800000000E+01 0. -1.
         -5    1    4    4    0  501  0.53635179319E+02 -0.60572558497E+03  0.25035474158E+03  0.65762845573E+03  0.41800000000E+01 0. -1.
</event>
<event>
11    1  0.8453735E-009  0.1876687E+03  0.7561462E-02  0.1063603E+00
         22   -1    0    0    0    0  0.00000000000E+00  0.00000000000E+00  0.37578583046E+03  0.37578583046E+03  0.00000000000E+00 0. -1.
         22   -1    0    0    0    0 -0.00000000000E+00 -0.00000000000E+00 -0.10005939355E+04  0.10005939355E+04  0.00000000000E+00 0.  1.
         24    2    1    2    0    0  0.19973437868E+03 -0.94809172984E-02 -0.75576515027E+03  0.78592764727E+03  0.81286421159E+02 0.  0.
         25    2    1    2    0    0 -0.65948554745E+02 -0.76113807450E+02 -0.17140611358E+03  0.23488267619E+03  0.12508913720E+03 0.  0.
        -24    2    1    2    0    0 -0.13378582393E+03  0.76123288367E+02  0.30236315880E+03  0.35556944250E+03  0.10636139772E+03 0.  0.
        -11    1    3    3    0    0  0.14769378284E+03  0.32530323994E+02 -0.47344574776E+03  0.49701363315E+03  0.00000000000E+00 0.  1.
         12    1    3    3    0    0  0.52040595835E+02 -0.32539804911E+02 -0.28231940251E+03  0.28891401412E+03  0.00000000000E+00 0. -1.
         13    1    5    5    0    0  0.15049930293E+02  0.25969793812E+02  0.46405773856E+02  0.55266865657E+02  0.00000000000E+00 0. -1.
        -14    1    5    5    0    0 -0.14883575422E+03  0.50153494555E+02  0.25595738494E+03  0.30030257684E+03  0.00000000000E+00 0.  1.
          5    1    4    4  501    0 -0.87553891659E+01 -0.44583510589E+01 -0.13614792682E+03  0.13656596981E+03  0.41800000000E+01 0. -1.
         -5    1    4    4    0  501 -0.57193165580E+02 -0.71655456391E+02 -0.35258186755E+02  0.98316706377E+02  0.41800000000E+01 0. -1.
</event>
<event>
11    1  0.8453735E-009  0.1523285E+03  0.7561462E-02  0.1094523E+00
         22   -1    0    0    0    0  0.00000000000E+00  0.00000000000E+00  0.13572926783E+03  0.13572926783E+03  0.00000000000E+00 0. -1.
         22   -1    0    0    0    0 -0.00000000000E+00 -0.00000000000E+00 -0.25049166114E+03  0.25049166114E+03  0.00000000000E+00 0.  1.
         24    2    1    2    0    0  0.83447780546E+02 -0.56925099033E+02 -0.87720746595E+02  0.15512410240E+03  0.78514704260E+02 0.  0.
         25    2    1    2    0    0 -0.40807584744E+02  0.46624670282E+02 -0.13662091572E+02  0.14026192514E+03  0.12509051142E+03 0.  0.
        -24    2    1    2    0    0 -0.42640195802E+02  0.10300428751E+02 -0.13379555146E+02  0.90834901428E+02  0.78407153315E+02 0.  0.
        -11    1    3    3    0    0  0.87559702382E+02 -0.40528896780E+02 -0.96168718948E+02  0.13622670612E+03  0.00000000000E+00 0.  1.
         12    1    3    3    0    0 -0.41119218364E+01 -0.16396202253E+02  0.84479723524E+01  0.18897396286E+02  0.00000000000E+00 0. -1.
         13    1    5    5    0    0 -0.58355137630E+02  0.11901213943E+02 -0.31024189977E+02  0.67152522996E+02  0.00000000000E+00 0. -1.
        -14    1    5    5    0    0  0.15714941828E+02 -0.16007851917E+01  0.17644634830E+02  0.23682378432E+02  0.00000000000E+00 0.  1.
          5    1    4    4  501    0 -0.39994823943E+02 -0.29629844242E+02  0.23645014609E+02  0.55263665530E+02  0.41800000000E+01 0. -1.
         -5    1    4    4    0  501 -0.81276080077E+00  0.76254514524E+02 -0.37307106181E+02  0.84998259611E+02  0.41800000000E+01 0. -1.
</event>
<event>
11    1  0.8453735E-009  0.1478409E+03  0.7561462E-02  0.1099106E+00
         22   -1    0    0    0    0  0.00000000000E+00  0.00000000000E+00  0.10732455307E+03  0.10732455307E+03  0.00000000000E+00 0. -1.
         22   -1    0    0    0    0 -0.00000000000E+00 -0.00000000000E+00 -0.25613195102E+04  0.25613195102E+04  0.00000000000E+00 0. -1.
        -24    2    1    2    0    0  0.77781480463E+02  0.10892930843E+02 -0.16577379703E+04  0.16614595568E+04  0.78638832993E+02 0.  0.
         25    2    1    2    0    0 -0.82617377234E+02  0.50254078715E+02 -0.86884728017E+03  0.88311604832E+03  0.12508898869E+03 0.  0.
         24    2    1    2    0    0  0.48358967709E+01 -0.61147009558E+02  0.72590293372E+02  0.12406845812E+03  0.79757688866E+02 0.  0.
        -11    1    5    5    0    0 -0.20371699457E+02  0.30974489458E+01 -0.39803632961E+01  0.20986748693E+02  0.00000000000E+00 0.  1.
         12    1    5    5    0    0  0.25207596228E+02 -0.64244458504E+02  0.76570656668E+02  0.10308170943E+03  0.00000000000E+00 0. -1.
         11    1    3    3    0    0  0.56795497541E+02  0.33238256591E+02 -0.14478541344E+04  0.14493488554E+04  0.00000000000E+00 0. -1.
        -12    1    3    3    0    0  0.20985982922E+02 -0.22345325747E+02 -0.20988383593E+03  0.21211070140E+03  0.00000000000E+00 0.  1.
          5    1    4    4  501    0 -0.10574276029E+03  0.10788127343E+02 -0.48487912770E+03  0.49641026976E+03  0.41800000000E+01 0.  1.
         -5    1    4    4    0  501  0.23125383053E+02  0.39465951372E+02 -0.38396815247E+03  0.38670577856E+03  0.41800000000E+01 0.  1.
</event>
<event>
11    1  0.8453735E-009  0.1325310E+03  0.7561462E-02  0.1116198E+00
         22   -1    0    0    0    0  0.00000000000E+00  0.00000000000E+00  0.44960231946E+03  0.44960231946E+03  0.00000000000E+00 0.  1.
         22   -1    0    0    0    0 -0.00000000000E+00 -0.00000000000E+00 -0.12861513053E+04  0.12861513053E+04  0.00000000000E+00 0.  1.
         24    2    1    2    0    0  0.32090337466E+02 -0.29779397574E+02 -0.12460971657E+04  0.12494677516E+04  0.80591026434E+02 0.  0.
         25    2    1    2    0    0 -0.28046028560E+02  0.34183633588E+02  0.97665940861E+02  0.16474699247E+03  0.12509130665E+03 0.  0.
        -24    2    1    2    0    0 -0.40443089057E+01 -0.44042360136E+01  0.31188223895E+03  0.32153888079E+03  0.77980556272E+02 0.  0.
        -11    1    3    3    0    0  0.56829050224E+02 -0.65289231743E+01 -0.71326964136E+03  0.71555974529E+03  0.00000000000E+00 0.  1.
         12    1    3    3    0    0 -0.24738712758E+02 -0.23250474400E+02 -0.53282752433E+03  0.53390800626E+03  0.00000000000E+00 0. -1.
         13    1    5    5    0    0 -0.60318475562E+01 -0.37360299517E+02  0.96752855072E+02  0.10389076056E+03  0.00000000000E+00 0. -1.
        -14    1    5    5    0    0  0.19875386505E+01  0.32956063503E+02  0.21512938388E+03  0.21764812023E+03  0.00000000000E+00 0.  1.
          5    1    4    4  501    0 -0.38702033138E+01 -0.41036367702E+02  0.32418895991E+01  0.41556518094E+02  0.41800000000E+01 0.  1.
         -5    1    4    4    0  501 -0.24175825247E+02  0.75220001290E+02  0.94424051262E+02  0.12319047438E+03  0.41800000000E+01 0.  1.
</event>
<event>
11    1  0.8453735E-009  0.1365628E+03  0.7561462E-02  0.1111458E+00
         22   -1    0    0    0    0  0.00000000000E+00  0.00000000000E+00  0.22390078759E+04  0.22390078759E+04  0.00000000000E+00 0. -1.
         22   -1    0    0    0    0 -0.00000000000E+00 -0.00000000000E+00 -0.84432239499E+02  0.84432239499E+02  0.00000000000E+00 0. -1.
        -24    2    1    2    0    0 -0.51864480717E+02  0.14298555884E+02 -0.25753328592E+02  0.10252997356E+03  0.83395374473E+02 0.  0.
         25    2    1    2    0    0  0.63625815626E+02  0.15246271883E+01  0.23441402965E+03  0.27321786694E+03  0.12508995410E+03 0.  0.
         24    2    1    2    0    0 -0.11761334909E+02 -0.15823183072E+02  0.19459149354E+04  0.19476922749E+04  0.80818067266E+02 0.  0.
        -13    1    5    5    0    0 -0.35746250118E+02  0.15671716356E+02  0.64848859727E+03  0.64966211054E+03  0.00000000000E+00 0.  1.
         14    1    5    5    0    0  0.23984915209E+02 -0.31494899428E+02  0.12974263381E+04  0.12980301644E+04  0.00000000000E+00 0. -1.
         13    1    3    3    0    0 -0.72044855442E+02  0.10002258940E+02 -0.34025370094E+02  0.80300885360E+02  0.00000000000E+00 0. -1.
        -14    1    3    3    0    0  0.20180374724E+02  0.42962969439E+01  0.82720415020E+01  0.22229088197E+02  0.00000000000E+00 0.  1.
          5    1    4    4  501    0  0.68806591865E+02 -0.38863633273E+02  0.21256753043E+03  0.22681965627E+03  0.41800000000E+01 0. -1.
         -5    1    4    4    0  501 -0.51807762381E+01  0.40388260462E+02  0.21846499217E+02  0.46398210672E+02  0.41800000000E+01 0. -1.
</event>
<event>
11    1  0.8453735E-009  0.2154796E+03  0.7561462E-02  0.1044087E+00
         22   -1    0    0    0    0  0.00000000000E+00  0.00000000000E+00  0.62704055093E+03  0.62704055093E+03  0.00000000000E+00 0.  1.
         22   -1    0    0    0    0 -0.00000000000E+00 -0.00000000000E+00 -0.11965879325E+04  0.11965879325E+04  0.00000000000E+00 0.  1.
         24    2    1    2    0    0  0.86404601262E+02  0.15239804382E+03 -0.11358035513E+04  0.11520232411E+04  0.80105692673E+02 0.  0.
         25    2    1    2    0    0 -0.15250656395E+03 -0.13356910765E+03  0.46602074766E+03  0.52337550119E+03  0.12509044499E+03 0.  0.
        -24    2    1    2    0    0  0.66101962693E+02 -0.18828936171E+02  0.10023542207E+03  0.14822974114E+03  0.84858223004E+02 0.  0.
        -13    1    3    3    0    0  0.92345567521E+02  0.86727098836E+02 -0.74168866455E+03  0.75243030815E+03  0.00000000000E+00 0.  1.
         14    1    3    3    0    0 -0.59409662590E+01  0.65670944983E+02 -0.39411488677E+03  0.39959293295E+03  0.00000000000E+00 0. -1.
         11    1    5    5    0    0  0.31680944940E+02 -0.30564166163E+02  0.10274345074E+03  0.11177686342E+03  0.00000000000E+00 0. -1.
        -12    1    5    5    0    0  0.34421017753E+02  0.11735229993E+02 -0.25080286740E+01  0.36452877718E+02  0.00000000000E+00 0.  1.
          5    1    4    4  501    0 -0.15718577272E+03 -0.11727404154E+03  0.31317565607E+03  0.36953623898E+03  0.41800000000E+01 0. -1.
         -5    1    4    4    0  501  0.46792087614E+01 -0.16295066103E+02  0.15284509159E+03  0.15383926221E+03  0.41800000000E+01 0. -1.
</event>
<event>
11    1  0.8453735E-009  0.1425578E+03  0.7561462E-02  0.1104735E+00
         22   -1    0    0    0    0  0.00000000000E+00  0.00000000000E+00  0.18802082660E+04  0.18802082660E+04  0.00000000000E+00 0. -1.
         22   -1    0    0    0    0 -0.00000000000E+00 -0.00000000000E+00 -0.14252931431E+04  0.14252931431E+04  0.00000000000E+00 0. -1.
         24    2    1    2    0    0  0.71306611325E+01  0.52746120345E+02 -0.13605973928E+04  0.13640901661E+04  0.81753999353E+02 0.  0.
         25    2    1    2    0    0  0.43355065984E+02 -0.97733111631E+02  0.48925365873E+02  0.17167636300E+03  0.12509060448E+03 0.  0.
        -24    2    1    2    0    0 -0.50485727117E+02  0.44986991286E+02  0.17665871498E+04  0.17697348800E+04  0.80986106153E+02 0.  0.
        -11    1    3    3    0    0 -0.51556708129E+01 -0.18022681595E+02 -0.12404512674E+03  0.12545354304E+03  0.00000000000E+00 0.  1.
         12    1    3    3    0    0  0.12286331945E+02  0.70768801940E+02 -0.12365522661E+04  0.12386366231E+04  0.00000000000E+00 0. -1.
         13    1    5    5    0    0 -0.57341156734E+02 -0.24571728608E+01  0.10130341040E+04  0.10146586331E+04  0.00000000000E+00 0. -1.
        -14    1    5    5    0    0  0.68554296171E+01  0.47444164147E+02  0.75355304584E+03  0.75507624683E+03  0.00000000000E+00 0.  1.
          5    1    4    4  501    0 -0.10120621453E+02  0.17476336234E+02  0.39109370142E+02  0.44213850089E+02  0.41800000000E+01 0. -1.
         -5    1    4    4    0  501  0.53475687437E+02 -0.11520944786E+03  0.98159957309E+01  0.12746251291E+03  0.41800000000E+01 0. -1.
</event>
<event>
11    1  0.8453735E-009  0.1709885E+03  0.7561462E-02  0.1077175E+00
         22   -1    0    0    0    0  0.00000000000E+00  0.00000000000E+00  0.45173725088E+03  0.45173725088E+03  0.00000000000E+00 0.  1.
         22   -1    0    0    0    0 -0.00000000000E+00 -0.00000000000E+00 -0.22013950962E+03  0.22013950962E+03  0.00000000000E+00 0.  1.
        -24    2    1    2    0    0 -0.11468229374E+03  0.22305620279E+02 -0.97621149478E+02  0.17514554276E+03  0.86582348837E+02 0.  0.
         25    2    1    2    0    0  0.11674389217E+03 -0.51294575945E+01  0.15444259695E+02  0.17187706213E+03  0.12509097343E+03 0.  0.
         24    2    1    2    0    0 -0.20615984322E+01 -0.17176162685E+02  0.31377463104E+03  0.32485415561E+03  0.82319090037E+02 0.  0.
        -13    1    5    5    0    0  0.29488066274E+02 -0.14946603396E+02  0.26275209383E+03  0.26482373349E+03  0.00000000000E+00 0.  1.
         14    1    5    5    0    0 -0.31549664707E+02 -0.22295592880E+01  0.51022537206E+02  0.60030422127E+02  0.00000000000E+00 0. -1.
         11    1    3    3    0    0 -0.34423957046E+01 -0.78046284621E+01  0.12903993056E+02  0.15468527739E+02  0.00000000000E+00 0. -1.
        -12    1    3    3    0    0 -0.11123989803E+03  0.30110248741E+02 -0.11052514253E+03  0.15967701502E+03  0.00000000000E+00 0.  1.
          5    1    4    4  501    0  0.69112240820E+02  0.59033575951E+02  0.12076465383E+02  0.91786591269E+02  0.41800000000E+01 0. -1.
         -5    1    4    4    0  501  0.47631651348E+02 -0.64163033546E+02  0.33677943120E+01  0.80090470859E+02  0.41800000000E+01 0. -1.
</event>
<event>
11    1  0.8453735E-009  0.1507606E+03  0.7561462E-02  0.1096104E+00
         22   -1    0    0    0    0  0.00000000000E+00  0.00000000000E+00  0.18782011013E+04  0.18782011013E+04  0.00000000000E+00 0.  1.
         22   -1    0    0    0    0 -0.00000000000E+00 -0.00000000000E+00 -0.10910761544E+03  0.10910761544E+03  0.00000000000E+00 0.  1.
        -24    2    1    2    0    0  0.23962302605E+02 -0.81913693079E+02 -0.53098918607E+02  0.12848814139E+03  0.80035381312E+02 0.  0.
         25    2    1    2    0    0 -0.22169263713E+02  0.70960504080E+02  0.29146257039E+03  0.32576868919E+03  0.12509172445E+03 0.  0.
         24    2    1    2    0    0 -0.17930388924E+01  0.10953188999E+02  0.15307298341E+04  0.15330518862E+04  0.83612638724E+02 0.  0.
        -13    1    5    5    0    0  0.24477694621E+02  0.31287027694E+02  0.12001005441E+04  0.12007578239E+04  0.00000000000E+00 0.  1.
         14    1    5    5    0    0 -0.26270733513E+02 -0.20333838696E+02  0.33062929003E+03  0.33229406233E+03  0.00000000000E+00 0. -1.
         13    1    3    3    0    0 -0.11696142520E+02 -0.30073445985E+02  0.15161880130E+02  0.35652412433E+02  0.00000000000E+00 0. -1.
        -14    1    3    3    0    0  0.35658445125E+02 -0.51840247094E+02 -0.68260798737E+02  0.92835728961E+02  0.00000000000E+00 0.  1.
          5    1    4    4  501    0 -0.23556374074E+02 -0.26198220360E+02  0.28860211653E+02  0.45734382320E+02  0.41800000000E+01 0.  1.
         -5    1    4    4    0  501  0.13871103616E+01  0.97158724441E+02  0.26260235873E+03  0.28003430687E+03  0.41800000000E+01 0.  1.
</event>
<event>
11    1  0.8453735E-009  0.1351687E+03  0.7561462E-02  0.1113077E+00
         22   -1    0    0    0    0  0.00000000000E+00  0.00000000000E+00  0.15006570361E+04  0.15006570361E+04  0.00000000000E+00 0.  1.
         22   -1    0    0    0    0 -0.00000000000E+00 -0.00000000000E+00 -0.80052831878E+02  0.80052831878E+02  0.00000000000E+00 0. -1.
        -24    2    1    2    0    0 -0.50350949558E+02 -0.23178441921E+02 -0.30664981579E+02  0.10921564893E+03  0.88967739007E+02 0.  0.
         25    2    1    2    0    0 -0.51181756437E+01 -0.47879280153E+01  0.53251144063E+03  0.54705092238E+03  0.12508859780E+03 0.  0.
         24    2    1    2    0    0  0.55469125202E+02  0.27966369936E+02  0.91875774520E+03  0.92444329670E+03  0.81367516542E+02 0.  0.
        -11    1    5    5    0    0  0.66545311562E+02  0.12567537982E+02  0.86081378103E+03  0.86347355901E+03  0.00000000000E+00 0.  1.
         12    1    5    5    0    0 -0.11076186360E+02  0.15398831955E+02  0.57943964168E+02  0.60969737685E+02  0.00000000000E+00 0. -1.
         11    1    3    3    0    0 -0.72471146622E+02 -0.16530180677E+02 -0.39871506997E+02  0.84350761918E+02  0.00000000000E+00 0. -1.
        -12    1    3    3    0    0  0.22120197064E+02 -0.66482612438E+01  0.92065254174E+01  0.24864887009E+02  0.00000000000E+00 0.  1.
          5    1    4    4  501    0 -0.27711164516E+02 -0.30061630975E+02  0.56770893803E+02  0.70085783715E+02  0.41800000000E+01 0. -1.
         -5    1    4    4    0  501  0.22592988872E+02  0.25273702960E+02  0.47574054682E+03  0.47696513866E+03  0.41800000000E+01 0. -1.
</event>
<event>
11    1  0.8453735E-009  0.1950244E+03  0.7561462E-02  0.1058099E+00
         22   -1    0    0    0    0  0.00000000000E+00  0.00000000000E+00  0.50978603891E+03  0.50978603891E+03  0.00000000000E+00 0.  1.
         22   -1    0    0    0    0 -0.00000000000E+00 -0.00000000000E+00 -0.51259400369E+03  0.51259400369E+03  0.00000000000E+00 0. -1.
        -24    2    1    2    0    0  0.19633666367E+02 -0.37627504051E+02 -0.37264118323E+03  0.38363130085E+03  0.80685894906E+02 0.  0.
         25    2    1    2    0    0 -0.40397546214E+02  0.18062828041E+03 -0.10917068873E+02  0.22366105431E+03  0.12508615990E+03 0.  0.
         24    2    1    2    0    0  0.20763879848E+02 -0.14300077636E+03  0.38075028731E+03  0.41508768744E+03  0.80291009665E+02 0.  0.
        -11    1    5    5    0    0 -0.10352216823E+02 -0.11975689438E+03  0.32979479661E+03  0.35101779159E+03  0.00000000000E+00 0.  1.
         12    1    5    5    0    0  0.31116096671E+02 -0.23243881975E+02  0.50955490707E+02  0.64069895852E+02  0.00000000000E+00 0. -1.
         13    1    3    3    0    0  0.14063652792E+01 -0.61280913230E+02 -0.25306904010E+03  0.26038676473E+03  0.00000000000E+00 0. -1.
        -14    1    3    3    0    0  0.18227301087E+02  0.23653409179E+02 -0.11957214313E+03  0.12324453612E+03  0.00000000000E+00 0.  1.
          5    1    4    4  501    0 -0.82753175318E+02  0.13211245524E+03  0.87515623920E+01  0.15619171265E+03  0.41800000000E+01 0.  1.
         -5    1    4    4    0  501  0.42355629104E+02  0.48515825165E+02 -0.19668631265E+02  0.67469341660E+02  0.41800000000E+01 0.  1.
</event>
<event>
11    1  0.8453735E-009  0.1429084E+03  0.7561462E-02  0.1104353E+00
         22   -1    0    0    0    0  0.00000000000E+00  0.00000000000E+00  0.36266215390E+03  0.36266215390E+03  0.00000000000E+00 0.  1.
         22   -1    0    0    0    0 -0.00000000000E+00 -0.00000000000E+00 -0.23152500040E+04  0.23152500040E+04  0.00000000000E+00 0. -1.
        -24    2    1    2    0    0 -0.66866225959E+02 -0.10314162763E+02 -0.18779232558E+04  0.18808399786E+04  0.79911177117E+02 0.  0.
         25    2    1    2    0    0  0.73221477139E+02  0.62104259875E+02 -0.41444478427E+03  0.44342981430E+03  0.12508875728E+03 0.  0.
         24    2    1    2    0    0 -0.63552511797E+01 -0.51790097112E+02  0.33978018998E+03  0.35364236501E+03  0.83004466477E+02 0.  0.
        -13    1    5    5    0    0 -0.16339103797E+02  0.15902464440E+02  0.15367020599E+03  0.15535246022E+03  0.00000000000E+00 0.  1.
         14    1    5    5    0    0  0.99838526176E+01 -0.67692561551E+02  0.18610998399E+03  0.19828990479E+03  0.00000000000E+00 0. -1.
         13    1    3    3    0    0 -0.84120150780E+02  0.13670227070E+00 -0.15762475585E+04  0.15784906031E+04  0.00000000000E+00 0. -1.
        -14    1    3    3    0    0  0.17253924820E+02 -0.10450865034E+02 -0.30167569727E+03  0.30234937543E+03  0.00000000000E+00 0.  1.
          5    1    4    4  501    0 -0.37571206792E+01  0.73349713026E+02 -0.14012869776E+03  0.15826503307E+03  0.41800000000E+01 0. -1.
         -5    1    4    4    0  501  0.76978597818E+02 -0.11245453151E+02 -0.27431608651E+03  0.28516478123E+03  0.41800000000E+01 0. -1.
</event>
<event>
11    1  0.8453735E-009  0.1265959E+03  0.7561462E-02  0.1123524E+00
         22   -1    0    0    0    0  0.00000000000E+00  0.00000000000E+00  0.25847840065E+04  0.25847840065E+04  0.00000000000E+00 0.  1.
         22   -1    0    0    0    0 -0.00000000000E+00 -0.00000000000E+00 -0.39524620452E+03  0.39524620452E+03  0.00000000000E+00 0. -1.
        -24    2    1    2    0    0  0.12661212923E+02 -0.76189564215E+01 -0.38634234236E+03  0.39491076706E+03  0.80472067433E+02 0.  0.
         25    2    1    2    0    0  0.76270235368E+01 -0.47962216823E+01  0.11974402286E+04  0.12039896941E+04  0.12508759762E+03 0.  0.
         24    2    1    2    0    0 -0.20288236460E+02  0.12415178104E+02  0.13784399157E+04  0.13811297498E+04  0.82807219530E+02 0.  0.
        -11    1    5    5    0    0 -0.14118566512E+02  0.39549078205E+02  0.11801473983E+04  0.11808942989E+04  0.00000000000E+00 0.  1.
         12    1    5    5    0    0 -0.61696699478E+01 -0.27133900102E+02  0.19829251739E+03  0.20023545094E+03  0.00000000000E+00 0. -1.
         11    1    3    3    0    0  0.24484760130E+02 -0.85548701058E+01 -0.38103538339E+03  0.38191707566E+03  0.00000000000E+00 0. -1.
        -12    1    3    3    0    0 -0.11823547207E+02  0.93591368428E+00 -0.53069589636E+01  0.12993691408E+02  0.00000000000E+00 0.  1.
          5    1    4    4  501    0 -0.21040886283E+02  0.54961531734E+02  0.56011341573E+03  0.56321221555E+03  0.41800000000E+01 0.  1.
         -5    1    4    4    0  501  0.28667909820E+02 -0.59757753416E+02  0.63732681292E+03  0.64077747854E+03  0.41800000000E+01 0.  1.
</event>
<event>
11    1  0.8453735E-009  0.1327783E+03  0.7561462E-02  0.1115902E+00
         22   -1    0    0    0    0  0.00000000000E+00  0.00000000000E+00  0.57158642507E+03  0.57158642507E+03  0.00000000000E+00 0. -1.
         22   -1    0    0    0    0 -0.00000000000E+00 -0.00000000000E+00 -0.26824935510E+03  0.26824935510E+03  0.00000000000E+00 0. -1.
         24    2    1    2    0    0  0.27295431399E+02  0.31377296961E+02 -0.18104004235E+03  0.20226092877E+03  0.80027564206E+02 0.  0.
         25    2    1    2    0    0 -0.42968980947E+02 -0.46331981209E+02 -0.55788472984E+01  0.14025580378E+03  0.12509029199E+03 0.  0.
        -24    2    1    2    0    0  0.15673549548E+02  0.14954684248E+02  0.48995595963E+03  0.49731904761E+03  0.82462658275E+02 0.  0.
        -13    1    3    3    0    0 -0.20133895605E+02  0.10318391941E+01 -0.10888894395E+03  0.11073951670E+03  0.00000000000E+00 0.  1.
         14    1    3    3    0    0  0.47429327004E+02  0.30345457767E+02 -0.72151098406E+02  0.91521412076E+02  0.00000000000E+00 0. -1.
         11    1    5    5    0    0 -0.99027706773E+01  0.38850723855E+02  0.37540047799E+03  0.37753537912E+03  0.00000000000E+00 0. -1.
        -12    1    5    5    0    0  0.25576320225E+02 -0.23896039607E+02  0.11455548163E+03  0.11978366849E+03  0.00000000000E+00 0.  1.
          5    1    4    4  501    0  0.44830421911E+01 -0.25503665350E+02  0.54693795633E+02  0.60658208796E+02  0.41800000000E+01 0.  1.
         -5    1    4    4    0  501 -0.47452023138E+02 -0.20828315859E+02 -0.60272642931E+02  0.79597594985E+02  0.41800000000E+01 0.  1.
</event>
<event>
11    1  0.1041856E-008  0.1879116E+03  0.7561462E-02  0.1063417E+00
         22   -1    0    0    0    0  0.00000000000E+00  0.00000000000E+00  0.19047631065E+04  0.19047631065E+04  0.00000000000E+00 0. -1.
         22   -1    0    0    0    0 -0.00000000000E+00 -0.00000000000E+00 -0.44190200493E+03  0.44190200493E+03  0.00000000000E+00 0.  1.
        -24    2    1    2    0    0 -0.42962120812E+01  0.20466629773E+02 -0.29534962776E+03  0.30703796200E+03  0.81262335176E+02 0.  0.
         25    2    1    2    0    0  0.26823305831E+02 -0.15833789014E+03 -0.61638745855E+02  0.21269054216E+03  0.12509018564E+03 0.  0.
         24    2    1    2    0    0 -0.22527093750E+02  0.13787126037E+03  0.18198494752E+04  0.18269366073E+04  0.79556899752E+02 0.  0.
        -13    1    5    5    0    0 -0.28336739022E+02  0.10404357073E+02  0.22954473098E+03  0.23152106803E+03  0.00000000000E+00 0.  1.
         14    1    5    5    0    0  0.58096452724E+01  0.12746690329E+03  0.15903047442E+04  0.15954155392E+04  0.00000000000E+00 0. -1.
         13    1    3    3    0    0 -0.23860159774E+00 -0.25365537457E+02 -0.38538988721E+02  0.46138065335E+02  0.00000000000E+00 0. -1.
        -14    1    3    3    0    0 -0.40576104835E+01  0.45832167231E+02 -0.25681063904E+03  0.26089989667E+03  0.00000000000E+00 0.  1.
          5    1    4    4  501    0  0.38476935585E+02 -0.34474288872E+01 -0.40070254818E+02  0.55816279517E+02  0.41800000000E+01 0. -1.
         -5    1    4    4    0  501 -0.11653629754E+02 -0.15489046125E+03 -0.21568491037E+02  0.15687426264E+03  0.41800000000E+01 0. -1.
</event>
<event>
11    1  0.8453735E-009  0.1380315E+03  0.7561462E-02  0.1109777E+00
         22   -1    0    0    0    0  0.00000000000E+00  0.00000000000E+00  0.15309973336E+04  0.15309973336E+04  0.00000000000E+00 0. -1.
         22   -1    0    0    0    0 -0.00000000000E+00 -0.00000000000E+00 -0.76524115721E+02  0.76524115721E+02  0.00000000000E+00 0. -1.
        -24    2    1    2    0    0  0.74354542588E+01 -0.39540606158E+02 -0.36123824108E+02  0.94062739882E+02  0.76968323684E+02 0.  0.
         25    2    1    2    0    0  0.51158285641E+02  0.16935391469E+02  0.52290050982E+03  0.54034830947E+03  0.12508946680E+03 0.  0.
         24    2    1    2    0    0 -0.58593739900E+02  0.22605214689E+02  0.96769653218E+03  0.97311039998E+03  0.81012653770E+02 0.  0.
        -11    1    5    5    0    0 -0.77257827390E+01  0.31028506882E+02  0.13173129354E+03  0.13555659208E+03  0.00000000000E+00 0.  1.
         12    1    5    5    0    0 -0.50867957161E+02 -0.84232921931E+01  0.83596523864E+03  0.83755380790E+03  0.00000000000E+00 0. -1.
         11    1    3    3    0    0 -0.25230363132E+02 -0.38203182583E+02 -0.60290152303E+00  0.45786656064E+02  0.00000000000E+00 0. -1.
        -12    1    3    3    0    0  0.32665817391E+02 -0.13374235743E+01 -0.35520922584E+02  0.48276083819E+02  0.00000000000E+00 0.  1.
          5    1    4    4  501    0  0.56122564020E+02 -0.44027446577E+02  0.34062446123E+03  0.34803829421E+03  0.41800000000E+01 0.  1.
         -5    1    4    4    0  501 -0.49642783790E+01  0.60962838045E+02  0.18227604858E+03  0.19231001526E+03  0.41800000000E+01 0.  1.
</event>
<event>
11    1  0.8453735E-009  0.1777149E+03  0.7561462E-02  0.1071506E+00
         22   -1    0    0    0    0  0.00000000000E+00  0.00000000000E+00  0.14541831553E+04  0.14541831553E+04  0.00000000000E+00 0. -1.
         22   -1    0    0    0    0 -0.00000000000E+00 -0.00000000000E+00 -0.23625876673E+03  0.23625876673E+03  0.00000000000E+00 0.  1.
         24    2    1    2    0    0  0.91057027554E+02 -0.94277567874E+02 -0.18156327853E+03  0.23852169991E+03  0.82144599012E+02 0.  0.
         25    2    1    2    0    0 -0.45577584106E+02  0.74694760071E+02  0.21506172926E+03  0.26373569643E+03  0.12509335244E+03 0.  0.
        -24    2    1    2    0    0 -0.45479443447E+02  0.19582807803E+02  0.11844259378E+04  0.11881845256E+04  0.80410190154E+02 0.  0.
        -13    1    3    3    0    0  0.89169653167E+02 -0.76537746559E+02 -0.97818247230E+02  0.15289755781E+03  0.00000000000E+00 0.  1.
         14    1    3    3    0    0  0.18873743867E+01 -0.17739821315E+02 -0.83745031303E+02  0.85624142100E+02  0.00000000000E+00 0. -1.
         13    1    5    5    0    0 -0.28749191896E+02  0.55641964489E+01  0.11155175908E+04  0.11159018647E+04  0.00000000000E+00 0. -1.
        -14    1    5    5    0    0 -0.16730251551E+02  0.14018611355E+02  0.68908346999E+02  0.72282660905E+02  0.00000000000E+00 0.  1.
          5    1    4    4  501    0  0.33297626195E+02  0.52493473685E+02  0.13693262003E+03  0.15044039191E+03  0.41800000000E+01 0.  1.
         -5    1    4    4    0  501 -0.78875210302E+02  0.22201286386E+02  0.78129109220E+02  0.11329530451E+03  0.41800000000E+01 0.  1.
</event>
<event>
11    1  0.8453735E-009  0.2157666E+03  0.7561462E-02  0.1043902E+00
         22   -1    0    0    0    0  0.00000000000E+00  0.00000000000E+00  0.52015600723E+03  0.52015600723E+03  0.00000000000E+00 0.  1.
         22   -1    0    0    0    0 -0.00000000000E+00 -0.00000000000E+00 -0.12892515591E+04  0.12892515591E+04  0.00000000000E+00 0.  1.
         24    2    1    2    0    0  0.41750811411E+01  0.33217475110E+02 -0.11722897171E+04  0.11755453155E+04  0.80763705097E+02 0.  0.
         25    2    1    2    0    0 -0.17901273340E+03 -0.31942620092E+02  0.42495125462E+02  0.22476482434E+03  0.12508997112E+03 0.  0.
        -24    2    1    2    0    0  0.17483765226E+03 -0.12748550178E+01  0.36069903977E+03  0.40909742647E+03  0.81774550733E+02 0.  0.
        -11    1    3    3    0    0 -0.12592220157E+02  0.54262561126E+02 -0.95021284191E+03  0.95184422806E+03  0.00000000000E+00 0.  1.
         12    1    3    3    0    0  0.16767301298E+02 -0.21045086016E+02 -0.22207687518E+03  0.22370108745E+03  0.00000000000E+00 0. -1.
         11    1    5    5    0    0  0.92851839835E+02  0.11345521978E+02  0.10670930309E+03  0.14190511053E+03  0.00000000000E+00 0. -1.
        -12    1    5    5    0    0  0.81985812423E+02 -0.12620376996E+02  0.25398973668E+03  0.26719231593E+03  0.00000000000E+00 0.  1.
          5    1    4    4  501    0 -0.11247387164E+03  0.42805469966E+02  0.19300243576E+02  0.12195348237E+03  0.41800000000E+01 0. -1.
         -5    1    4    4    0  501 -0.66538861761E+02 -0.74748090059E+02  0.23194881886E+02  0.10281134197E+03  0.41800000000E+01 0. -1.
</event>
<event>
11    1  0.8453735E-009  0.1306592E+03  0.7561462E-02  0.1118462E+00
         22   -1    0    0    0    0  0.00000000000E+00  0.00000000000E+00  0.87209615380E+03  0.87209615380E+03  0.00000000000E+00 0.  1.
         22   -1    0    0    0    0 -0.00000000000E+00 -0.00000000000E+00 -0.85432693724E+03  0.85432693724E+03  0.00000000000E+00 0.  1.
        -24    2    1    2    0    0  0.30360089246E+02 -0.22268795561E+02 -0.82863459522E+03  0.83339083656E+03  0.80544148093E+02 0.  0.
         25    2    1    2    0    0 -0.46855011405E+02  0.11771143338E+02  0.19673550338E+03  0.23809067315E+03  0.12509339888E+03 0.  0.
         24    2    1    2    0    0  0.16494922159E+02  0.10497652223E+02  0.64966830840E+03  0.65494158133E+03  0.80605712249E+02 0.  0.
        -13    1    5    5    0    0  0.46243163694E+02  0.67885904129E+01  0.50745478017E+03  0.50960265802E+03  0.00000000000E+00 0.  1.
         14    1    5    5    0    0 -0.29748241535E+02  0.37090618103E+01  0.14221352824E+03  0.14533892331E+03  0.00000000000E+00 0. -1.
         13    1    3    3    0    0  0.31173175331E+02  0.25468610218E+02 -0.32047605687E+03  0.32299430334E+03  0.00000000000E+00 0. -1.
        -14    1    3    3    0    0 -0.81308608459E+00 -0.47737405779E+02 -0.50815853836E+03  0.51039653322E+03  0.00000000000E+00 0.  1.
          5    1    4    4  501    0 -0.85862603526E+02  0.84816811306E+01  0.91985302456E+02  0.12618674204E+03  0.41800000000E+01 0.  1.
         -5    1    4    4    0  501  0.39007592121E+02  0.32894622072E+01  0.10475020092E+03  0.11190393111E+03  0.41800000000E+01 0.  1.
</event>
<event>
11    1  0.8453735E-009  0.1527356E+03  0.7561462E-02  0.1094116E+00
         22   -1    0    0    0    0  0.00000000000E+00  0.00000000000E+00  0.73604545694E+03  0.73604545694E+03  0.00000000000E+00 0.  1.
         22   -1    0    0    0    0 -0.00000000000E+00 -0.00000000000E+00 -0.82555115074E+02  0.82555115074E+02  0.00000000000E+00 0. -1.
        -24    2    1    2    0    0  0.49192280189E+02  0.47293461993E+02  0.60890871026E+02  0.12203167079E+03  0.80792812329E+02 0.  0.
         25    2    1    2    0    0 -0.62947852063E+02 -0.10966490693E+03  0.12430574008E+03  0.21699032572E+03  0.12507621895E+03 0.  0.
         24    2    1    2    0    0  0.13755571874E+02  0.62371444942E+02  0.46829373076E+03  0.47957857551E+03  0.81346044226E+02 0.  0.
        -13    1    5    5    0    0 -0.17392575575E+02  0.37255982898E+02  0.38482207366E+03  0.38701232322E+03  0.00000000000E+00 0.  1.
         14    1    5    5    0    0  0.31148147449E+02  0.25115462044E+02  0.83471657104E+02  0.92566252290E+02  0.00000000000E+00 0. -1.
         11    1    3    3    0    0  0.42782780804E+02  0.49553895075E+02  0.49223373000E+01  0.65651993534E+02  0.00000000000E+00 0. -1.
        -12    1    3    3    0    0  0.64094993851E+01 -0.22604330822E+01  0.55968533726E+02  0.56379677256E+02  0.00000000000E+00 0.  1.
          5    1    4    4  501    0 -0.67845753109E+02 -0.32086099187E+02  0.60467718408E+01  0.75409547311E+02  0.41800000000E+01 0. -1.
         -5    1    4    4    0  501  0.48979010460E+01 -0.77578807748E+02  0.11825896824E+03  0.14158077841E+03  0.41800000000E+01 0. -1.
</event>
<event>
11    1  0.8453735E-009  0.2530160E+03  0.7561462E-02  0.1022305E+00
         22   -1    0    0    0    0  0.00000000000E+00  0.00000000000E+00  0.11278848838E+04  0.11278848838E+04  0.00000000000E+00 0.  1.
         22   -1    0    0    0    0 -0.00000000000E+00 -0.00000000000E+00 -0.27249728931E+03  0.27249728931E+03  0.00000000000E+00 0.  1.
        -24    2    1    2    0    0  0.20155828159E+03  0.75423052316E+02 -0.15867789486E+03  0.27981616647E+03  0.82486574685E+02 0.  0.
         25    2    1    2    0    0 -0.20683378934E+03 -0.17759858515E+03  0.44274698311E+03  0.53477842029E+03  0.12506635795E+03 0.  0.
         24    2    1    2    0    0  0.52755077554E+01  0.10217553284E+03  0.57131850623E+03  0.58578758636E+03  0.79212311375E+02 0.  0.
        -13    1    5    5    0    0 -0.18908544919E+01  0.39796562407E+02  0.42101724886E+03  0.42289817397E+03  0.00000000000E+00 0.  1.
         14    1    5    5    0    0  0.71663622473E+01  0.62378970430E+02  0.15030125737E+03  0.16288941239E+03  0.00000000000E+00 0. -1.
         11    1    3    3    0    0  0.30742117364E+02 -0.17269253608E+02 -0.33562811512E+02  0.48680254897E+02  0.00000000000E+00 0. -1.
        -12    1    3    3    0    0  0.17081616422E+03  0.92692305923E+02 -0.12511508334E+03  0.23113591157E+03  0.00000000000E+00 0.  1.
          5    1    4    4  501    0 -0.20048345693E+03 -0.13301758581E+03  0.29740580032E+03  0.38256369026E+03  0.41800000000E+01 0.  1.
         -5    1    4    4    0  501 -0.63503324095E+01 -0.44580999341E+02  0.14534118279E+03  0.15221473003E+03  0.41800000000E+01 0.  1.
</event>
<event>
11    1  0.8453735E-009  0.1605832E+03  0.7561462E-02  0.1086530E+00
         22   -1    0    0    0    0  0.00000000000E+00  0.00000000000E+00  0.29625505333E+03  0.29625505333E+03  0.00000000000E+00 0.  1.
         22   -1    0    0    0    0 -0.00000000000E+00 -0.00000000000E+00 -0.78884561562E+03  0.78884561562E+03  0.00000000000E+00 0. -1.
        -24    2    1    2    0    0  0.95072346129E+02  0.47225110201E+02 -0.46899161798E+03  0.48749356412E+03  0.80174031290E+02 0.  0.
         25    2    1    2    0    0 -0.10761980066E+03  0.49601714706E+02 -0.27058634099E+03  0.32079011557E+03  0.12508788401E+03 0.  0.
         24    2    1    2    0    0  0.12547454528E+02 -0.96826824907E+02  0.24698739668E+03  0.27681698925E+03  0.78051257427E+02 0.  0.
        -13    1    5    5    0    0  0.43041625041E+02 -0.72626722647E+02  0.18870291417E+03  0.20672690232E+03  0.00000000000E+00 0.  1.
         14    1    5    5    0    0 -0.30494170514E+02 -0.24200102260E+02  0.58284482508E+02  0.70090086930E+02  0.00000000000E+00 0. -1.
         11    1    3    3    0    0  0.67292905806E+02  0.66439794164E+02 -0.28082965135E+03  0.29632393508E+03  0.00000000000E+00 0. -1.
        -12    1    3    3    0    0  0.27779440322E+02 -0.19214683963E+02 -0.18816196663E+03  0.19116962905E+03  0.00000000000E+00 0.  1.
          5    1    4    4  501    0 -0.58813480667E+02  0.35678521783E+02 -0.30502725920E+02  0.75364919646E+02  0.41800000000E+01 0.  1.
         -5    1    4    4    0  501 -0.48806319990E+02  0.13923192924E+02 -0.24008361507E+03  0.24542519593E+03  0.41800000000E+01 0.  1.
</event>
<event>
11    1  0.8453735E-009  0.1427334E+03  0.7561462E-02  0.1104544E+00
         22   -1    0    0    0    0  0.00000000000E+00  0.00000000000E+00  0.43940980556E+03  0.43940980556E+03  0.00000000000E+00 0.  1.
         22   -1    0    0    0    0 -0.00000000000E+00 -0.00000000000E+00 -0.12690127402E+04  0.12690127402E+04  0.00000000000E+00 0.  1.
         24    2    1    2    0    0 -0.65166164090E+02  0.23058033250E+02 -0.10198206231E+04  0.10250623908E+04  0.77074638561E+02 0.  0.
         25    2    1    2    0    0  0.65581730909E+02 -0.11353349782E+02 -0.22205963922E+03  0.26341556600E+03  0.12508962812E+03 0.  0.
        -24    2    1    2    0    0 -0.41556681891E+00 -0.11704683467E+02  0.41227732770E+03  0.41994458892E+03  0.79017026732E+02 0.  0.
        -11    1    3    3    0    0 -0.14383240634E+02  0.10267825995E+02 -0.74991694779E+03  0.75012514586E+03  0.00000000000E+00 0.  1.
         12    1    3    3    0    0 -0.50782923456E+02  0.12790207255E+02 -0.26990367532E+03  0.27493724496E+03  0.00000000000E+00 0. -1.
         13    1    5    5    0    0 -0.21186487908E+01 -0.35264688640E+02  0.88268268698E+02  0.95075623566E+02  0.00000000000E+00 0. -1.
        -14    1    5    5    0    0  0.17030819719E+01  0.23560005173E+02  0.32400905900E+03  0.32486896535E+03  0.00000000000E+00 0.  1.
          5    1    4    4  501    0 -0.31191706332E+02 -0.24034859627E+02 -0.37203852644E+02  0.54334115183E+02  0.41800000000E+01 0. -1.
         -5    1    4    4    0  501  0.96773437241E+02  0.12681509845E+02 -0.18485578657E+03  0.20908145082E+03  0.41800000000E+01 0. -1.
</event>
<event>
11    1  0.8821819E-009  0.1514442E+03  0.7561462E-02  0.1095412E+00
         22   -1    0    0    0    0  0.00000000000E+00  0.00000000000E+00  0.33832194609E+03  0.33832194609E+03  0.00000000000E+00 0.  1.
         22   -1    0    0    0    0 -0.00000000000E+00 -0.00000000000E+00 -0.83570139976E+03  0.83570139976E+03  0.00000000000E+00 0. -1.
         24    2    1    2    0    0 -0.16988293057E+02 -0.69843942724E+01 -0.65031149173E+03  0.65584126101E+03  0.82977945899E+02 0.  0.
         25    2    1    2    0    0 -0.69457668505E+02  0.76101169844E+01 -0.14093056097E+03  0.20097647710E+03  0.12509132559E+03 0.  0.
        -24    2    1    2    0    0  0.86445961562E+02 -0.62572271198E+00  0.29386259902E+03  0.31720560774E+03  0.82406763532E+02 0.  0.
        -13    1    3    3    0    0 -0.32813350755E+02  0.19826144126E+02 -0.15947771295E+03  0.16402113555E+03  0.00000000000E+00 0.  1.
         14    1    3    3    0    0  0.15825057699E+02 -0.26810538398E+02 -0.49083377877E+03  0.49182012546E+03  0.00000000000E+00 0. -1.
         13    1    5    5    0    0  0.27181773836E+02  0.38146257090E+02  0.14453591034E+03  0.15193622062E+03  0.00000000000E+00 0. -1.
        -14    1    5    5    0    0  0.59264187726E+02 -0.38771979802E+02  0.14932668869E+03  0.16526938712E+03  0.00000000000E+00 0.  1.
          5    1    4    4  501    0 -0.50347159629E+02  0.58503072316E+02 -0.41887112865E+02  0.87917282586E+02  0.41800000000E+01 0.  1.
         -5    1    4    4    0  501 -0.19110508876E+02 -0.50892955331E+02 -0.99043448107E+02  0.11305919452E+03  0.41800000000E+01 0.  1.
</event>
<event>
11    1  0.8453735E-009  0.2318807E+03  0.7561462E-02  0.1034020E+00
         22   -1    0    0    0    0  0.00000000000E+00  0.00000000000E+00  0.16995008078E+03  0.16995008078E+03  0.00000000000E+00 0.  1.
         22   -1    0    0    0    0 -0.00000000000E+00 -0.00000000000E+00 -0.37607570732E+04  0.37607570732E+04  0.00000000000E+00 0.  1.
        -24    2    1    2    0    0 -0.83366793823E+02 -0.17309294590E+03 -0.30183000858E+04  0.30254793452E+04  0.80490185561E+02 0.  0.
         25    2    1    2    0    0  0.59131931114E+02  0.20859619036E+03 -0.70094684381E+03  0.74430069928E+03  0.12509235468E+03 0.  0.
         24    2    1    2    0    0  0.24234862709E+02 -0.35503244460E+02  0.12843993721E+03  0.16092710949E+03  0.86907468961E+02 0.  0.
        -13    1    5    5    0    0  0.25794855023E+02 -0.46681685047E+02  0.13683421748E+03  0.14686101368E+03  0.00000000000E+00 0.  1.
         14    1    5    5    0    0 -0.15599923137E+01  0.11178440587E+02 -0.83942802770E+01  0.14066095810E+02  0.00000000000E+00 0. -1.
         11    1    3    3    0    0 -0.10841397519E+02 -0.11440584781E+03 -0.16219755953E+04  0.16260415325E+04  0.00000000000E+00 0. -1.
        -12    1    3    3    0    0 -0.72525396304E+02 -0.58687098088E+02 -0.13963244906E+04  0.13994378127E+04  0.00000000000E+00 0.  1.
          5    1    4    4  501    0  0.24476583442E+02  0.19463755006E+03 -0.45511251711E+03  0.49560846912E+03  0.41800000000E+01 0.  1.
         -5    1    4    4    0  501  0.34655347672E+02  0.13958640295E+02 -0.24583432669E+03  0.24869223016E+03  0.41800000000E+01 0.  1.
</event>
<event>
11    1  0.8453735E-009  0.1275617E+03  0.7561462E-02  0.1122302E+00
         22   -1    0    0    0    0  0.00000000000E+00  0.00000000000E+00  0.28269237323E+03  0.28269237323E+03  0.00000000000E+00 0. -1.
         22   -1    0    0    0    0 -0.00000000000E+00 -0.00000000000E+00 -0.91496919649E+03  0.91496919649E+03  0.00000000000E+00 0. -1.
        -24    2    1    2    0    0  0.17732824078E+02  0.18758866113E+02 -0.82300758889E+03  0.82732915993E+03  0.80409572744E+02 0.  0.
         25    2    1    2    0    0 -0.44129462739E+01 -0.51302152374E+01 -0.34397276825E+02  0.12990964613E+03  0.12509016868E+03 0.  0.
         24    2    1    2    0    0 -0.13319877804E+02 -0.13628650876E+02  0.22512804245E+03  0.24042276366E+03  0.82202862003E+02 0.  0.
        -13    1    5    5    0    0  0.11079297329E+02 -0.43844510333E+02  0.13152931502E+03  0.13908649333E+03  0.00000000000E+00 0.  1.
         14    1    5    5    0    0 -0.24399175133E+02  0.30215859458E+02  0.93598727426E+02  0.10133627034E+03  0.00000000000E+00 0. -1.
         13    1    3    3    0    0  0.22978410766E+02 -0.28583865969E+02 -0.38215686896E+03  0.38391264273E+03  0.00000000000E+00 0. -1.
        -14    1    3    3    0    0 -0.52455866873E+01  0.47342732082E+02 -0.44085071993E+03  0.44341651720E+03  0.00000000000E+00 0.  1.
          5    1    4    4  501    0  0.11461914591E+02 -0.60340124864E+02  0.23170122791E+01  0.61604765243E+02  0.41800000000E+01 0. -1.
         -5    1    4    4    0  501 -0.15874860865E+02  0.55209909627E+02 -0.36714289104E+02  0.68304880886E+02  0.41800000000E+01 0. -1.
</event>
<event>
11    1  0.8453735E-009  0.2143681E+03  0.7561462E-02  0.1044804E+00
         22   -1    0    0    0    0  0.00000000000E+00  0.00000000000E+00  0.90560523495E+02  0.90560523495E+02  0.00000000000E+00 0. -1.
         22   -1    0    0    0    0 -0.00000000000E+00 -0.00000000000E+00 -0.12353264918E+04  0.12353264918E+04  0.00000000000E+00 0.  1.
         24    2    1    2    0    0  0.15689998886E+03 -0.83181710830E+02 -0.96829346285E+03  0.98773698274E+03  0.80593506838E+02 0.  0.
         25    2    1    2    0    0 -0.13025666543E+03  0.78215639492E+02 -0.94074722257E+02  0.21813455972E+03  0.12509255624E+03 0.  0.
        -24    2    1    2    0    0 -0.26643323433E+02  0.49660713377E+01 -0.82397783201E+02  0.12001547284E+03  0.82944502516E+02 0.  0.
        -11    1    3    3    0    0  0.13595648909E+03 -0.93020762055E+02 -0.73169770190E+03  0.75001237060E+03  0.00000000000E+00 0.  1.
         12    1    3    3    0    0  0.20943499770E+02  0.98390512259E+01 -0.23659576096E+03  0.23772461213E+03  0.00000000000E+00 0. -1.
         13    1    5    5    0    0  0.16672365821E+02 -0.28161359009E+02 -0.31302872455E+02  0.45286860646E+02  0.00000000000E+00 0. -1.
        -14    1    5    5    0    0 -0.43315689254E+02  0.33127430346E+02 -0.51094910746E+02  0.74728612198E+02  0.00000000000E+00 0.  1.
          5    1    4    4  501    0 -0.14874197379E+00  0.43166395751E+02 -0.68263618484E+02  0.80874927232E+02  0.41800000000E+01 0. -1.
         -5    1    4    4    0  501 -0.13010792345E+03  0.35049243741E+02 -0.25811103773E+02  0.13725963249E+03  0.41800000000E+01 0. -1.
</event>
<event>
11    1  0.8453735E-009  0.1681286E+03  0.7561462E-02  0.1079672E+00
         22   -1    0    0    0    0  0.00000000000E+00  0.00000000000E+00  0.24529733645E+03  0.24529733645E+03  0.00000000000E+00 0.  1.
         22   -1    0    0    0    0 -0.00000000000E+00 -0.00000000000E+00 -0.13853082583E+04  0.13853082583E+04  0.00000000000E+00 0. -1.
         24    2    1    2    0    0 -0.16760062394E+01 -0.50412530017E+01 -0.12416939098E+04  0.12443395536E+04  0.80925495832E+02 0.  0.
         25    2    1    2    0    0 -0.70072358937E+02  0.90820501631E+02 -0.54822886255E+02  0.17835827701E+03  0.12509047573E+03 0.  0.
        -24    2    1    2    0    0  0.71748365176E+02 -0.85779248630E+02  0.15650587413E+03  0.20790776417E+03  0.78902739908E+02 0.  0.
        -11    1    3    3    0    0 -0.27570426985E+02 -0.31907925438E+02 -0.53389746492E+03  0.53556021809E+03  0.00000000000E+00 0.  1.
         12    1    3    3    0    0  0.25894420745E+02  0.26866672436E+02 -0.70779644485E+03  0.70877933552E+03  0.00000000000E+00 0. -1.
         11    1    5    5    0    0 -0.15151206366E+02 -0.10589057362E+02  0.41009204348E+02  0.44982685907E+02  0.00000000000E+00 0. -1.
        -12    1    5    5    0    0  0.86899571542E+02 -0.75190191268E+02  0.11549666978E+03  0.16292507827E+03  0.00000000000E+00 0.  1.
          5    1    4    4  501    0 -0.46158719746E+02  0.86352100540E+02  0.19603453823E+02  0.99945387478E+02  0.41800000000E+01 0. -1.
         -5    1    4    4    0  501 -0.23913639191E+02  0.44684010912E+01 -0.74426340078E+02  0.78412889534E+02  0.41800000000E+01 0. -1.
</event>
<event>
11    1  0.8453735E-009  0.1454659E+03  0.7561462E-02  0.1101604E+00
         22   -1    0    0    0    0  0.00000000000E+00  0.00000000000E+00  0.11716858532E+03  0.11716858532E+03  0.00000000000E+00 0. -1.
         22   -1    0    0    0    0 -0.00000000000E+00 -0.00000000000E+00 -0.12362594527E+04  0.12362594527E+04  0.00000000000E+00 0.  1.
        -24    2    1    2    0    0  0.30746495155E+02  0.54805173096E+02 -0.64752515458E+03  0.65545089778E+03  0.79863005351E+02 0.  0.
         25    2    1    2    0    0 -0.41274104818E+02 -0.10248280295E+03 -0.55040213038E+03  0.57514785065E+03  0.12508504446E+03 0.  0.
         24    2    1    2    0    0  0.10527609663E+02  0.47677629856E+02  0.78836417622E+02  0.12282928956E+03  0.80547294656E+02 0.  0.
        -13    1    5    5    0    0 -0.24054698368E+02 -0.10708922607E+02  0.22135171993E+02  0.34398769980E+02  0.00000000000E+00 0.  1.
         14    1    5    5    0    0  0.34582308031E+02  0.58386552462E+02  0.56701245628E+02  0.88430519579E+02  0.00000000000E+00 0. -1.
         11    1    3    3    0    0 -0.77522670787E+01  0.63387673256E+01 -0.76823784567E+01  0.12621273898E+02  0.00000000000E+00 0. -1.
        -12    1    3    3    0    0  0.38498762234E+02  0.48466405770E+02 -0.63984277612E+03  0.64282962388E+03  0.00000000000E+00 0.  1.
          5    1    4    4  501    0 -0.28923026765E+02 -0.81291705646E+02 -0.54206754778E+03  0.54890762578E+03  0.41800000000E+01 0.  1.
         -5    1    4    4    0  501 -0.12351078053E+02 -0.21191097306E+02 -0.83345826066E+01  0.26240224872E+02  0.41800000000E+01 0.  1.
</event>
<event>
11    1  0.8453735E-009  0.1460054E+03  0.7561462E-02  0.1101032E+00
         22   -1    0    0    0    0  0.00000000000E+00  0.00000000000E+00  0.40362789520E+03  0.40362789520E+03  0.00000000000E+00 0. -1.
         22   -1    0    0    0    0 -0.00000000000E+00 -0.00000000000E+00 -0.24487481864E+04  0.24487481864E+04  0.00000000000E+00 0. -1.
        -24    2    1    2    0    0 -0.23905429250E+02  0.10407530007E+02 -0.23526278884E+04  0.23541337477E+04  0.80049576352E+02 0.  0.
         25    2    1    2    0    0 -0.35270458268E+02 -0.58663684366E+02 -0.27928536134E+02  0.14530745772E+03  0.12509524790E+03 0.  0.
         24    2    1    2    0    0  0.59175887518E+02  0.48256154359E+02  0.33543613327E+03  0.35293487622E+03  0.78836446216E+02 0.  0.
        -11    1    5    5    0    0  0.13436808842E+02  0.44439521993E+02  0.72979952295E+02  0.86495620604E+02  0.00000000000E+00 0.  1.
         12    1    5    5    0    0  0.45739078675E+02  0.38166323665E+01  0.26245618097E+03  0.26643925561E+03  0.00000000000E+00 0. -1.
         13    1    3    3    0    0 -0.41641026638E+02  0.49448016851E+01 -0.21974584323E+04  0.21978585004E+04  0.00000000000E+00 0. -1.
        -14    1    3    3    0    0  0.17735597388E+02  0.54627283217E+01 -0.15516945612E+03  0.15627524733E+03  0.00000000000E+00 0.  1.
          5    1    4    4  501    0 -0.63944127338E+02 -0.22166220434E+01 -0.46488383033E+02  0.79198528972E+02  0.41800000000E+01 0. -1.
         -5    1    4    4    0  501  0.28673669071E+02 -0.56447062323E+02  0.18559846899E+02  0.66108928744E+02  0.41800000000E+01 0. -1.
</event>
<event>
11    1  0.8453735E-009  0.3022086E+03  0.7561462E-02  0.9992608E-01
         22   -1    0    0    0    0  0.00000000000E+00  0.00000000000E+00  0.34541503257E+04  0.34541503257E+04  0.00000000000E+00 0. -1.
         22   -1    0    0    0    0 -0.00000000000E+00 -0.00000000000E+00 -0.62318714015E+03  0.62318714015E+03  0.00000000000E+00 0.  1.
         24    2    1    2    0    0  0.18585890132E+03  0.23702118709E+02 -0.47582721400E+03  0.51762172870E+03  0.80096159792E+02 0.  0.
         25    2    1    2    0    0 -0.38647760519E+03  0.15509529454E+03  0.27386326739E+03  0.51387559883E+03  0.12509017606E+03 0.  0.
        -24    2    1    2    0    0  0.20061870387E+03 -0.17879741325E+03  0.30329271322E+04  0.30458401384E+04  0.79238752167E+02 0.  0.
        -11    1    3    3    0    0  0.95295337095E+02  0.28349058531E+02 -0.34051655694E+03  0.35473426102E+03  0.00000000000E+00 0.  1.
         12    1    3    3    0    0  0.90563564221E+02 -0.46469398218E+01 -0.13531065706E+03  0.16288746768E+03  0.00000000000E+00 0. -1.
         11    1    5    5    0    0  0.12598765440E+03 -0.10007617894E+03  0.22005855239E+04  0.22064597840E+04  0.00000000000E+00 0. -1.
        -12    1    5    5    0    0  0.74631049474E+02 -0.78721234309E+02  0.83234160834E+03  0.83938035434E+03  0.00000000000E+00 0.  1.
          5    1    4    4  501    0 -0.37625830320E+03  0.11622689399E+03  0.24028731269E+03  0.46133986025E+03  0.41800000000E+01 0.  1.
         -5    1    4    4    0  501 -0.10219301989E+02  0.38868400550E+02  0.33575954695E+02  0.52535738580E+02  0.41800000000E+01 0.  1.
</event>
<event>
11    1  0.8453735E-009  0.5821103E+03  0.7561462E-02  0.9226710E-01
         22   -1    0    0    0    0  0.00000000000E+00  0.00000000000E+00  0.21541047443E+03  0.21541047443E+03  0.00000000000E+00 0.  1.
         22   -1    0    0    0    0 -0.00000000000E+00 -0.00000000000E+00 -0.39326358336E+03  0.39326358336E+03  0.00000000000E+00 0.  1.
         24    2    1    2    0    0  0.99844303505E+01  0.21210516429E+03 -0.10884148634E+03  0.25237938293E+03  0.82222832658E+02 0.  0.
         25    2    1    2    0    0 -0.10175260618E+02 -0.23355153030E+03 -0.39763027419E+02  0.26810223140E+03  0.12509138617E+03 0.  0.
        -24    2    1    2    0    0  0.19083026704E+00  0.21446366010E+02 -0.29248595175E+02  0.88192443461E+02  0.80389325987E+02 0.  0.
        -11    1    3    3    0    0 -0.27871590616E+02  0.15884912542E+03 -0.88413785832E+02  0.18392081920E+03  0.00000000000E+00 0.  1.
         12    1    3    3    0    0  0.37856020967E+02  0.53256038872E+02 -0.20427700509E+02  0.68458563729E+02  0.00000000000E+00 0. -1.
         11    1    5    5    0    0 -0.37668915645E+02  0.10552325950E+02  0.11598235115E-01  0.39119035307E+02  0.00000000000E+00 0. -1.
        -12    1    5    5    0    0  0.37859745912E+02  0.10894040060E+02 -0.29260193411E+02  0.49073408153E+02  0.00000000000E+00 0.  1.
          5    1    4    4  501    0 -0.57848444962E+02 -0.18343530098E+03 -0.98845590871E+01  0.19263989499E+03  0.41800000000E+01 0. -1.
         -5    1    4    4    0  501  0.47673184345E+02 -0.50116229318E+02 -0.29878468332E+02  0.75462336410E+02  0.41800000000E+01 0. -1.
</event>
<event>
11    1  0.8453735E-009  0.1506634E+03  0.7561462E-02  0.1096203E+00
         22   -1    0    0    0    0  0.00000000000E+00  0.00000000000E+00  0.13692874357E+04  0.13692874357E+04  0.00000000000E+00 0.  1.
         22   -1    0    0    0    0 -0.00000000000E+00 -0.00000000000E+00 -0.16739189579E+03  0.16739189579E+03  0.00000000000E+00 0.  1.
         24    2    1    2    0    0  0.83687395614E+02  0.12355754602E+01 -0.13197415363E+03  0.17490701209E+03  0.78550485800E+02 0.  0.
         25    2    1    2    0    0 -0.91094347968E+02  0.16578703327E+02  0.49973135220E+03  0.52340236799E+03  0.12508229615E+03 0.  0.
        -24    2    1    2    0    0  0.74069523547E+01 -0.17814278787E+02  0.83413834132E+03  0.83836995140E+03  0.81885233546E+02 0.  0.
        -13    1    3    3    0    0  0.30431101198E+02  0.18577584358E+02 -0.10844700664E+03  0.11415748688E+03  0.00000000000E+00 0.  1.
         14    1    3    3    0    0  0.53256294416E+02 -0.17342008898E+02 -0.23527146985E+02  0.60749525206E+02  0.00000000000E+00 0. -1.
         13    1    5    5    0    0 -0.50410889399E+01  0.78844911334E+01  0.98485672463E+01  0.13585729827E+02  0.00000000000E+00 0. -1.
        -14    1    5    5    0    0  0.12448041295E+02 -0.25698769920E+02  0.82428977407E+03  0.82478422157E+03  0.00000000000E+00 0.  1.
          5    1    4    4  501    0 -0.62265286672E+02  0.32516339711E+02  0.99905721353E+02  0.12220026118E+03  0.41800000000E+01 0. -1.
         -5    1    4    4    0  501 -0.28829061296E+02 -0.15937636385E+02  0.39982563085E+03  0.40120210682E+03  0.41800000000E+01 0. -1.
</event>
<event>
11    1  0.8453735E-009  0.1661457E+03  0.7561462E-02  0.1081435E+00
         22   -1    0    0    0    0  0.00000000000E+00  0.00000000000E+00  0.12066450316E+04  0.12066450316E+04  0.00000000000E+00 0. -1.
         22   -1    0    0    0    0 -0.00000000000E+00 -0.00000000000E+00 -0.70453862827E+03  0.70453862827E+03  0.00000000000E+00 0. -1.
         24    2    1    2    0    0 -0.21024708686E+02  0.93748480114E+01 -0.63549336098E+03  0.64096493125E+03  0.80338689905E+02 0.  0.
         25    2    1    2    0    0 -0.55965918451E+02  0.70144114054E+02  0.33166534212E+02  0.15748020717E+03  0.12509043087E+03 0.  0.
        -24    2    1    2    0    0  0.76990627137E+02 -0.79518962066E+02  0.11044332301E+04  0.11127385214E+04  0.78507549751E+02 0.  0.
        -11    1    3    3    0    0  0.27824150717E+02 -0.65263285986E+01 -0.14506971255E+03  0.14785803268E+03  0.00000000000E+00 0.  1.
         12    1    3    3    0    0 -0.48848859403E+02  0.15901176610E+02 -0.49042364843E+03  0.49310689858E+03  0.00000000000E+00 0. -1.
         11    1    5    5    0    0  0.86810465319E+02 -0.65226629166E+02  0.10502447771E+04  0.10558431047E+04  0.00000000000E+00 0. -1.
        -12    1    5    5    0    0 -0.98198381818E+01 -0.14292332900E+02  0.54188453015E+02  0.56895416702E+02  0.00000000000E+00 0.  1.
          5    1    4    4  501    0  0.16390644069E+02 -0.13607536421E+02 -0.24396651810E+02  0.32657116835E+02  0.41800000000E+01 0.  1.
         -5    1    4    4    0  501 -0.72356562520E+02  0.83751650475E+02  0.57563186021E+02  0.12482309034E+03  0.41800000000E+01 0.  1.
</event>
<event>
11    1  0.8453735E-009  0.1950470E+03  0.7561462E-02  0.1058082E+00
         22   -1    0    0    0    0  0.00000000000E+00  0.00000000000E+00  0.13309548747E+03  0.13309548747E+03  0.00000000000E+00 0.  1.
         22   -1    0    0    0    0 -0.00000000000E+00 -0.00000000000E+00 -0.31536097829E+04  0.31536097829E+04  0.00000000000E+00 0.  1.
        -24    2    1    2    0    0 -0.41844576754E+02  0.99975858743E+02 -0.24934643974E+04  0.24971364340E+04  0.81114289651E+02 0.  0.
         25    2    1    2    0    0 -0.86055482183E+02 -0.17423511552E+03 -0.57081356803E+03  0.61582334571E+03  0.12508733821E+03 0.  0.
         24    2    1    2    0    0  0.12790005894E+03  0.74259256780E+02  0.43763669945E+02  0.17374549072E+03  0.79996090175E+02 0.  0.
        -11    1    5    5    0    0  0.12416179450E+03  0.81236087257E+02  0.56483946956E+02  0.15876362729E+03  0.00000000000E+00 0.  1.
         12    1    5    5    0    0  0.37382644374E+01 -0.69768304773E+01 -0.12720277010E+02  0.14981863427E+02  0.00000000000E+00 0. -1.
         11    1    3    3    0    0  0.17421622931E+02  0.11207995513E+02 -0.17591355234E+03  0.17712907725E+03  0.00000000000E+00 0. -1.
        -12    1    3    3    0    0 -0.59266199685E+02  0.88767863230E+02 -0.23175508450E+04  0.23200073567E+04  0.00000000000E+00 0.  1.
          5    1    4    4  501    0 -0.10922991040E+03 -0.12542629886E+03 -0.49799867033E+03  0.52505530930E+03  0.41800000000E+01 0. -1.
         -5    1    4    4    0  501  0.23174428216E+02 -0.48808816663E+02 -0.72814897700E+02  0.90768036413E+02  0.41800000000E+01 0. -1.
</event>
<event>
11    1  0.8453735E-009  0.4307969E+03  0.7561462E-02  0.9563020E-01
         22   -1    0    0    0    0  0.00000000000E+00  0.00000000000E+00  0.22819204413E+04  0.22819204413E+04  0.00000000000E+00 0. -1.
         22   -1    0    0    0    0 -0.00000000000E+00 -0.00000000000E+00 -0.44728373901E+03  0.44728373901E+03  0.00000000000E+00 0. -1.
        -24    2    1    2    0    0  0.25648558930E+02 -0.10196186178E+02 -0.15783073853E+03  0.17914360689E+03  0.80125395936E+02 0.  0.
         25    2    1    2    0    0  0.34858085974E+03  0.18645602913E+03 -0.90922906220E+02  0.42448590707E+03  0.12508734488E+03 0.  0.
         24    2    1    2    0    0 -0.37422941867E+03 -0.17625984296E+03  0.20833903471E+04  0.21255746664E+04  0.80231752125E+02 0.  0.
        -13    1    5    5    0    0 -0.24471967967E+02  0.75978475163E+01  0.10209687241E+03  0.10526336428E+03  0.00000000000E+00 0.  1.
         14    1    5    5    0    0 -0.34975745070E+03 -0.18385769047E+03  0.19812934747E+04  0.20203113021E+04  0.00000000000E+00 0. -1.
         11    1    3    3    0    0  0.16138254890E+02 -0.13092003597E+02 -0.16536759998E+03  0.16666819419E+03  0.00000000000E+00 0. -1.
        -12    1    3    3    0    0  0.95103040397E+01  0.28958174192E+01  0.75368614505E+01  0.12475412698E+02  0.00000000000E+00 0.  1.
          5    1    4    4  501    0  0.32071220104E+03  0.18459079201E+03 -0.48083748014E+02  0.37317502009E+03  0.41800000000E+01 0. -1.
         -5    1    4    4    0  501  0.27868658697E+02  0.18652371193E+01 -0.42839158206E+02  0.51310886982E+02  0.41800000000E+01 0. -1.
</event>
<event>
11    1  0.8453735E-009  0.2460152E+03  0.7561462E-02  0.1026044E+00
         22   -1    0    0    0    0  0.00000000000E+00  0.00000000000E+00  0.95816821230E+03  0.95816821230E+03  0.00000000000E+00 0. -1.
         22   -1    0    0    0    0 -0.00000000000E+00 -0.00000000000E+00 -0.13500617845E+03  0.13500617845E+03  0.00000000000E+00 0.  1.
        -24    2    1    2    0    0  0.86669909070E+02 -0.14085503948E+03  0.92843952080E+02  0.20630827405E+03  0.81186755185E+02 0.  0.
         25    2    1    2    0    0  0.52228606537E+02  0.26608414161E+03  0.45580025928E+03  0.54491301406E+03  0.12509084206E+03 0.  0.
         24    2    1    2    0    0 -0.13889851561E+03 -0.12522910214E+03  0.27451782249E+03  0.34195310265E+03  0.81220464704E+02 0.  0.
        -13    1    5    5    0    0 -0.24404626916E+02  0.93013634154E+01  0.48537372992E+02  0.55117853308E+02  0.00000000000E+00 0.  1.
         14    1    5    5    0    0 -0.11449388869E+03 -0.13453046555E+03  0.22598044950E+03  0.28683524934E+03  0.00000000000E+00 0. -1.
         13    1    3    3    0    0  0.36540676932E+02 -0.56922921490E+02 -0.52131964271E+01  0.67842593395E+02  0.00000000000E+00 0. -1.
        -14    1    3    3    0    0  0.50129232138E+02 -0.83932117987E+02  0.98057148507E+02  0.13846568065E+03  0.00000000000E+00 0.  1.
          5    1    4    4  501    0  0.41788402401E+02  0.70432649909E+02  0.23894757835E+03  0.25262708950E+03  0.41800000000E+01 0.  1.
         -5    1    4    4    0  501  0.10440204136E+02  0.19565149170E+03  0.21685268093E+03  0.29228592456E+03  0.41800000000E+01 0.  1.
</event>
<event>
11    1  0.8453735E-009  0.1303932E+03  0.7561462E-02  0.1118787E+00
         22   -1    0    0    0    0  0.00000000000E+00  0.00000000000E+00  0.31299453564E+03  0.31299453564E+03  0.00000000000E+00 0. -1.
         22   -1    0    0    0    0 -0.00000000000E+00 -0.00000000000E+00 -0.58605135474E+03  0.58605135474E+03  0.00000000000E+00 0. -1.
         24    2    1    2    0    0  0.36263590597E+02 -0.18215263048E+02 -0.51756046490E+03  0.52258376618E+03  0.59817338858E+02 0.  0.
         25    2    1    2    0    0 -0.40609042139E+01  0.40300400308E+02  0.18275863661E+02  0.13276319568E+03  0.12510573818E+03 0.  0.
        -24    2    1    2    0    0 -0.32202686383E+02 -0.22085137260E+02  0.22622778214E+03  0.24369892852E+03  0.81764246807E+02 0.  0.
        -13    1    3    3    0    0  0.15137223163E+02  0.37674825366E+01 -0.27817417349E+02  0.31892603495E+02  0.00000000000E+00 0.  1.
         14    1    3    3    0    0  0.21126367435E+02 -0.21982745585E+02 -0.48974304755E+03  0.49069116268E+03  0.00000000000E+00 0. -1.
         11    1    5    5    0    0 -0.32673379142E+02 -0.32045180388E+02  0.22885613481E+03  0.23338717559E+03  0.00000000000E+00 0. -1.
        -12    1    5    5    0    0  0.47069275891E+00  0.99600431278E+01 -0.26283526736E+01  0.10311752933E+02  0.00000000000E+00 0.  1.
          5    1    4    4  501    0  0.37609269513E+02 -0.12688864242E+02 -0.29842483245E+02  0.49834833554E+02  0.41800000000E+01 0. -1.
         -5    1    4    4    0  501 -0.41670173727E+02  0.52989264550E+02  0.48118346906E+02  0.82928362127E+02  0.41800000000E+01 0. -1.
</event>
<event>
11    1  0.8453735E-009  0.1352067E+03  0.7561462E-02  0.1113032E+00
         22   -1    0    0    0    0  0.00000000000E+00  0.00000000000E+00  0.15074587123E+04  0.15074587123E+04  0.00000000000E+00 0.  1.
         22   -1    0    0    0    0 -0.00000000000E+00 -0.00000000000E+00 -0.10541563942E+04  0.10541563942E+04  0.00000000000E+00 0.  1.
        -24    2    1    2    0    0  0.17364303664E+02 -0.13596272112E+02 -0.98409158345E+03  0.98751530469E+03  0.79144518002E+02 0.  0.
         25    2    1    2    0    0  0.20451652855E+02 -0.21806462962E+02 -0.49462132871E+01  0.12870994232E+03  0.12509193537E+03 0.  0.
         24    2    1    2    0    0 -0.37815956519E+02  0.35402735075E+02  0.14423401148E+04  0.14453898595E+04  0.78252405943E+02 0.  0.
        -13    1    5    5    0    0 -0.26677001884E+02  0.49994705442E+02  0.13528481494E+04  0.13540344340E+04  0.00000000000E+00 0.  1.
         14    1    5    5    0    0 -0.11138954636E+02 -0.14591970367E+02  0.89491965361E+02  0.91355425530E+02  0.00000000000E+00 0. -1.
         13    1    3    3    0    0  0.63550679280E+01 -0.45250824297E+02 -0.43268954351E+03  0.43509569643E+03  0.00000000000E+00 0. -1.
        -14    1    3    3    0    0  0.11009235736E+02  0.31654552184E+02 -0.55140203994E+03  0.55241960826E+03  0.00000000000E+00 0.  1.
          5    1    4    4  501    0  0.26985410100E+02  0.45103727715E+02  0.20687140775E+02  0.56639110211E+02  0.41800000000E+01 0. -1.
         -5    1    4    4    0  501 -0.65337572450E+01 -0.66910190677E+02 -0.25633354062E+02  0.72070832108E+02  0.41800000000E+01 0. -1.
</event>
<event>
11    1  0.8453735E-009  0.1034691E+04  0.7561462E-02  0.8646701E-01
         22   -1    0    0    0    0  0.00000000000E+00  0.00000000000E+00  0.13363760695E+04  0.13363760695E+04  0.00000000000E+00 0.  1.
         22   -1    0    0    0    0 -0.00000000000E+00 -0.00000000000E+00 -0.12708110035E+04  0.12708110035E+04  0.00000000000E+00 0.  1.
        -24    2    1    2    0    0  0.62816223960E+03 -0.80441317531E+03 -0.68384299292E+03  0.12311776960E+04  0.80553859187E+02 0.  0.
         25    2    1    2    0    0 -0.64023920083E+03  0.83128129621E+03  0.63619125376E+03  0.12334191114E+04  0.12509422561E+03 0.  0.
         24    2    1    2    0    0  0.12076961225E+02 -0.26868120904E+02  0.11321680521E+03  0.14259026561E+03  0.81524167908E+02 0.  0.
        -11    1    5    5    0    0  0.15437386640E+02 -0.21402073538E+02 -0.26723372904E+01  0.26523631814E+02  0.00000000000E+00 0.  1.
         12    1    5    5    0    0 -0.33604254152E+01 -0.54660473661E+01  0.11588914250E+03  0.11606663380E+03  0.00000000000E+00 0. -1.
         11    1    3    3    0    0  0.19468068236E+03 -0.21019529355E+03 -0.15972706360E+03  0.32801732326E+03  0.00000000000E+00 0. -1.
        -12    1    3    3    0    0  0.43348155724E+03 -0.59421788176E+03 -0.52411592932E+03  0.90316037271E+03  0.00000000000E+00 0.  1.
          5    1    4    4  501    0 -0.94378460678E+02  0.68067447196E+02  0.94414966401E+02  0.14990706951E+03  0.41800000000E+01 0.  1.
         -5    1    4    4    0  501 -0.54586074015E+03  0.76321384902E+03  0.54177628736E+03  0.10835120419E+04  0.41800000000E+01 0.  1.
</event>
<event>
11    1  0.8453735E-009  0.1541463E+03  0.7561462E-02  0.1092716E+00
         22   -1    0    0    0    0  0.00000000000E+00  0.00000000000E+00  0.22587639551E+03  0.22587639551E+03  0.00000000000E+00 0.  1.
         22   -1    0    0    0    0 -0.00000000000E+00 -0.00000000000E+00 -0.46483393772E+03  0.46483393772E+03  0.00000000000E+00 0.  1.
        -24    2    1    2    0    0  0.74186088668E+02  0.31123504721E+02 -0.28197756303E+03  0.30414938869E+03  0.80766678089E+02 0.  0.
         25    2    1    2    0    0  0.16990754919E+01 -0.88057031356E+02 -0.11051937141E+03  0.18873172334E+03  0.12509278280E+03 0.  0.
         24    2    1    2    0    0 -0.75885164160E+02  0.56933526635E+02  0.15353939223E+03  0.19782922120E+03  0.81006612084E+02 0.  0.
        -13    1    5    5    0    0 -0.29361209456E+01  0.14090524460E+02  0.92238921624E+02  0.93355140983E+02  0.00000000000E+00 0.  1.
         14    1    5    5    0    0 -0.72949043214E+02  0.42843002175E+02  0.61300470602E+02  0.10447408022E+03  0.00000000000E+00 0. -1.
         11    1    3    3    0    0  0.17628675561E+02 -0.76350128894E+01 -0.65203801303E+01  0.20287409418E+02  0.00000000000E+00 0. -1.
        -12    1    3    3    0    0  0.56557413107E+02  0.38758517610E+02 -0.27545718290E+03  0.28386197927E+03  0.00000000000E+00 0.  1.
          5    1    4    4  501    0  0.14856708792E+02  0.47879049267E+01 -0.91554114351E+02  0.92969210410E+02  0.41800000000E+01 0.  1.
         -5    1    4    4    0  501 -0.13157633300E+02 -0.92844936283E+02 -0.18965257060E+02  0.95762512930E+02  0.41800000000E+01 0.  1.
</event>
<event>
11    1  0.2773015E-008  0.1495774E+03  0.7561462E-02  0.1097311E+00
         22   -1    0    0    0    0  0.00000000000E+00  0.00000000000E+00  0.39135036550E+03  0.39135036550E+03  0.00000000000E+00 0. -1.
         22   -1    0    0    0    0 -0.00000000000E+00 -0.00000000000E+00 -0.83623017089E+03  0.83623017089E+03  0.00000000000E+00 0.  1.
        -24    2    1    2    0    0 -0.76502978303E+02 -0.19307773462E+02 -0.51943558464E+03  0.53141674254E+03  0.79780522998E+02 0.  0.
         25    2    1    2    0    0  0.14580434715E+03 -0.21080036110E+02 -0.26995471592E+03  0.33200337549E+03  0.12508963633E+03 0.  0.
         24    2    1    2    0    0 -0.69301368846E+02  0.40387809572E+02  0.34451049518E+03  0.36416041837E+03  0.86553302257E+02 0.  0.
        -13    1    5    5    0    0  0.51106793277E+01 -0.12722886170E+02  0.89604697007E+01  0.16379282430E+02  0.00000000000E+00 0.  1.
         14    1    5    5    0    0 -0.74412048174E+02  0.53110695742E+02  0.33555002548E+03  0.34778113594E+03  0.00000000000E+00 0. -1.
         11    1    3    3    0    0  0.70345222465E+01 -0.11897529240E+02 -0.16442561759E+02  0.21480073148E+02  0.00000000000E+00 0. -1.
        -12    1    3    3    0    0 -0.83537500550E+02 -0.74102442221E+01 -0.50299302288E+03  0.50993666939E+03  0.00000000000E+00 0.  1.
          5    1    4    4  501    0 -0.12664552082E+02  0.11178025002E+02 -0.13332301078E+00  0.17401991191E+02  0.41800000000E+01 0. -1.
         -5    1    4    4    0  501  0.15846889923E+03 -0.32258061112E+02 -0.26982139291E+03  0.31460138430E+03  0.41800000000E+01 0. -1.
</event>
<event>
11    1  0.8453735E-009  0.1278875E+03  0.7561462E-02  0.1121892E+00
         22   -1    0    0    0    0  0.00000000000E+00  0.00000000000E+00  0.53683834412E+02  0.53683834412E+02  0.00000000000E+00 0. -1.
         22   -1    0    0    0    0 -0.00000000000E+00 -0.00000000000E+00 -0.13341214152E+04  0.13341214152E+04  0.00000000000E+00 0.  1.
        -24    2    1    2    0    0  0.97624042771E+01  0.18955431344E+02 -0.85854815307E+03  0.86246111560E+03  0.79244128287E+02 0.  0.
         25    2    1    2    0    0  0.16766582759E+02 -0.24374733257E+02 -0.42031979111E+03  0.43953495953E+03  0.12508800075E+03 0.  0.
         24    2    1    2    0    0 -0.26528987036E+02  0.54193019135E+01 -0.15696366196E+01  0.85809174493E+02  0.81410040423E+02 0.  0.
        -13    1    5    5    0    0 -0.22615328955E+02 -0.26225099229E+02 -0.27889658477E+02  0.44463940259E+02  0.00000000000E+00 0.  1.
         14    1    5    5    0    0 -0.39136580805E+01  0.31644401143E+02  0.26320021858E+02  0.41345234234E+02  0.00000000000E+00 0. -1.
         11    1    3    3    0    0  0.23645463128E+02  0.37322883398E+01 -0.76860995894E+02  0.80502488114E+02  0.00000000000E+00 0. -1.
        -12    1    3    3    0    0 -0.13883058851E+02  0.15223143004E+02 -0.78168715718E+03  0.78195862749E+03  0.00000000000E+00 0.  1.
          5    1    4    4  501    0 -0.24107010468E+01 -0.70353814933E+02 -0.31708648702E+03  0.32483347027E+03  0.41800000000E+01 0. -1.
         -5    1    4    4    0  501  0.19177283806E+02  0.45979081676E+02 -0.10323330409E+03  0.11470148927E+03  0.41800000000E+01 0. -1.
</event>
<event>
11    1  0.8453735E-009  0.1643844E+03  0.7561462E-02  0.1083025E+00
         22   -1    0    0    0    0  0.00000000000E+00  0.00000000000E+00  0.63284923295E+03  0.63284923295E+03  0.00000000000E+00 0.  1.
         22   -1    0    0    0    0 -0.00000000000E+00 -0.00000000000E+00 -0.62263739433E+03  0.62263739433E+03  0.00000000000E+00 0.  1.
        -24    2    1    2    0    0 -0.68249494915E+01 -0.10309449310E+03 -0.50169258934E+03  0.51761184838E+03  0.74508502437E+02 0.  0.
         25    2    1    2    0    0  0.40519327306E+01  0.14052825080E+03 -0.28345058996E+02  0.19030654049E+03  0.12509408280E+03 0.  0.
         24    2    1    2    0    0  0.27730167608E+01 -0.37433757703E+02  0.54024948697E+03  0.54756823841E+03  0.80947462689E+02 0.  0.
        -13    1    5    5    0    0  0.76939842983E+01 -0.60369280583E+02  0.45845292339E+03  0.46247457271E+03  0.00000000000E+00 0.  1.
         14    1    5    5    0    0 -0.49209675374E+01  0.22935522880E+02  0.81796563574E+02  0.85093665709E+02  0.00000000000E+00 0. -1.
         11    1    3    3    0    0 -0.15716676144E+02  0.31904790855E+01 -0.12786880550E+03  0.12887057261E+03  0.00000000000E+00 0. -1.
        -12    1    3    3    0    0  0.88917266530E+01 -0.10628497218E+03 -0.37382378385E+03  0.38874127577E+03  0.00000000000E+00 0.  1.
          5    1    4    4  501    0 -0.28327876334E+02  0.14895370576E+03 -0.35631744988E+02  0.15581004039E+03  0.41800000000E+01 0.  1.
         -5    1    4    4    0  501  0.32379809064E+02 -0.84254549541E+01  0.72866859923E+01  0.34496500097E+02  0.41800000000E+01 0.  1.
</event>
<event>
11    1  0.8453735E-009  0.1363793E+03  0.7561462E-02  0.1111670E+00
         22   -1    0    0    0    0  0.00000000000E+00  0.00000000000E+00  0.66416105501E+03  0.66416105501E+03  0.00000000000E+00 0.  1.
         22   -1    0    0    0    0 -0.00000000000E+00 -0.00000000000E+00 -0.18184858346E+03  0.18184858346E+03  0.00000000000E+00 0.  1.
        -24    2    1    2    0    0  0.10638166616E+02 -0.47201636980E+02 -0.79443370262E+02  0.12621501191E+03  0.85310110945E+02 0.  0.
         25    2    1    2    0    0  0.29414386325E+02  0.81958522854E+02  0.30305094092E+01  0.15244381868E+03  0.12509008064E+03 0.  0.
         24    2    1    2    0    0 -0.40052552941E+02 -0.34756885874E+02  0.55872533240E+03  0.56735080788E+03  0.83070416081E+02 0.  0.
        -11    1    5    5    0    0 -0.60490140943E+02 -0.31395161247E+02  0.29309794599E+03  0.30091713019E+03  0.00000000000E+00 0.  1.
         12    1    5    5    0    0  0.20437588001E+02 -0.33617246264E+01  0.26562738641E+03  0.26643367769E+03  0.00000000000E+00 0. -1.
         13    1    3    3    0    0  0.25098757568E+02 -0.47506692415E+02 -0.92163402602E+01  0.54513983375E+02  0.00000000000E+00 0. -1.
        -14    1    3    3    0    0 -0.14460590952E+02  0.30505543497E+00 -0.70227030002E+02  0.71701028531E+02  0.00000000000E+00 0.  1.
          5    1    4    4  501    0  0.64859428691E+02  0.93486087096E+02 -0.54558114423E+01  0.11398961465E+03  0.41800000000E+01 0.  1.
         -5    1    4    4    0  501 -0.35445042366E+02 -0.11527564242E+02  0.84863208514E+01  0.38454204026E+02  0.41800000000E+01 0.  1.
</event>
<event>
11    1  0.8453735E-009  0.2082660E+03  0.7561462E-02  0.1048827E+00
         22   -1    0    0    0    0  0.00000000000E+00  0.00000000000E+00  0.44777119828E+02  0.44777119828E+02  0.00000000000E+00 0.  1.
         22   -1    0    0    0    0 -0.00000000000E+00 -0.00000000000E+00 -0.20858662185E+04  0.20858662185E+04  0.00000000000E+00 0.  1.
        -24    2    1    2    0    0  0.14564014404E+03  0.61368431228E+01 -0.48503255694E+03  0.51272226509E+03  0.79867561828E+02 0.  0.
         25    2    1    2    0    0 -0.15494207738E+03  0.13646946981E+03 -0.12245183686E+04  0.12480883930E+04  0.12509371805E+03 0.  0.
         24    2    1    2    0    0  0.93019333331E+01 -0.14260631293E+03 -0.33153817312E+03  0.36983268017E+03  0.80221971011E+02 0.  0.
        -13    1    5    5    0    0 -0.82564489255E+00 -0.13282227677E+03 -0.21693995648E+03  0.25437252920E+03  0.00000000000E+00 0.  1.
         14    1    5    5    0    0  0.10127578226E+02 -0.97840361687E+01 -0.11459821664E+03  0.11546015097E+03  0.00000000000E+00 0. -1.
         13    1    3    3    0    0  0.13104635974E+03 -0.25036907266E+01 -0.30601709216E+03  0.33290520807E+03  0.00000000000E+00 0. -1.
        -14    1    3    3    0    0  0.14593784302E+02  0.86405338494E+01 -0.17901546478E+03  0.17981705702E+03  0.00000000000E+00 0.  1.
          5    1    4    4  501    0 -0.72186068728E+02 -0.45190348475E+01 -0.50830201498E+03  0.51343905288E+03  0.41800000000E+01 0.  1.
         -5    1    4    4    0  501 -0.82756008649E+02  0.14098850466E+03 -0.71621635362E+03  0.73464934016E+03  0.41800000000E+01 0.  1.
</event>
<event>
11    1  0.8453735E-009  0.1321856E+03  0.7561462E-02  0.1116612E+00
         22   -1    0    0    0    0  0.00000000000E+00  0.00000000000E+00  0.14818701246E+04  0.14818701246E+04  0.00000000000E+00 0.  1.
         22   -1    0    0    0    0 -0.00000000000E+00 -0.00000000000E+00 -0.24332243865E+03  0.24332243865E+03  0.00000000000E+00 0. -1.
         24    2    1    2    0    0 -0.10186050029E+02 -0.92639921733E+01 -0.20417682318E+03  0.21907054884E+03  0.78193050052E+02 0.  0.
         25    2    1    2    0    0  0.28037085856E+02  0.47389283026E+02  0.12488526351E+03  0.18513618580E+03  0.12508899200E+03 0.  0.
        -24    2    1    2    0    0 -0.17851035827E+02 -0.38125290853E+02  0.13178392456E+04  0.13209858286E+04  0.80815127534E+02 0.  0.
        -11    1    3    3    0    0 -0.84631997635E+01 -0.35190802508E+02 -0.44821244467E+02  0.57610435573E+02  0.00000000000E+00 0.  1.
         12    1    3    3    0    0 -0.17228502660E+01  0.25926810335E+02 -0.15935557872E+03  0.16146011326E+03  0.00000000000E+00 0. -1.
         13    1    5    5    0    0 -0.67288024271E+01  0.10209787695E+02  0.91809015725E+03  0.91817158167E+03  0.00000000000E+00 0. -1.
        -14    1    5    5    0    0 -0.11122233400E+02 -0.48335078548E+02  0.39974908835E+03  0.40281424694E+03  0.00000000000E+00 0.  1.
          5    1    4    4  501    0  0.61105183163E+02  0.41427775600E+02  0.22489917533E+02  0.77287597913E+02  0.41800000000E+01 0. -1.
         -5    1    4    4    0  501 -0.33068097306E+02  0.59615074260E+01  0.10239534598E+03  0.10784858788E+03  0.41800000000E+01 0. -1.
</event>
<event>
11    1  0.8453735E-009  0.1473556E+03  0.7561462E-02  0.1099612E+00
         22   -1    0    0    0    0  0.00000000000E+00  0.00000000000E+00  0.23873357238E+03  0.23873357238E+03  0.00000000000E+00 0.  1.
         22   -1    0    0    0    0 -0.00000000000E+00 -0.00000000000E+00 -0.41245047046E+03  0.41245047046E+03  0.00000000000E+00 0.  1.
         24    2    1    2    0    0 -0.23213510954E+02  0.16074618328E+02 -0.27657313431E+03  0.29046861996E+03  0.84154976749E+02 0.  0.
         25    2    1    2    0    0  0.97296929876E+02 -0.23791906004E+02 -0.53630747332E+02  0.16898477787E+03  0.12508737242E+03 0.  0.
        -24    2    1    2    0    0 -0.74083418922E+02  0.77172876760E+01  0.15648698357E+03  0.19173064502E+03  0.82003382391E+02 0.  0.
        -13    1    3    3    0    0 -0.54868673607E+02  0.15647649137E+02 -0.17310517497E+03  0.18226580005E+03  0.00000000000E+00 0.  1.
         14    1    3    3    0    0  0.31655162653E+02  0.42696919090E+00 -0.10346795934E+03  0.10820281990E+03  0.00000000000E+00 0. -1.
         13    1    5    5    0    0 -0.18727265681E+02  0.71842925611E+01 -0.52902262523E+01  0.20743939676E+02  0.00000000000E+00 0. -1.
        -14    1    5    5    0    0 -0.55356153241E+02  0.53299511491E+00  0.16177720982E+03  0.17098670534E+03  0.00000000000E+00 0.  1.
          5    1    4    4  501    0  0.10200705242E+02 -0.10032233279E+02 -0.76383515465E+02  0.77824250249E+02  0.41800000000E+01 0.  1.
         -5    1    4    4    0  501  0.87096224634E+02 -0.13759672725E+02  0.22752768133E+02  0.91160527624E+02  0.41800000000E+01 0.  1.
</event>
<event>
11    1  0.8453735E-009  0.1270377E+03  0.7561462E-02  0.1122963E+00
         22   -1    0    0    0    0  0.00000000000E+00  0.00000000000E+00  0.44523676514E+03  0.44523676514E+03  0.00000000000E+00 0.  1.
         22   -1    0    0    0    0 -0.00000000000E+00 -0.00000000000E+00 -0.79485795345E+03  0.79485795345E+03  0.00000000000E+00 0. -1.
        -24    2    1    2    0    0 -0.40674134193E+01  0.87354665596E+00 -0.75939388731E+03  0.76353000164E+03  0.79257052575E+02 0.  0.
         25    2    1    2    0    0 -0.17605536186E+02 -0.81767613940E+01  0.12396518205E+03  0.17717856652E+03  0.12509222096E+03 0.  0.
         24    2    1    2    0    0  0.21672949605E+02  0.73032147380E+01  0.28580751695E+03  0.29938615042E+03  0.86157278426E+02 0.  0.
        -11    1    5    5    0    0  0.98050206340E+01  0.28492349958E+02  0.26693167500E+03  0.26862701196E+03  0.00000000000E+00 0.  1.
         12    1    5    5    0    0  0.11867928971E+02 -0.21189135220E+02  0.18875841956E+02  0.30759138463E+02  0.00000000000E+00 0. -1.
         13    1    3    3    0    0 -0.17300581038E+02  0.36962205398E+02 -0.41174892231E+03  0.41376646765E+03  0.00000000000E+00 0. -1.
        -14    1    3    3    0    0  0.13233167619E+02 -0.36088658742E+02 -0.34764496501E+03  0.34976353399E+03  0.00000000000E+00 0.  1.
          5    1    4    4  501    0 -0.27972378466E+01 -0.48346163125E+02  0.12503399536E+03  0.13414972391E+03  0.41800000000E+01 0. -1.
         -5    1    4    4    0  501 -0.14808298339E+02  0.40169401731E+02 -0.10688133112E+01  0.43028842618E+02  0.41800000000E+01 0. -1.
</event>
<event>
11    1  0.8453735E-009  0.1325093E+03  0.7561462E-02  0.1116224E+00
         22   -1    0    0    0    0  0.00000000000E+00  0.00000000000E+00  0.32132877738E+03  0.32132877738E+03  0.00000000000E+00 0.  1.
         22   -1    0    0    0    0 -0.00000000000E+00 -0.00000000000E+00 -0.93080144590E+03  0.93080144590E+03  0.00000000000E+00 0. -1.
        -24    2    1    2    0    0  0.17888506122E+02 -0.28345509538E+02 -0.86486913474E+03  0.86821983258E+03  0.68436765691E+02 0.  0.
         25    2    1    2    0    0  0.27026313472E+02  0.34742177303E+02  0.23543204377E+02  0.13468429001E+03  0.12509250577E+03 0.  0.
         24    2    1    2    0    0 -0.44914819594E+02 -0.63966677653E+01  0.23185326184E+03  0.24922610069E+03  0.79369111495E+02 0.  0.
        -13    1    5    5    0    0 -0.28950458165E+02 -0.16028128049E+02  0.22774191038E+03  0.23013345619E+03  0.00000000000E+00 0.  1.
         14    1    5    5    0    0 -0.15964361429E+02  0.96314602834E+01  0.41113514675E+01  0.19092644498E+02  0.00000000000E+00 0. -1.
         11    1    3    3    0    0 -0.21869676459E+02 -0.67176161162E+00 -0.45010760686E+03  0.45063909259E+03  0.00000000000E+00 0. -1.
        -12    1    3    3    0    0  0.39758182581E+02 -0.27673747926E+02 -0.41476152787E+03  0.41758073999E+03  0.00000000000E+00 0.  1.
          5    1    4    4  501    0  0.26105512486E+01  0.19540687041E+02  0.73869268657E+02  0.76568888459E+02  0.41800000000E+01 0. -1.
         -5    1    4    4    0  501  0.24415762224E+02  0.15201490262E+02 -0.50326064280E+02  0.58115401548E+02  0.41800000000E+01 0. -1.
</event>
<event>
11    1  0.8453735E-009  0.1291800E+03  0.7561462E-02  0.1120281E+00
         22   -1    0    0    0    0  0.00000000000E+00  0.00000000000E+00  0.14845004855E+04  0.14845004855E+04  0.00000000000E+00 0.  1.
         22   -1    0    0    0    0 -0.00000000000E+00 -0.00000000000E+00 -0.64434255521E+03  0.64434255521E+03  0.00000000000E+00 0. -1.
        -24    2    1    2    0    0  0.47594207649E+01 -0.28164809659E+02 -0.52003142628E+03  0.52733548619E+03  0.82668749183E+02 0.  0.
         25    2    1    2    0    0 -0.36845418804E+02  0.30485919749E+02 -0.81757807806E+02  0.15690439963E+03  0.12509066830E+03 0.  0.
         24    2    1    2    0    0  0.32085998039E+02 -0.23211100895E+01  0.14419471644E+04  0.14446031549E+04  0.81435566434E+02 0.  0.
        -11    1    5    5    0    0  0.22846399193E+02  0.38993102854E+02  0.76385755512E+03  0.76519329881E+03  0.00000000000E+00 0.  1.
         12    1    5    5    0    0  0.92395988467E+01 -0.41314212944E+02  0.67808960929E+03  0.67940985613E+03  0.00000000000E+00 0. -1.
         11    1    3    3    0    0 -0.30184960244E+02 -0.19548955507E+02 -0.40985112340E+03  0.41142585825E+03  0.00000000000E+00 0. -1.
        -12    1    3    3    0    0  0.34944381009E+02 -0.86158541520E+01 -0.11018030288E+03  0.11590962794E+03  0.00000000000E+00 0.  1.
          5    1    4    4  501    0 -0.28896556168E+02 -0.13037971065E+02 -0.10285448442E+03  0.10771033847E+03  0.41800000000E+01 0. -1.
         -5    1    4    4    0  501 -0.79488626366E+01  0.43523890814E+02  0.21096676615E+02  0.49194061155E+02  0.41800000000E+01 0. -1.
</event>
<event>
11    1  0.8453735E-009  0.1420955E+03  0.7561462E-02  0.1105241E+00
         22   -1    0    0    0    0  0.00000000000E+00  0.00000000000E+00  0.19168562897E+03  0.19168562897E+03  0.00000000000E+00 0.  1.
         22   -1    0    0    0    0 -0.00000000000E+00 -0.00000000000E+00 -0.47616297789E+03  0.47616297789E+03  0.00000000000E+00 0.  1.
        -24    2    1    2    0    0 -0.16028833657E+02  0.42107934095E+02 -0.31634940104E+03  0.33012577515E+03  0.82922145767E+02 0.  0.
         25    2    1    2    0    0  0.80915811609E+02 -0.44995888574E+02 -0.88366593511E+02  0.17896453654E+03  0.12509057492E+03 0.  0.
         24    2    1    2    0    0 -0.64886977952E+02  0.28879544790E+01  0.12023864563E+03  0.15875829518E+03  0.80797303145E+02 0.  0.
        -13    1    5    5    0    0 -0.18681363385E+02 -0.32519250323E+02  0.78905546653E+02  0.87364639712E+02  0.00000000000E+00 0.  1.
         14    1    5    5    0    0 -0.46205614566E+02  0.35407204802E+02  0.41333098977E+02  0.71393655463E+02  0.00000000000E+00 0. -1.
         11    1    3    3    0    0  0.36296399509E+01 -0.15961621785E+02 -0.17861374361E+03  0.17936225094E+03  0.00000000000E+00 0. -1.
        -12    1    3    3    0    0 -0.19658473608E+02  0.58069555880E+02 -0.13773565743E+03  0.15076352421E+03  0.00000000000E+00 0.  1.
          5    1    4    4  501    0  0.83667181219E+02  0.23257026945E+02 -0.44388730216E+02  0.97616178401E+02  0.41800000000E+01 0. -1.
         -5    1    4    4    0  501 -0.27513696101E+01 -0.68252915519E+02 -0.43977863295E+02  0.81348358137E+02  0.41800000000E+01 0. -1.
</event>
<event>
11    1  0.8453735E-009  0.1377188E+03  0.7561462E-02  0.1110133E+00
         22   -1    0    0    0    0  0.00000000000E+00  0.00000000000E+00  0.29371120305E+03  0.29371120305E+03  0.00000000000E+00 0. -1.
         22   -1    0    0    0    0 -0.00000000000E+00 -0.00000000000E+00 -0.38065863105E+03  0.38065863105E+03  0.00000000000E+00 0. -1.
        -24    2    1    2    0    0 -0.16449444831E+02  0.57293340745E+02 -0.31500612021E+03  0.33143773676E+03  0.84077383670E+02 0.  0.
         25    2    1    2    0    0  0.62156521999E+01 -0.36277941589E+02  0.37666028378E+02  0.13572142917E+03  0.12508738252E+03 0.  0.
         24    2    1    2    0    0  0.10233792631E+02 -0.21015399156E+02  0.19039266384E+03  0.20721066817E+03  0.78361451272E+02 0.  0.
        -11    1    5    5    0    0  0.29091809146E+02 -0.11683945181E+02  0.23972058807E+02  0.39465270021E+02  0.00000000000E+00 0.  1.
         12    1    5    5    0    0 -0.18858016515E+02 -0.93314539751E+01  0.16642060503E+03  0.16774539815E+03  0.00000000000E+00 0. -1.
         11    1    3    3    0    0 -0.50039800676E+02  0.42984256719E+02 -0.18535597493E+03  0.19674467063E+03  0.00000000000E+00 0. -1.
        -12    1    3    3    0    0  0.33590355845E+02  0.14309084026E+02 -0.12965014528E+03  0.13469306613E+03  0.00000000000E+00 0.  1.
          5    1    4    4  501    0  0.92940521621E+01  0.18085985168E+02 -0.37469436884E+02  0.42835888755E+02  0.41800000000E+01 0. -1.
         -5    1    4    4    0  501 -0.30783999622E+01 -0.54363926757E+02  0.75135465262E+02  0.92885540419E+02  0.41800000000E+01 0. -1.
</event>
<event>
11    1  0.8453735E-009  0.1694428E+03  0.7561462E-02  0.1078518E+00
         22   -1    0    0    0    0  0.00000000000E+00  0.00000000000E+00  0.26368714770E+03  0.26368714770E+03  0.00000000000E+00 0.  1.
         22   -1    0    0    0    0 -0.00000000000E+00 -0.00000000000E+00 -0.40799893891E+03  0.40799893891E+03  0.00000000000E+00 0. -1.
        -24    2    1    2    0    0 -0.23753563255E+02 -0.28797551054E+01 -0.14851982600E+03  0.17154040668E+03  0.82434505225E+02 0.  0.
         25    2    1    2    0    0  0.28610981152E+02 -0.11144718949E+03 -0.19454363410E+03  0.25833258835E+03  0.12509770719E+03 0.  0.
         24    2    1    2    0    0 -0.48574178976E+01  0.11432694459E+03  0.19875166890E+03  0.24181309159E+03  0.76662250207E+02 0.  0.
        -11    1    5    5    0    0 -0.39887408577E+02  0.71588265245E+02  0.12891310614E+03  0.15275625688E+03  0.00000000000E+00 0.  1.
         12    1    5    5    0    0  0.35029990679E+02  0.42738679347E+02  0.69838562762E+02  0.89056834707E+02  0.00000000000E+00 0. -1.
         13    1    3    3    0    0 -0.40773660968E+02  0.24824230002E+02 -0.11652545063E+03  0.12592424099E+03  0.00000000000E+00 0. -1.
        -14    1    3    3    0    0  0.17020097713E+02 -0.27703985107E+02 -0.31994375371E+02  0.45616165691E+02  0.00000000000E+00 0.  1.
          5    1    4    4  501    0  0.11072426535E+02  0.61618367656E+01  0.13301293341E+02  0.18840479459E+02  0.41800000000E+01 0.  1.
         -5    1    4    4    0  501  0.17538554617E+02 -0.11760902625E+03 -0.20784492745E+03  0.23949210889E+03  0.41800000000E+01 0.  1.
</event>
<event>
11    1  0.8453735E-009  0.1389973E+03  0.7561462E-02  0.1108683E+00
         22   -1    0    0    0    0  0.00000000000E+00  0.00000000000E+00  0.28762420906E+03  0.28762420906E+03  0.00000000000E+00 0. -1.
         22   -1    0    0    0    0 -0.00000000000E+00 -0.00000000000E+00 -0.21168746801E+03  0.21168746801E+03  0.00000000000E+00 0. -1.
        -24    2    1    2    0    0 -0.55540151105E+02 -0.39093399308E+02 -0.12369337868E+03  0.16198039536E+03  0.79527317928E+02 0.  0.
         25    2    1    2    0    0  0.40701753233E+02 -0.31277836026E+01  0.14149286560E+02  0.13233830015E+03  0.12508720011E+03 0.  0.
         24    2    1    2    0    0  0.14838397872E+02  0.42221182910E+02  0.18548083317E+03  0.20499298155E+03  0.74941154747E+02 0.  0.
        -11    1    5    5    0    0  0.34223416455E+02  0.32710247101E+02  0.54268131198E+02  0.72015502241E+02  0.00000000000E+00 0.  1.
         12    1    5    5    0    0 -0.19385018583E+02  0.95109358090E+01  0.13121270197E+03  0.13297747931E+03  0.00000000000E+00 0. -1.
         11    1    3    3    0    0 -0.37037377950E+02 -0.30160770280E+02 -0.13157337315E+03  0.13997496901E+03  0.00000000000E+00 0. -1.
        -12    1    3    3    0    0 -0.18502773155E+02 -0.89326290276E+01  0.78799944669E+01  0.22005426344E+02  0.00000000000E+00 0.  1.
          5    1    4    4  501    0  0.47552905915E+02  0.52789655181E+02  0.23765325586E+02  0.75035256082E+02  0.41800000000E+01 0.  1.
         -5    1    4    4    0  501 -0.68511526813E+01 -0.55917438784E+02 -0.96160390260E+01  0.57303044071E+02  0.41800000000E+01 0.  1.
</event>
<event>
11    1  0.8453735E-009  0.1242238E+04  0.7561462E-02  0.8477569E-01
         22   -1    0    0    0    0  0.00000000000E+00  0.00000000000E+00  0.13370341007E+04  0.13370341007E+04  0.00000000000E+00 0. -1.
         22   -1    0    0    0    0 -0.00000000000E+00 -0.00000000000E+00 -0.16224776350E+04  0.16224776350E+04  0.00000000000E+00 0. -1.
        -24    2    1    2    0    0  0.89735572817E+02  0.85227942093E+02 -0.35379043103E+03  0.38308534629E+03  0.79186099198E+02 0.  0.
         25    2    1    2    0    0  0.66232002181E+03 -0.10591183118E+04 -0.29718058961E+03  0.12901018869E+04  0.12508863237E+03 0.  0.
         24    2    1    2    0    0 -0.75205559462E+03  0.97389036972E+03  0.36552748638E+03  0.12863245025E+04  0.83488399597E+02 0.  0.
        -11    1    5    5    0    0 -0.18307177960E+03  0.25317017913E+03  0.56669898813E+02  0.31752463450E+03  0.00000000000E+00 0.  1.
         12    1    5    5    0    0 -0.56898381502E+03  0.72072019060E+03  0.30885758757E+03  0.96879986803E+03  0.00000000000E+00 0. -1.
         11    1    3    3    0    0  0.83722833390E+02  0.50305523230E+02 -0.17133241718E+03  0.19721804095E+03  0.00000000000E+00 0. -1.
        -12    1    3    3    0    0  0.60127394265E+01  0.34922418863E+02 -0.18245801385E+03  0.18586730534E+03  0.00000000000E+00 0.  1.
          5    1    4    4  501    0  0.21294744463E+03 -0.45573220574E+03 -0.12184496058E+03  0.51759262393E+03  0.41800000000E+01 0.  1.
         -5    1    4    4    0  501  0.44937257718E+03 -0.60338610608E+03 -0.17533562903E+03  0.77250926294E+03  0.41800000000E+01 0.  1.
</event>
<event>
11    1  0.8453735E-009  0.1309444E+03  0.7561462E-02  0.1118114E+00
         22   -1    0    0    0    0  0.00000000000E+00  0.00000000000E+00  0.40098482125E+02  0.40098482125E+02  0.00000000000E+00 0. -1.
         22   -1    0    0    0    0 -0.00000000000E+00 -0.00000000000E+00 -0.20312106432E+04  0.20312106432E+04  0.00000000000E+00 0. -1.
         24    2    1    2    0    0  0.15498027930E+02  0.11262993937E+02 -0.14909383707E+04  0.14932598323E+04  0.80997886790E+02 0.  0.
         25    2    1    2    0    0  0.12512092874E+02 -0.38496832664E+02 -0.46264362935E+03  0.48096149037E+03  0.12508504646E+03 0.  0.
        -24    2    1    2    0    0 -0.28010120804E+02  0.27233838727E+02 -0.37530161037E+02  0.97087802657E+02  0.80568477694E+02 0.  0.
        -13    1    3    3    0    0 -0.82425966413E+01  0.36062288092E+01 -0.18124105316E+02  0.20234339108E+02  0.00000000000E+00 0.  1.
         14    1    3    3    0    0  0.23740624571E+02  0.76567651274E+01 -0.14728142654E+04  0.14730254932E+04  0.00000000000E+00 0. -1.
         13    1    5    5    0    0 -0.14965050223E+01 -0.22833371867E+01  0.23847118786E+02  0.24002879627E+02  0.00000000000E+00 0. -1.
        -14    1    5    5    0    0 -0.26513615781E+02  0.29517175914E+02 -0.61377279824E+02  0.73084923030E+02  0.00000000000E+00 0.  1.
          5    1    4    4  501    0 -0.31219018228E+01  0.43943231621E+02 -0.21338363618E+03  0.21792384556E+03  0.41800000000E+01 0.  1.
         -5    1    4    4    0  501  0.15633994697E+02 -0.82440064285E+02 -0.24925999317E+03  0.26303764481E+03  0.41800000000E+01 0.  1.
</event>
<event>
11    1  0.8453735E-009  0.1361374E+03  0.7561462E-02  0.1111950E+00
         22   -1    0    0    0    0  0.00000000000E+00  0.00000000000E+00  0.99451355124E+03  0.99451355124E+03  0.00000000000E+00 0. -1.
         22   -1    0    0    0    0 -0.00000000000E+00 -0.00000000000E+00 -0.15414028014E+03  0.15414028014E+03  0.00000000000E+00 0.  1.
         24    2    1    2    0    0 -0.26299752013E+02  0.16402565029E+02 -0.98475158218E+02  0.13067393352E+03  0.80109918367E+02 0.  0.
         25    2    1    2    0    0  0.77626930144E+02 -0.70565581076E+01  0.11012886626E+03  0.18398911336E+03  0.12509153191E+03 0.  0.
        -24    2    1    2    0    0 -0.51327178131E+02 -0.93460069213E+01  0.82871956306E+03  0.83399078449E+03  0.77734724321E+02 0.  0.
        -13    1    3    3    0    0  0.90133492271E+01  0.41449616007E+02 -0.53020776700E+02  0.67900765042E+02  0.00000000000E+00 0.  1.
         14    1    3    3    0    0 -0.35313101240E+02 -0.25047050978E+02 -0.45454381518E+02  0.62773168480E+02  0.00000000000E+00 0. -1.
         11    1    5    5    0    0 -0.55274420682E+02 -0.36438611288E+02  0.59663926482E+03  0.60030112968E+03  0.00000000000E+00 0. -1.
        -12    1    5    5    0    0  0.39472425511E+01  0.27092604366E+02  0.23208029824E+03  0.23368965481E+03  0.00000000000E+00 0.  1.
          5    1    4    4  501    0 -0.49537880419E+00 -0.34099158265E+02 -0.12050325087E+02  0.36409898781E+02  0.41800000000E+01 0. -1.
         -5    1    4    4    0  501  0.78122308948E+02  0.27042600157E+02  0.12217919134E+03  0.14757921458E+03  0.41800000000E+01 0. -1.
</event>
<event>
11    1  0.8453735E-009  0.1481105E+03  0.7561462E-02  0.1098825E+00
         22   -1    0    0    0    0  0.00000000000E+00  0.00000000000E+00  0.29783419637E+04  0.29783419637E+04  0.00000000000E+00 0.  1.
         22   -1    0    0    0    0 -0.00000000000E+00 -0.00000000000E+00 -0.60956839264E+02  0.60956839264E+02  0.00000000000E+00 0. -1.
        -24    2    1    2    0    0  0.44641089068E+02  0.64839287887E+02  0.59755848020E+01  0.11211007737E+03  0.79599005941E+02 0.  0.
         25    2    1    2    0    0 -0.72411645273E+02 -0.56326130547E+02  0.84639660634E+03  0.86049434819E+03  0.12508888313E+03 0.  0.
         24    2    1    2    0    0  0.27770556205E+02 -0.85131573407E+01  0.20650129333E+04  0.20666943774E+04  0.78125266762E+02 0.  0.
        -13    1    5    5    0    0  0.44867022782E+02 -0.24058162380E+01  0.19231129156E+04  0.19236377320E+04  0.00000000000E+00 0.  1.
         14    1    5    5    0    0 -0.17096466576E+02 -0.61073411027E+01  0.14190001761E+03  0.14305664536E+03  0.00000000000E+00 0. -1.
         13    1    3    3    0    0  0.14295468574E+02  0.53348031530E+02 -0.30660751373E+02  0.63170044837E+02  0.00000000000E+00 0. -1.
        -14    1    3    3    0    0  0.30345620494E+02  0.11491256357E+02  0.36636336175E+02  0.48940032531E+02  0.00000000000E+00 0.  1.
          5    1    4    4  501    0 -0.58567619142E+02 -0.82481783389E+02  0.79184945034E+03  0.79829595703E+03  0.41800000000E+01 0.  1.
         -5    1    4    4    0  501 -0.13844026131E+02  0.26155652842E+02  0.54547156000E+02  0.62198391159E+02  0.41800000000E+01 0.  1.
</event>
<event>
11    1  0.8453735E-009  0.1497392E+03  0.7561462E-02  0.1097146E+00
         22   -1    0    0    0    0  0.00000000000E+00  0.00000000000E+00  0.22441428562E+03  0.22441428562E+03  0.00000000000E+00 0. -1.
         22   -1    0    0    0    0 -0.00000000000E+00 -0.00000000000E+00 -0.24726286544E+04  0.24726286544E+04  0.00000000000E+00 0. -1.
         24    2    1    2    0    0 -0.75894479427E+02 -0.28777178974E+02 -0.22897799251E+04  0.22925872098E+04  0.79220649697E+02 0.  0.
         25    2    1    2    0    0  0.10820867594E+03  0.45548795173E+02 -0.12762862448E+03  0.21382263169E+03  0.12508893534E+03 0.  0.
        -24    2    1    2    0    0 -0.32314196509E+02 -0.16771616199E+02  0.16919418078E+03  0.19063309851E+03  0.79930050852E+02 0.  0.
        -13    1    3    3    0    0 -0.24777524236E+02  0.20267078570E+02 -0.33546100630E+03  0.33698481706E+03  0.00000000000E+00 0.  1.
         14    1    3    3    0    0 -0.51116955191E+02 -0.49044257544E+02 -0.19543189188E+04  0.19556023928E+04  0.00000000000E+00 0. -1.
         13    1    5    5    0    0 -0.48548547071E+02 -0.32192481319E+02  0.15078476669E+03  0.16164579531E+03  0.00000000000E+00 0. -1.
        -14    1    5    5    0    0  0.16234350562E+02  0.15420865120E+02  0.18409414093E+02  0.28987303194E+02  0.00000000000E+00 0.  1.
          5    1    4    4  501    0  0.16588060000E+02  0.71448489626E+02 -0.36796758018E+02  0.82167659119E+02  0.41800000000E+01 0.  1.
         -5    1    4    4    0  501  0.91620615936E+02 -0.25899694453E+02 -0.90831866460E+02  0.13165497257E+03  0.41800000000E+01 0.  1.
</event>
<event>
11    1  0.8453735E-009  0.1302112E+03  0.7561462E-02  0.1119010E+00
         22   -1    0    0    0    0  0.00000000000E+00  0.00000000000E+00  0.52415709950E+02  0.52415709950E+02  0.00000000000E+00 0.  1.
         22   -1    0    0    0    0 -0.00000000000E+00 -0.00000000000E+00 -0.13976893414E+04  0.13976893414E+04  0.00000000000E+00 0.  1.
         24    2    1    2    0    0 -0.41012796765E+02 -0.40776231783E+01 -0.10190619736E+04  0.10231805114E+04  0.81929092564E+02 0.  0.
         25    2    1    2    0    0  0.53219601857E+01  0.10307182332E+02 -0.31423878070E+03  0.33841946272E+03  0.12508860934E+03 0.  0.
        -24    2    1    2    0    0  0.35690836579E+02 -0.62295591540E+01 -0.11972877148E+02  0.88505077298E+02  0.79857095473E+02 0.  0.
        -13    1    3    3    0    0 -0.24281017627E+02  0.34862818459E+02 -0.70397326892E+03  0.70525410122E+03  0.00000000000E+00 0.  1.
         14    1    3    3    0    0 -0.16731779138E+02 -0.38940441637E+02 -0.31508870472E+03  0.31792641015E+03  0.00000000000E+00 0. -1.
         11    1    5    5    0    0  0.44329866105E+01  0.25511619076E+02 -0.30716116694E+02  0.40174294056E+02  0.00000000000E+00 0. -1.
        -12    1    5    5    0    0  0.31257849969E+02 -0.31741178230E+02  0.18743239546E+02  0.48330783242E+02  0.00000000000E+00 0.  1.
          5    1    4    4  501    0  0.41317996233E+02 -0.37973884457E+02 -0.89557021323E+02  0.10576920715E+03  0.41800000000E+01 0.  1.
         -5    1    4    4    0  501 -0.35996036047E+02  0.48281066789E+02 -0.22468175937E+03  0.23265025557E+03  0.41800000000E+01 0.  1.
</event>
<event>
11    1  0.8453735E-009  0.2214858E+03  0.7561462E-02  0.1040291E+00
         22   -1    0    0    0    0  0.00000000000E+00  0.00000000000E+00  0.25221697502E+03  0.25221697502E+03  0.00000000000E+00 0.  1.
         22   -1    0    0    0    0 -0.00000000000E+00 -0.00000000000E+00 -0.96783348105E+03  0.96783348105E+03  0.00000000000E+00 0. -1.
        -24    2    1    2    0    0 -0.13104703813E+03  0.13751633762E+03 -0.76608294543E+03  0.79356150742E+03  0.82296521635E+02 0.  0.
         25    2    1    2    0    0  0.28395648966E+02 -0.16929036077E+03 -0.91873036831E+02  0.23141761444E+03  0.12509163939E+03 0.  0.
         24    2    1    2    0    0  0.10265138916E+03  0.31774023151E+02  0.14233947623E+03  0.19507133421E+03  0.79027860220E+02 0.  0.
        -13    1    5    5    0    0  0.96519399306E+02 -0.17570373131E+01  0.12125675870E+03  0.15499123573E+03  0.00000000000E+00 0.  1.
         14    1    5    5    0    0  0.61319898564E+01  0.33531060464E+02  0.21082717535E+02  0.40080098479E+02  0.00000000000E+00 0. -1.
         11    1    3    3    0    0 -0.50863071669E+02  0.82673408569E+02 -0.24551413651E+03  0.26400593889E+03  0.00000000000E+00 0. -1.
        -12    1    3    3    0    0 -0.80183966460E+02  0.54842929052E+02 -0.52056880891E+03  0.52955556853E+03  0.00000000000E+00 0.  1.
          5    1    4    4  501    0  0.32319095656E+02  0.63451419107E+01 -0.17107504823E+00  0.33200699338E+02  0.41800000000E+01 0. -1.
         -5    1    4    4    0  501 -0.39234466893E+01 -0.17563550268E+03 -0.91701961783E+02  0.19821691510E+03  0.41800000000E+01 0. -1.
</event>
<event>
11    1  0.8453735E-009  0.2186852E+03  0.7561462E-02  0.1042044E+00
         22   -1    0    0    0    0  0.00000000000E+00  0.00000000000E+00  0.69881324541E+02  0.69881324541E+02  0.00000000000E+00 0. -1.
         22   -1    0    0    0    0 -0.00000000000E+00 -0.00000000000E+00 -0.14026783275E+04  0.14026783275E+04  0.00000000000E+00 0.  1.
         24    2    1    2    0    0  0.94603009123E+00  0.12456035070E+02 -0.64241867408E+03  0.64767304135E+03  0.81379161342E+02 0.  0.
         25    2    1    2    0    0  0.81741386380E+02  0.15042090084E+03 -0.52035412892E+03  0.56189424750E+03  0.12509446124E+03 0.  0.
        -24    2    1    2    0    0 -0.82687416471E+02 -0.16287693591E+03 -0.17002419997E+03  0.26299236320E+03  0.83009935762E+02 0.  0.
        -13    1    3    3    0    0  0.12730402531E+02 -0.30340100660E+02 -0.38962026086E+03  0.39100707478E+03  0.00000000000E+00 0.  1.
         14    1    3    3    0    0 -0.11784372440E+02  0.42796135731E+02 -0.25279841322E+03  0.25666596656E+03  0.00000000000E+00 0. -1.
         11    1    5    5    0    0 -0.86660213022E+02 -0.12782166926E+03 -0.16719152382E+03  0.22759915925E+03  0.00000000000E+00 0. -1.
        -12    1    5    5    0    0  0.39727965512E+01 -0.35055266645E+02 -0.28326761492E+01  0.35393203954E+02  0.00000000000E+00 0.  1.
          5    1    4    4  501    0  0.91895431066E+02  0.15810301655E+03 -0.38902165499E+03  0.42987981407E+03  0.41800000000E+01 0.  1.
         -5    1    4    4    0  501 -0.10154044686E+02 -0.76821157113E+01 -0.13133247393E+03  0.13201443343E+03  0.41800000000E+01 0.  1.
</event>
<event>
11    1  0.8453735E-009  0.1593785E+03  0.7561462E-02  0.1087663E+00
         22   -1    0    0    0    0  0.00000000000E+00  0.00000000000E+00  0.65898341932E+03  0.65898341932E+03  0.00000000000E+00 0.  1.
         22   -1    0    0    0    0 -0.00000000000E+00 -0.00000000000E+00 -0.10576764453E+04  0.10576764453E+04  0.00000000000E+00 0.  1.
         24    2    1    2    0    0 -0.98914945572E+02 -0.16769980121E+02 -0.10047847633E+04  0.10128346093E+04  0.78588335730E+02 0.  0.
         25    2    1    2    0    0  0.52316104880E+02  0.31196602820E+02  0.62362005046E+02  0.15247195318E+03  0.12509386066E+03 0.  0.
        -24    2    1    2    0    0  0.46598840693E+02 -0.14426622699E+02  0.54372973227E+03  0.55135330215E+03  0.77258414679E+02 0.  0.
        -13    1    3    3    0    0 -0.26874530046E+02  0.71400904770E+01 -0.62063419567E+03  0.62125681170E+03  0.00000000000E+00 0.  1.
         14    1    3    3    0    0 -0.72040415526E+02 -0.23910070598E+02 -0.38415056766E+03  0.39157779760E+03  0.00000000000E+00 0. -1.
         11    1    5    5    0    0 -0.16954026743E+02 -0.17620058249E+02  0.93300219210E+02  0.96451212435E+02  0.00000000000E+00 0. -1.
        -12    1    5    5    0    0  0.63552867436E+02  0.31934355503E+01  0.45042951306E+03  0.45490208971E+03  0.00000000000E+00 0.  1.
          5    1    4    4  501    0  0.37212742670E+02  0.65816817591E+02  0.80365912480E+02  0.11042098525E+03  0.41800000000E+01 0. -1.
         -5    1    4    4    0  501  0.15103362210E+02 -0.34620214772E+02 -0.18003907434E+02  0.42050967929E+02  0.41800000000E+01 0. -1.
</event>
<event>
11    1  0.8453735E-009  0.1327852E+03  0.7561462E-02  0.1115893E+00
         22   -1    0    0    0    0  0.00000000000E+00  0.00000000000E+00  0.12286901773E+03  0.12286901773E+03  0.00000000000E+00 0. -1.
         22   -1    0    0    0    0 -0.00000000000E+00 -0.00000000000E+00 -0.24117988995E+04  0.24117988995E+04  0.00000000000E+00 0.  1.
         24    2    1    2    0    0 -0.51162294017E+01  0.51676778305E+02 -0.17286925843E+04  0.17312885528E+04  0.79280117313E+02 0.  0.
         25    2    1    2    0    0 -0.82230720816E+01 -0.11187460977E+02 -0.65797160246E+03  0.66990211760E+03  0.12509771907E+03 0.  0.
        -24    2    1    2    0    0  0.13339301483E+02 -0.40489317329E+02  0.97734304944E+02  0.13347724682E+03  0.80292336337E+02 0.  0.
        -11    1    3    3    0    0 -0.89666237808E+01  0.39727271289E+02 -0.16923245798E+04  0.16928145615E+04  0.00000000000E+00 0.  1.
         12    1    3    3    0    0  0.38503943791E+01  0.11949507017E+02 -0.36368004511E+02  0.38473991305E+02  0.00000000000E+00 0. -1.
         13    1    5    5    0    0  0.39871594199E+02  0.19617272415E+01  0.52919948746E+02  0.66288108836E+02  0.00000000000E+00 0. -1.
        -14    1    5    5    0    0 -0.26532292716E+02 -0.42451044570E+02  0.44814356198E+02  0.67189137986E+02  0.00000000000E+00 0.  1.
          5    1    4    4  501    0 -0.46280730555E+02  0.21302925826E+01 -0.58143956220E+03  0.58329742076E+03  0.41800000000E+01 0. -1.
         -5    1    4    4    0  501  0.38057658474E+02 -0.13317753559E+02 -0.76532040262E+02  0.86604696841E+02  0.41800000000E+01 0. -1.
</event>
<event>
11    1  0.8453735E-009  0.1442844E+03  0.7561462E-02  0.1102866E+00
         22   -1    0    0    0    0  0.00000000000E+00  0.00000000000E+00  0.14053149057E+04  0.14053149057E+04  0.00000000000E+00 0. -1.
         22   -1    0    0    0    0 -0.00000000000E+00 -0.00000000000E+00 -0.68869411744E+03  0.68869411744E+03  0.00000000000E+00 0.  1.
         24    2    1    2    0    0  0.17430877339E+02 -0.72639165599E+02 -0.52727834369E+03  0.53849646254E+03  0.79848009251E+02 0.  0.
         25    2    1    2    0    0 -0.23349138637E+02  0.52461283247E+02 -0.12379313884E+03  0.18512329590E+03  0.12509406439E+03 0.  0.
        -24    2    1    2    0    0  0.59182612988E+01  0.20177882353E+02  0.13676922708E+04  0.13703892647E+04  0.83321164829E+02 0.  0.
        -13    1    3    3    0    0  0.33551837350E+02 -0.46771287569E+02 -0.47091156677E+03  0.47441646562E+03  0.00000000000E+00 0.  1.
         14    1    3    3    0    0 -0.16120960011E+02 -0.25867878031E+02 -0.56366776918E+02  0.64079996923E+02  0.00000000000E+00 0. -1.
         11    1    5    5    0    0  0.20130130117E+02  0.22016284377E+02  0.13253892192E+04  0.13257249041E+04  0.00000000000E+00 0. -1.
        -12    1    5    5    0    0 -0.14211868818E+02 -0.18384020248E+01  0.42303051603E+02  0.44664360650E+02  0.00000000000E+00 0.  1.
          5    1    4    4  501    0 -0.59698449247E+02 -0.10844602569E+02 -0.77763021400E+02  0.98722186689E+02  0.41800000000E+01 0.  1.
         -5    1    4    4    0  501  0.36349310610E+02  0.63305885816E+02 -0.46030117442E+02  0.86401109209E+02  0.41800000000E+01 0.  1.
</event>
<event>
11    1  0.8453735E-009  0.1530169E+03  0.7561462E-02  0.1093835E+00
         22   -1    0    0    0    0  0.00000000000E+00  0.00000000000E+00  0.11402977980E+04  0.11402977980E+04  0.00000000000E+00 0.  1.
         22   -1    0    0    0    0 -0.00000000000E+00 -0.00000000000E+00 -0.25155435066E+03  0.25155435066E+03  0.00000000000E+00 0.  1.
         24    2    1    2    0    0  0.61449759161E+02  0.65428546038E+02 -0.22375569826E+03  0.25037782753E+03  0.67568309690E+02 0.  0.
         25    2    1    2    0    0 -0.52851000006E+02  0.39035031107E+01  0.43272798988E+03  0.45355311796E+03  0.12509377301E+03 0.  0.
        -24    2    1    2    0    0 -0.85987591542E+01 -0.69332049149E+02  0.67977115575E+03  0.68792120320E+03  0.79157349102E+02 0.  0.
        -13    1    3    3    0    0  0.43443611034E+02  0.80011820742E+01 -0.14296637487E+03  0.14963539219E+03  0.00000000000E+00 0.  1.
         14    1    3    3    0    0  0.18006148127E+02  0.57427363964E+02 -0.80789323398E+02  0.10074243534E+03  0.00000000000E+00 0. -1.
         13    1    5    5    0    0  0.27488295243E+01 -0.30353488162E+01 -0.68235261127E+00  0.41515071089E+01  0.00000000000E+00 0. -1.
        -14    1    5    5    0    0 -0.11347588678E+02 -0.66296700333E+02  0.68045350836E+03  0.68376969609E+03  0.00000000000E+00 0.  1.
          5    1    4    4  501    0 -0.87757767396E+02 -0.11730801953E+02  0.21672352765E+03  0.23414866494E+03  0.41800000000E+01 0. -1.
         -5    1    4    4    0  501  0.34906767390E+02  0.15634305064E+02  0.21600446222E+03  0.21940445302E+03  0.41800000000E+01 0. -1.
</event>
<event>
11    1  0.8453735E-009  0.1328092E+03  0.7561462E-02  0.1115865E+00
         22   -1    0    0    0    0  0.00000000000E+00  0.00000000000E+00  0.54721180198E+03  0.54721180198E+03  0.00000000000E+00 0. -1.
         22   -1    0    0    0    0 -0.00000000000E+00 -0.00000000000E+00 -0.12980668387E+04  0.12980668387E+04  0.00000000000E+00 0. -1.
        -24    2    1    2    0    0 -0.77773892050E+01 -0.32760688909E+02 -0.75320704024E+03  0.75815118023E+03  0.79615426263E+02 0.  0.
         25    2    1    2    0    0 -0.36632141645E+02  0.27643229747E+02 -0.53017656612E+03  0.54666314981E+03  0.12508935264E+03 0.  0.
         24    2    1    2    0    0  0.44409530850E+02  0.51174591624E+01  0.53252856959E+03  0.54046431069E+03  0.80725453739E+02 0.  0.
        -13    1    5    5    0    0  0.28375687242E+02 -0.34055607282E+02  0.17882951202E+03  0.18424157615E+03  0.00000000000E+00 0.  1.
         14    1    5    5    0    0  0.16033843609E+02  0.39173066444E+02  0.35369905757E+03  0.35622273454E+03  0.00000000000E+00 0. -1.
         11    1    3    3    0    0  0.33546361185E+02 -0.13989479518E+02 -0.46209322593E+03  0.46352045623E+03  0.00000000000E+00 0. -1.
        -12    1    3    3    0    0 -0.41323750390E+02 -0.18771209391E+02 -0.29111381430E+03  0.29463072400E+03  0.00000000000E+00 0.  1.
          5    1    4    4  501    0 -0.42636810042E+02 -0.13097874206E+02 -0.47784390820E+03  0.47993929292E+03  0.41800000000E+01 0. -1.
         -5    1    4    4    0  501  0.60046683962E+01  0.40741103953E+02 -0.52332657916E+02  0.66723856890E+02  0.41800000000E+01 0. -1.
</event>
<event>
11    1  0.8453735E-009  0.1391535E+03  0.7561462E-02  0.1108507E+00
         22   -1    0    0    0    0  0.00000000000E+00  0.00000000000E+00  0.24115926213E+03  0.24115926213E+03  0.00000000000E+00 0.  1.
         22   -1    0    0    0    0 -0.00000000000E+00 -0.00000000000E+00 -0.98033493735E+03  0.98033493735E+03  0.00000000000E+00 0. -1.
         24    2    1    2    0    0 -0.48431459369E+02 -0.18220770268E+02 -0.79168477484E+03  0.79734924842E+03  0.79520051099E+02 0.  0.
         25    2    1    2    0    0 -0.14404716210E+02  0.29534234700E+01 -0.14942632306E+03  0.19542641754E+03  0.12508812930E+03 0.  0.
        -24    2    1    2    0    0  0.62836175579E+02  0.15267346797E+02  0.20193542267E+03  0.22871853352E+03  0.85748328303E+02 0.  0.
        -13    1    3    3    0    0  0.13498817534E+02  0.11804158129E+02 -0.65499449658E+02  0.67909749885E+02  0.00000000000E+00 0.  1.
         14    1    3    3    0    0 -0.61930276904E+02 -0.30024928396E+02 -0.72618532518E+03  0.72943949854E+03  0.00000000000E+00 0. -1.
         13    1    5    5    0    0  0.44763014938E+02  0.76100362725E+01  0.27293681079E+02  0.52977213831E+02  0.00000000000E+00 0. -1.
        -14    1    5    5    0    0  0.18073160641E+02  0.76573105250E+01  0.17464174159E+03  0.17574131969E+03  0.00000000000E+00 0.  1.
          5    1    4    4  501    0  0.22131817079E+02 -0.40383529935E+02 -0.13616779946E+02  0.48203069543E+02  0.41800000000E+01 0. -1.
         -5    1    4    4    0  501 -0.36536533289E+02  0.43336953405E+02 -0.13580954311E+03  0.14722334800E+03  0.41800000000E+01 0. -1.
</event>
<event>
11    1  0.8453735E-009  0.4567699E+03  0.7561462E-02  0.9495672E-01
         22   -1    0    0    0    0  0.00000000000E+00  0.00000000000E+00  0.30325775478E+04  0.30325775478E+04  0.00000000000E+00 0. -1.
         22   -1    0    0    0    0 -0.00000000000E+00 -0.00000000000E+00 -0.95678658504E+03  0.95678658504E+03  0.00000000000E+00 0.  1.
         24    2    1    2    0    0 -0.40182032200E+02  0.28846153539E+02 -0.86713341740E+03  0.87211439825E+03  0.78844554551E+02 0.  0.
         25    2    1    2    0    0  0.38327125862E+03 -0.28216874063E+03  0.87332239505E+03  0.10024249017E+04  0.12509045491E+03 0.  0.
        -24    2    1    2    0    0 -0.34308922642E+03  0.25332258709E+03  0.20696019851E+04  0.21148248330E+04  0.85727164965E+02 0.  0.
        -13    1    3    3    0    0 -0.62729802690E+02  0.10265356418E+02 -0.62527802562E+03  0.62850060860E+03  0.00000000000E+00 0.  1.
         14    1    3    3    0    0  0.22547770490E+02  0.18580797121E+02 -0.24185539177E+03  0.24361378965E+03  0.00000000000E+00 0. -1.
         11    1    5    5    0    0 -0.29200454902E+03  0.18265720430E+03  0.15357941364E+04  0.15739421655E+04  0.00000000000E+00 0. -1.
        -12    1    5    5    0    0 -0.51084677406E+02  0.70665382783E+02  0.53380784877E+03  0.54088266749E+03  0.00000000000E+00 0.  1.
          5    1    4    4  501    0  0.23151689292E+03 -0.93933180152E+02  0.42375397363E+03  0.49194350957E+03  0.41800000000E+01 0. -1.
         -5    1    4    4    0  501  0.15175436570E+03 -0.18823556047E+03  0.44956842142E+03  0.51048139210E+03  0.41800000000E+01 0. -1.
</event>
<event>
11    1  0.8453735E-009  0.6571331E+03  0.7561462E-02  0.9097974E-01
         22   -1    0    0    0    0  0.00000000000E+00  0.00000000000E+00  0.18930479978E+04  0.18930479978E+04  0.00000000000E+00 0. -1.
         22   -1    0    0    0    0 -0.00000000000E+00 -0.00000000000E+00 -0.65559385469E+03  0.65559385469E+03  0.00000000000E+00 0. -1.
         24    2    1    2    0    0 -0.19831401854E+03  0.61527106242E+03 -0.38058895141E+03  0.75433954157E+03  0.79330094167E+02 0.  0.
         25    2    1    2    0    0  0.17305279772E+03 -0.61264587530E+03  0.11680846658E+04  0.13361701798E+04  0.12508686482E+03 0.  0.
        -24    2    1    2    0    0  0.25261220815E+02 -0.26251871178E+01  0.44995842875E+03  0.45813213108E+03  0.82325215092E+02 0.  0.
        -11    1    3    3    0    0 -0.17311810416E+03  0.43993624538E+03 -0.29837866823E+03  0.55905599688E+03  0.00000000000E+00 0.  1.
         12    1    3    3    0    0 -0.25195914372E+02  0.17533481704E+03 -0.82210283176E+02  0.19528354469E+03  0.00000000000E+00 0. -1.
         11    1    5    5    0    0  0.15972248947E+02 -0.38218643280E+02  0.14002176763E+03  0.14602011108E+03  0.00000000000E+00 0. -1.
        -12    1    5    5    0    0  0.92889718685E+01  0.35593456162E+02  0.30993666112E+03  0.31211202000E+03  0.00000000000E+00 0.  1.
          5    1    4    4  501    0  0.61805773104E+02 -0.39701899316E+03  0.80079465099E+03  0.89595400550E+03  0.41800000000E+01 0. -1.
         -5    1    4    4    0  501  0.11124702462E+03 -0.21562688214E+03  0.36729001476E+03  0.44021617432E+03  0.41800000000E+01 0. -1.
</event>
<event>
11    1  0.8453735E-009  0.1316783E+03  0.7561462E-02  0.1117224E+00
         22   -1    0    0    0    0  0.00000000000E+00  0.00000000000E+00  0.12673562605E+03  0.12673562605E+03  0.00000000000E+00 0. -1.
         22   -1    0    0    0    0 -0.00000000000E+00 -0.00000000000E+00 -0.12748391234E+04  0.12748391234E+04  0.00000000000E+00 0.  1.
        -24    2    1    2    0    0  0.38649885210E+01  0.23498769118E+02 -0.80485824765E+03  0.80912588626E+03  0.79503274885E+02 0.  0.
         25    2    1    2    0    0  0.35435720283E+02 -0.10027565317E+02 -0.44053637588E+03  0.45943078784E+03  0.12509239786E+03 0.  0.
         24    2    1    2    0    0 -0.39300708804E+02 -0.13471203801E+02  0.97291126201E+02  0.13301807532E+03  0.80636381864E+02 0.  0.
        -13    1    5    5    0    0 -0.38227152135E+02 -0.26468395645E+02  0.13780527253E+02  0.48495299357E+02  0.00000000000E+00 0.  1.
         14    1    5    5    0    0 -0.10735566687E+01  0.12997191844E+02  0.83510598948E+02  0.84522775963E+02  0.00000000000E+00 0. -1.
         13    1    3    3    0    0  0.10235234779E+02  0.39302458495E+02 -0.20280691379E+03  0.20683347784E+03  0.00000000000E+00 0. -1.
        -14    1    3    3    0    0 -0.63702462576E+01 -0.15803689377E+02 -0.60205133386E+03  0.60229240842E+03  0.00000000000E+00 0.  1.
          5    1    4    4  501    0 -0.50958217940E+01 -0.35417766123E+02 -0.38213224263E+03  0.38382666506E+03  0.41800000000E+01 0.  1.
         -5    1    4    4    0  501  0.40531542077E+02  0.25390200806E+02 -0.58404133254E+02  0.75604122779E+02  0.41800000000E+01 0.  1.
</event>
<event>
11    1  0.8453735E-009  0.1369707E+03  0.7561462E-02  0.1110989E+00
         22   -1    0    0    0    0  0.00000000000E+00  0.00000000000E+00  0.42224832310E+03  0.42224832310E+03  0.00000000000E+00 0. -1.
         22   -1    0    0    0    0 -0.00000000000E+00 -0.00000000000E+00 -0.31091882875E+03  0.31091882875E+03  0.00000000000E+00 0. -1.
         24    2    1    2    0    0 -0.16936715795E+01 -0.26906159216E+02 -0.26633061835E+03  0.27987197247E+03  0.81667085036E+02 0.  0.
         25    2    1    2    0    0  0.48243472323E+02  0.49894475321E+02  0.15555950845E+03  0.21134121240E+03  0.12509778616E+03 0.  0.
        -24    2    1    2    0    0 -0.46549800744E+02 -0.22988316105E+02  0.22210060425E+03  0.24195396697E+03  0.80732255623E+02 0.  0.
        -13    1    3    3    0    0  0.29356788849E+02  0.90725553182E+01 -0.16643634011E+03  0.16924889252E+03  0.00000000000E+00 0.  1.
         14    1    3    3    0    0 -0.31050460429E+02 -0.35978714534E+02 -0.99894278244E+02  0.11062307995E+03  0.00000000000E+00 0. -1.
         13    1    5    5    0    0 -0.34305923813E+02 -0.33135672194E+02  0.22091775126E+03  0.22600779191E+03  0.00000000000E+00 0. -1.
        -14    1    5    5    0    0 -0.12243876931E+02  0.10147356089E+02  0.11828529862E+01  0.15946175061E+02  0.00000000000E+00 0.  1.
          5    1    4    4  501    0 -0.37187060423E+02  0.22124511354E+02  0.18124402908E+02  0.47099234031E+02  0.41800000000E+01 0. -1.
         -5    1    4    4    0  501  0.85430532746E+02  0.27769963967E+02  0.13743510554E+03  0.16424197837E+03  0.41800000000E+01 0. -1.
</event>
<event>
11    1  0.8453735E-009  0.1353761E+03  0.7561462E-02  0.1112834E+00
         22   -1    0    0    0    0  0.00000000000E+00  0.00000000000E+00  0.53605266835E+03  0.53605266835E+03  0.00000000000E+00 0.  1.
         22   -1    0    0    0    0 -0.00000000000E+00 -0.00000000000E+00 -0.45818642555E+03  0.45818642555E+03  0.00000000000E+00 0.  1.
        -24    2    1    2    0    0  0.42194597422E+02  0.18509597457E+02 -0.23911849410E+03  0.25572763088E+03  0.78076742550E+02 0.  0.
         25    2    1    2    0    0 -0.65759331498E+02 -0.20370727977E+02 -0.18308457020E+03  0.23217900796E+03  0.12509146915E+03 0.  0.
         24    2    1    2    0    0  0.23564734075E+02  0.18611305196E+01  0.50006930711E+03  0.50633245505E+03  0.75792365199E+02 0.  0.
        -11    1    5    5    0    0 -0.15359016475E+01 -0.10277006005E+02  0.43983959566E+03  0.43996232312E+03  0.00000000000E+00 0.  1.
         12    1    5    5    0    0  0.25100635723E+02  0.12138136525E+02  0.60229711444E+02  0.66370131932E+02  0.00000000000E+00 0. -1.
         11    1    3    3    0    0 -0.21195032721E+02  0.17122052659E+02 -0.70442772057E+02  0.75528658365E+02  0.00000000000E+00 0. -1.
        -12    1    3    3    0    0  0.63389630144E+02  0.13875447985E+01 -0.16867572204E+03  0.18019897252E+03  0.00000000000E+00 0.  1.
          5    1    4    4  501    0 -0.29573110591E+02 -0.45462058727E+02 -0.12312157821E+02  0.55771222723E+02  0.41800000000E+01 0.  1.
         -5    1    4    4    0  501 -0.36186220907E+02  0.25091330751E+02 -0.17077241238E+03  0.17640778524E+03  0.41800000000E+01 0.  1.
</event>
<event>
11    1  0.8453735E-009  0.1507253E+03  0.7561462E-02  0.1096140E+00
         22   -1    0    0    0    0  0.00000000000E+00  0.00000000000E+00  0.54495412103E+03  0.54495412103E+03  0.00000000000E+00 0.  1.
         22   -1    0    0    0    0 -0.00000000000E+00 -0.00000000000E+00 -0.18926412291E+04  0.18926412291E+04  0.00000000000E+00 0.  1.
         24    2    1    2    0    0  0.72931139642E+01  0.56143138344E+01 -0.18272468259E+04  0.18290309141E+04  0.80239716439E+02 0.  0.
         25    2    1    2    0    0 -0.29128539684E+02  0.76006019032E+02  0.41004095652E+02  0.15477595512E+03  0.12509545823E+03 0.  0.
        -24    2    1    2    0    0  0.21835425720E+02 -0.81620332866E+02  0.43855562217E+03  0.45378848088E+03  0.80338577804E+02 0.  0.
        -13    1    3    3    0    0  0.45385774971E+01  0.40870156657E+02 -0.12683514395E+04  0.12690178653E+04  0.00000000000E+00 0.  1.
         14    1    3    3    0    0  0.27545364671E+01 -0.35255842823E+02 -0.55889538637E+03  0.56001304880E+03  0.00000000000E+00 0. -1.
         11    1    5    5    0    0 -0.57051972547E+01 -0.11510073838E+02  0.50760477435E+01  0.13812940895E+02  0.00000000000E+00 0. -1.
        -12    1    5    5    0    0  0.27540622975E+02 -0.70110259028E+02  0.43347957443E+03  0.43997553998E+03  0.00000000000E+00 0.  1.
          5    1    4    4  501    0 -0.55248240586E+02  0.99293316869E+02  0.35415105522E+02  0.11909337917E+03  0.41800000000E+01 0. -1.
         -5    1    4    4    0  501  0.26119700902E+02 -0.23287297838E+02  0.55889901304E+01  0.35682575951E+02  0.41800000000E+01 0. -1.
</event>
<event>
11    1  0.8453735E-009  0.2443451E+03  0.7561462E-02  0.1026955E+00
         22   -1    0    0    0    0  0.00000000000E+00  0.00000000000E+00  0.24133492985E+04  0.24133492985E+04  0.00000000000E+00 0. -1.
         22   -1    0    0    0    0 -0.00000000000E+00 -0.00000000000E+00 -0.16309153869E+03  0.16309153869E+03  0.00000000000E+00 0. -1.
         24    2    1    2    0    0 -0.97573084628E+02 -0.68767595340E+02 -0.94666477050E+02  0.17255091614E+03  0.81009800461E+02 0.  0.
         25    2    1    2    0    0  0.54377773661E+02  0.25904562552E+03  0.98262401008E+03  0.10253098791E+04  0.12509526195E+03 0.  0.
        -24    2    1    2    0    0  0.43195310967E+02 -0.19027803018E+03  0.13623002267E+04  0.13785800419E+04  0.80928737728E+02 0.  0.
        -11    1    3    3    0    0 -0.14785711720E+01 -0.58166666695E+01  0.13493277447E+02  0.14767813654E+02  0.00000000000E+00 0.  1.
         12    1    3    3    0    0 -0.96094513456E+02 -0.62950928670E+02 -0.10815975450E+03  0.15778310248E+03  0.00000000000E+00 0. -1.
         11    1    5    5    0    0 -0.16796299759E+01  0.44773662546E+01  0.61915280772E+01  0.78232336898E+01  0.00000000000E+00 0. -1.
        -12    1    5    5    0    0  0.44874940943E+02 -0.19475539643E+03  0.13561086987E+04  0.13707568082E+04  0.00000000000E+00 0.  1.
          5    1    4    4  501    0  0.14979682859E+01  0.20259151290E+03  0.55749842411E+03  0.59318422964E+03  0.41800000000E+01 0.  1.
         -5    1    4    4    0  501  0.52879805376E+02  0.56454112617E+02  0.42512558597E+03  0.43212564943E+03  0.41800000000E+01 0.  1.
</event>
<event>
11    1  0.8453735E-009  0.1417538E+03  0.7561462E-02  0.1105616E+00
         22   -1    0    0    0    0  0.00000000000E+00  0.00000000000E+00  0.21767155113E+03  0.21767155113E+03  0.00000000000E+00 0. -1.
         22   -1    0    0    0    0 -0.00000000000E+00 -0.00000000000E+00 -0.16969216795E+04  0.16969216795E+04  0.00000000000E+00 0. -1.
         24    2    1    2    0    0  0.39193735724E+02 -0.60050703299E+02 -0.10895146032E+04  0.10950942924E+04  0.83947618822E+02 0.  0.
         25    2    1    2    0    0 -0.79495356593E+02 -0.17479765315E+01 -0.58075701397E+03  0.59937199401E+03  0.12508201624E+03 0.  0.
        -24    2    1    2    0    0  0.40301620869E+02  0.61798679831E+02  0.19102148883E+03  0.22012694423E+03  0.80767350519E+02 0.  0.
        -13    1    3    3    0    0 -0.18952242343E+02 -0.45698906377E+02 -0.41913058243E+03  0.42204030929E+03  0.00000000000E+00 0.  1.
         14    1    3    3    0    0  0.58145978067E+02 -0.14351796922E+02 -0.67038402078E+03  0.67305398309E+03  0.00000000000E+00 0. -1.
         13    1    5    5    0    0  0.20229671916E+02  0.74210125877E+02  0.10036781738E+03  0.12645189273E+03  0.00000000000E+00 0. -1.
        -14    1    5    5    0    0  0.20071948953E+02 -0.12411446046E+02  0.90653671447E+02  0.93675051505E+02  0.00000000000E+00 0.  1.
          5    1    4    4  501    0 -0.53750747884E+01  0.21867660155E+02 -0.13081259935E+02  0.26375703804E+02  0.41800000000E+01 0. -1.
         -5    1    4    4    0  501 -0.74120281805E+02 -0.23615636687E+02 -0.56767575404E+03  0.57299629021E+03  0.41800000000E+01 0. -1.
</event>
<event>
11    1  0.8453735E-009  0.2752662E+03  0.7561462E-02  0.1011239E+00
         22   -1    0    0    0    0  0.00000000000E+00  0.00000000000E+00  0.98901044325E+02  0.98901044325E+02  0.00000000000E+00 0.  1.
         22   -1    0    0    0    0 -0.00000000000E+00 -0.00000000000E+00 -0.13586322637E+04  0.13586322637E+04  0.00000000000E+00 0. -1.
        -24    2    1    2    0    0  0.17813760673E+02  0.23911799391E+02 -0.39935235189E+03  0.40840322097E+03  0.80136045086E+02 0.  0.
         25    2    1    2    0    0  0.22724223008E+03  0.29945733920E+02 -0.68694782837E+03  0.73490204708E+03  0.12509165356E+03 0.  0.
         24    2    1    2    0    0 -0.24505599076E+03 -0.53857533311E+02 -0.17343103912E+03  0.31422803998E+03  0.75550402227E+02 0.  0.
        -11    1    5    5    0    0 -0.18352786668E+03 -0.73038664731E+02 -0.12794448788E+03  0.23534425077E+03  0.00000000000E+00 0.  1.
         12    1    5    5    0    0 -0.61528124078E+02  0.19181131420E+02 -0.45486551246E+02  0.78883789205E+02  0.00000000000E+00 0. -1.
         13    1    3    3    0    0 -0.57548098328E+01  0.50735665175E+01 -0.35307761428E+03  0.35316095568E+03  0.00000000000E+00 0. -1.
        -14    1    3    3    0    0  0.23568570505E+02  0.18838232873E+02 -0.46274737606E+02  0.55242265287E+02  0.00000000000E+00 0.  1.
          5    1    4    4  501    0  0.35538084619E+02 -0.40561770163E+02 -0.10461385488E+03  0.11776987599E+03  0.41800000000E+01 0.  1.
         -5    1    4    4    0  501  0.19170414546E+03  0.70507504083E+02 -0.58233397348E+03  0.61713217109E+03  0.41800000000E+01 0.  1.
</event>
<event>
11    1  0.8453735E-009  0.1402567E+03  0.7561462E-02  0.1107272E+00
         22   -1    0    0    0    0  0.00000000000E+00  0.00000000000E+00  0.11099395206E+04  0.11099395206E+04  0.00000000000E+00 0. -1.
         22   -1    0    0    0    0 -0.00000000000E+00 -0.00000000000E+00 -0.56869146104E+02  0.56869146104E+02  0.00000000000E+00 0.  1.
        -24    2    1    2    0    0 -0.25890358045E+02 -0.16327161021E+02  0.19471029830E+02  0.87474406314E+02  0.79597512088E+02 0.  0.
         25    2    1    2    0    0  0.70348013436E+01  0.75579824450E+02  0.25407608731E+03  0.29319575750E+03  0.12508915134E+03 0.  0.
         24    2    1    2    0    0  0.18855556701E+02 -0.59252663429E+02  0.77952325738E+03  0.78613850291E+03  0.80565667743E+02 0.  0.
        -13    1    5    5    0    0  0.61012602431E+01  0.20111117137E+02  0.13595416166E+03  0.13756895173E+03  0.00000000000E+00 0.  1.
         14    1    5    5    0    0  0.12754296458E+02 -0.79363780566E+02  0.64356909572E+03  0.64856955118E+03  0.00000000000E+00 0. -1.
         13    1    3    3    0    0  0.25732839046E+02 -0.20001625839E+02  0.13862150152E+02  0.35417555653E+02  0.00000000000E+00 0. -1.
        -14    1    3    3    0    0 -0.51623197090E+02  0.36744648182E+01  0.56088796780E+01  0.52056850661E+02  0.00000000000E+00 0.  1.
          5    1    4    4  501    0 -0.25126072175E+02 -0.22737677765E+02  0.26645661036E+02  0.43310335316E+02  0.41800000000E+01 0. -1.
         -5    1    4    4    0  501  0.32160873518E+02  0.98317502216E+02  0.22743042627E+03  0.24988542219E+03  0.41800000000E+01 0. -1.
</event>
<event>
11    1  0.8453735E-009  0.1601479E+03  0.7561462E-02  0.1086938E+00
         22   -1    0    0    0    0  0.00000000000E+00  0.00000000000E+00  0.17517247796E+03  0.17517247796E+03  0.00000000000E+00 0.  1.
         22   -1    0    0    0    0 -0.00000000000E+00 -0.00000000000E+00 -0.11591979037E+04  0.11591979037E+04  0.00000000000E+00 0.  1.
        -24    2    1    2    0    0  0.17068047832E+02  0.92667490665E+02 -0.90991121632E+03  0.91798142222E+03  0.76634769374E+02 0.  0.
         25    2    1    2    0    0 -0.46283968629E+02 -0.17613788276E+03 -0.15557221655E+03  0.27022496198E+03  0.12510817727E+03 0.  0.
         24    2    1    2    0    0  0.29215920796E+02  0.83470392092E+02  0.81458007084E+02  0.14616399751E+03  0.83112158348E+02 0.  0.
        -13    1    5    5    0    0  0.12762755368E+02  0.86825075453E+02  0.31141680262E+02  0.93119739591E+02  0.00000000000E+00 0.  1.
         14    1    5    5    0    0  0.16453165429E+02 -0.33546833605E+01  0.50316326822E+02  0.53044257917E+02  0.00000000000E+00 0. -1.
         11    1    3    3    0    0 -0.17617004929E+02  0.31869444827E+02 -0.13210229123E+03  0.13702932432E+03  0.00000000000E+00 0. -1.
        -12    1    3    3    0    0  0.34685052762E+02  0.60798045838E+02 -0.77780892509E+03  0.78095209790E+03  0.00000000000E+00 0.  1.
          5    1    4    4  501    0 -0.65492569781E+02 -0.48867098608E+02 -0.22096812108E+02  0.84752649093E+02  0.41800000000E+01 0. -1.
         -5    1    4    4    0  501  0.19208601152E+02 -0.12727078415E+03 -0.13347540444E+03  0.18547231288E+03  0.41800000000E+01 0. -1.
</event>
<event>
11    1  0.8453735E-009  0.1590083E+03  0.7561462E-02  0.1088014E+00
         22   -1    0    0    0    0  0.00000000000E+00  0.00000000000E+00  0.97335239310E+03  0.97335239310E+03  0.00000000000E+00 0.  1.
         22   -1    0    0    0    0 -0.00000000000E+00 -0.00000000000E+00 -0.28022642469E+03  0.28022642469E+03  0.00000000000E+00 0.  1.
        -24    2    1    2    0    0 -0.76365729922E+02 -0.62030720309E+02 -0.24303564596E+03  0.27515966239E+03  0.83468434944E+02 0.  0.
         25    2    1    2    0    0  0.95516463849E+02  0.29998828456E+02  0.34496753475E+03  0.38035774631E+03  0.12508433382E+03 0.  0.
         24    2    1    2    0    0 -0.19150733926E+02  0.32031891854E+02  0.59119407962E+03  0.59806140909E+03  0.82305628951E+02 0.  0.
        -11    1    5    5    0    0 -0.27361031327E+02 -0.19776352695E+02  0.32497008019E+03  0.32671896667E+03  0.00000000000E+00 0.  1.
         12    1    5    5    0    0  0.82102974011E+01  0.51808244548E+02  0.26622399943E+03  0.27134244242E+03  0.00000000000E+00 0. -1.
         11    1    3    3    0    0 -0.11049164362E+02  0.13734613972E+02 -0.73025460962E+01  0.19080116183E+02  0.00000000000E+00 0. -1.
        -12    1    3    3    0    0 -0.65316565560E+02 -0.75765334282E+02 -0.23573309986E+03  0.25607954621E+03  0.00000000000E+00 0.  1.
          5    1    4    4  501    0  0.54153592354E+02 -0.11009873492E+02  0.36379568957E+02  0.66293094034E+02  0.41800000000E+01 0. -1.
         -5    1    4    4    0  501  0.41362871495E+02  0.41008701948E+02  0.30858796579E+03  0.31406465227E+03  0.41800000000E+01 0. -1.
</event>
<event>
11    1  0.8453735E-009  0.2021002E+03  0.7561462E-02  0.1053048E+00
         22   -1    0    0    0    0  0.00000000000E+00  0.00000000000E+00  0.58795083677E+03  0.58795083677E+03  0.00000000000E+00 0.  1.
         22   -1    0    0    0    0 -0.00000000000E+00 -0.00000000000E+00 -0.80984933358E+03  0.80984933358E+03  0.00000000000E+00 0. -1.
         24    2    1    2    0    0 -0.45837122449E+02  0.93342844103E-01 -0.72648150934E+03  0.73025555255E+03  0.58281541842E+02 0.  0.
         25    2    1    2    0    0 -0.11800082636E+03 -0.40204409414E+02  0.60038320457E+02  0.18652759178E+03  0.12508938011E+03 0.  0.
        -24    2    1    2    0    0  0.16383794881E+03  0.40111066569E+02  0.44454469206E+03  0.48101702601E+03  0.72839720888E+02 0.  0.
        -13    1    3    3    0    0 -0.34741596919E+02 -0.18802900601E+02 -0.23588789017E+03  0.23917279184E+03  0.00000000000E+00 0.  1.
         14    1    3    3    0    0 -0.11095525530E+02  0.18896243445E+02 -0.49059361917E+03  0.49108276071E+03  0.00000000000E+00 0. -1.
         11    1    5    5    0    0  0.13129846631E+02 -0.13655970771E+02  0.21144179717E+02  0.28389342123E+02  0.00000000000E+00 0. -1.
        -12    1    5    5    0    0  0.15070810218E+03  0.53767037341E+02  0.42340051235E+03  0.45262768389E+03  0.00000000000E+00 0.  1.
          5    1    4    4  501    0 -0.36914046567E+01 -0.59586047633E+02  0.28588554837E+02  0.66324214346E+02  0.41800000000E+01 0. -1.
         -5    1    4    4    0  501 -0.11430942170E+03  0.19381638220E+02  0.31449765620E+02  0.12020337744E+03  0.41800000000E+01 0. -1.
</event>
<event>
11    1  0.8453735E-009  0.1312683E+03  0.7561462E-02  0.1117720E+00
         22   -1    0    0    0    0  0.00000000000E+00  0.00000000000E+00  0.16074636089E+04  0.16074636089E+04  0.00000000000E+00 0. -1.
         22   -1    0    0    0    0 -0.00000000000E+00 -0.00000000000E+00 -0.15042252118E+03  0.15042252118E+03  0.00000000000E+00 0.  1.
        -24    2    1    2    0    0  0.37531087646E+02 -0.35893352858E+01 -0.11174790934E+03  0.14554348209E+03  0.85286834091E+02 0.  0.
         25    2    1    2    0    0 -0.74901230021E+02 -0.20961749335E+02  0.24765230589E+03  0.28814602333E+03  0.12508747721E+03 0.  0.
         24    2    1    2    0    0  0.37370142374E+02  0.24551084621E+02  0.13211366912E+04  0.13241966247E+04  0.78072150764E+02 0.  0.
        -13    1    5    5    0    0 -0.13850562745E+02 -0.17287765598E+02  0.23252596870E+03  0.23357874700E+03  0.00000000000E+00 0.  1.
         14    1    5    5    0    0  0.51220705119E+02  0.41838850218E+02  0.10886107225E+04  0.10906178777E+04  0.00000000000E+00 0. -1.
         11    1    3    3    0    0 -0.26562976085E+02 -0.67184934952E+01 -0.46870290545E+02  0.54291380431E+02  0.00000000000E+00 0. -1.
        -12    1    3    3    0    0  0.64094063731E+02  0.31291582094E+01 -0.64877618795E+02  0.91252101659E+02  0.00000000000E+00 0.  1.
          5    1    4    4  501    0 -0.10306613108E+03  0.45245672473E+01  0.14031501564E+03  0.17420928534E+03  0.41800000000E+01 0. -1.
         -5    1    4    4    0  501  0.28164901063E+02 -0.25486316582E+02  0.10733729025E+03  0.11393673798E+03  0.41800000000E+01 0. -1.
</event>
<event>
11    1  0.8453735E-009  0.1474598E+03  0.7561462E-02  0.1099503E+00
         22   -1    0    0    0    0  0.00000000000E+00  0.00000000000E+00  0.11596144035E+04  0.11596144035E+04  0.00000000000E+00 0. -1.
         22   -1    0    0    0    0 -0.00000000000E+00 -0.00000000000E+00 -0.31260872199E+03  0.31260872199E+03  0.00000000000E+00 0. -1.
        -24    2    1    2    0    0  0.67534723427E+01 -0.55243456337E+02 -0.25542185909E+03  0.27391975145E+03  0.81818428705E+02 0.  0.
         25    2    1    2    0    0 -0.84077356491E+02  0.58735009130E+02  0.10118403776E+03  0.19079728593E+03  0.12508633678E+03 0.  0.
         24    2    1    2    0    0  0.77323884148E+02 -0.34915527938E+01  0.10012435028E+04  0.10075060881E+04  0.81171371821E+02 0.  0.
        -13    1    5    5    0    0  0.52846232803E+02 -0.14495676816E+02  0.92599528346E+03  0.92761528338E+03  0.00000000000E+00 0.  1.
         14    1    5    5    0    0  0.24477651346E+02  0.11004124022E+02  0.75248219355E+02  0.79890804708E+02  0.00000000000E+00 0. -1.
         13    1    3    3    0    0 -0.12709137195E+02 -0.53359239087E+02 -0.24631653876E+03  0.25235008981E+03  0.00000000000E+00 0. -1.
        -14    1    3    3    0    0  0.19462609538E+02 -0.18842172494E+01 -0.91053203351E+01  0.21569661636E+02  0.00000000000E+00 0.  1.
          5    1    4    4  501    0  0.38683450790E+01  0.35402761571E+02  0.92611062476E+02  0.99310628401E+02  0.41800000000E+01 0.  1.
         -5    1    4    4    0  501 -0.87945701570E+02  0.23332247559E+02  0.85729752867E+01  0.91486657531E+02  0.41800000000E+01 0.  1.
</event>
<event>
11    1  0.8453735E-009  0.2946742E+03  0.7561462E-02  0.1002471E+00
         22   -1    0    0    0    0  0.00000000000E+00  0.00000000000E+00  0.42115218779E+03  0.42115218779E+03  0.00000000000E+00 0.  1.
         22   -1    0    0    0    0 -0.00000000000E+00 -0.00000000000E+00 -0.15376901894E+04  0.15376901894E+04  0.00000000000E+00 0. -1.
        -24    2    1    2    0    0  0.11852073158E+02 -0.95973316115E+01 -0.15337871002E+03  0.17298649855E+03  0.78528463508E+02 0.  0.
         25    2    1    2    0    0  0.25469888853E+03  0.28279733950E+02 -0.13099212521E+04  0.13406015779E+04  0.12509051439E+03 0.  0.
         24    2    1    2    0    0 -0.26655096169E+03 -0.18682402338E+02  0.34676196050E+03  0.44525430076E+03  0.81296296142E+02 0.  0.
        -13    1    5    5    0    0 -0.26088458921E+03 -0.24870604452E+02  0.34912206785E+03  0.43653812447E+03  0.00000000000E+00 0.  1.
         14    1    5    5    0    0 -0.56663724763E+01  0.61882021137E+01 -0.23601073559E+01  0.87161762930E+01  0.00000000000E+00 0. -1.
         11    1    3    3    0    0  0.30710780895E+02 -0.33775396276E+02 -0.64914638470E+02  0.79358929834E+02  0.00000000000E+00 0. -1.
        -12    1    3    3    0    0 -0.18858707737E+02  0.24178064664E+02 -0.88464071545E+02  0.93627568711E+02  0.00000000000E+00 0.  1.
          5    1    4    4  501    0  0.19485371973E+03  0.60205256729E+02 -0.11302108435E+04  0.11484714486E+04  0.41800000000E+01 0.  1.
         -5    1    4    4    0  501  0.59845168802E+02 -0.31925522779E+02 -0.17971040855E+03  0.19213012928E+03  0.41800000000E+01 0.  1.
</event>
<event>
11    1  0.8453735E-009  0.1753495E+03  0.7561462E-02  0.1073468E+00
         22   -1    0    0    0    0  0.00000000000E+00  0.00000000000E+00  0.31528439046E+04  0.31528439046E+04  0.00000000000E+00 0.  1.
         22   -1    0    0    0    0 -0.00000000000E+00 -0.00000000000E+00 -0.74928472630E+03  0.74928472630E+03  0.00000000000E+00 0.  1.
        -24    2    1    2    0    0  0.19580884820E+02 -0.42171660559E+02 -0.72336846085E+03  0.72938087760E+03  0.81072032485E+02 0.  0.
         25    2    1    2    0    0  0.88017590698E+02  0.10085182260E+03  0.37954052434E+03  0.42144661508E+03  0.12509217943E+03 0.  0.
         24    2    1    2    0    0 -0.10759847552E+03 -0.58680162044E+02  0.27473871148E+04  0.27513011382E+04  0.80630026251E+02 0.  0.
        -11    1    5    5    0    0 -0.55880564209E+02 -0.66205585690E+02  0.21088375952E+04  0.21106164550E+04  0.00000000000E+00 0.  1.
         12    1    5    5    0    0 -0.51717911309E+02  0.75254236454E+01  0.63854951962E+03  0.64068468326E+03  0.00000000000E+00 0. -1.
         13    1    3    3    0    0 -0.14858450375E+02 -0.84381466814E+01 -0.31509867327E+02  0.35844770970E+02  0.00000000000E+00 0. -1.
        -14    1    3    3    0    0  0.34439335194E+02 -0.33733513878E+02 -0.69185859353E+03  0.69353610663E+03  0.00000000000E+00 0.  1.
          5    1    4    4  501    0  0.46707048265E+02 -0.16547396474E+02  0.17549573074E+03  0.18240501253E+03  0.41800000000E+01 0. -1.
         -5    1    4    4    0  501  0.41310542433E+02  0.11739921908E+03  0.20404479359E+03  0.23904160255E+03  0.41800000000E+01 0. -1.
</event>
<event>
11    1  0.9535144E-009  0.1583150E+03  0.7561462E-02  0.1088673E+00
         22   -1    0    0    0    0  0.00000000000E+00  0.00000000000E+00  0.45458811695E+03  0.45458811695E+03  0.00000000000E+00 0. -1.
         22   -1    0    0    0    0 -0.00000000000E+00 -0.00000000000E+00 -0.50258520642E+03  0.50258520642E+03  0.00000000000E+00 0.  1.
         24    2    1    2    0    0  0.43294391275E+02  0.34167929132E+02 -0.28915297224E+03  0.30567360346E+03  0.82371468356E+02 0.  0.
         25    2    1    2    0    0 -0.12681053174E+03  0.13171271963E+02 -0.15456345698E+03  0.23620837687E+03  0.12510052639E+03 0.  0.
        -24    2    1    2    0    0  0.83516140468E+02 -0.47339201095E+02  0.39571933975E+03  0.41529134304E+03  0.81591409314E+02 0.  0.
        -11    1    3    3    0    0  0.24489136128E+02 -0.26222698654E+02 -0.10427713700E+03  0.11027723706E+03  0.00000000000E+00 0.  1.
         12    1    3    3    0    0  0.18805255147E+02  0.60390627786E+02 -0.18487583524E+03  0.19539636640E+03  0.00000000000E+00 0. -1.
         13    1    5    5    0    0  0.64569643393E+02 -0.59797514740E+02  0.37281403530E+03  0.38306042152E+03  0.00000000000E+00 0. -1.
        -14    1    5    5    0    0  0.18946497075E+02  0.12458313645E+02  0.22905304449E+02  0.32230921523E+02  0.00000000000E+00 0.  1.
          5    1    4    4  501    0 -0.11523190711E+03 -0.38002066528E+02 -0.81759777325E+02  0.14637172905E+03  0.41800000000E+01 0.  1.
         -5    1    4    4    0  501 -0.11578624636E+02  0.51173338491E+02 -0.72803679654E+02  0.89836647822E+02  0.41800000000E+01 0.  1.
</event>
<event>
11    1  0.8453735E-009  0.1526145E+03  0.7561462E-02  0.1094237E+00
         22   -1    0    0    0    0  0.00000000000E+00  0.00000000000E+00  0.19568619960E+03  0.19568619960E+03  0.00000000000E+00 0. -1.
         22   -1    0    0    0    0 -0.00000000000E+00 -0.00000000000E+00 -0.25090352849E+03  0.25090352849E+03  0.00000000000E+00 0.  1.
         24    2    1    2    0    0  0.60188425454E+02  0.38977182160E+02 -0.95093101610E+02  0.14312175019E+03  0.79367941361E+02 0.  0.
         25    2    1    2    0    0 -0.13121058171E+03 -0.36862532400E+02 -0.82864686347E+01  0.18518034646E+03  0.12509209450E+03 0.  0.
        -24    2    1    2    0    0  0.71022156254E+02 -0.21146497601E+01  0.48162241355E+02  0.11828763143E+03  0.81386386057E+02 0.  0.
        -11    1    3    3    0    0  0.45377252179E+02  0.48126596206E+02 -0.24698760479E+02  0.70606607672E+02  0.00000000000E+00 0.  1.
         12    1    3    3    0    0  0.14811173275E+02 -0.91494140463E+01 -0.70394341130E+02  0.72515142517E+02  0.00000000000E+00 0. -1.
         13    1    5    5    0    0  0.69251735663E+02  0.25992393837E+02  0.16263724148E+02  0.75735831368E+02  0.00000000000E+00 0. -1.
        -14    1    5    5    0    0  0.17704205902E+01 -0.28107043597E+02  0.31898517207E+02  0.42551800066E+02  0.00000000000E+00 0.  1.
          5    1    4    4  501    0 -0.11099720655E+03 -0.30234161734E+02 -0.59487336647E+02  0.12957893355E+03  0.41800000000E+01 0.  1.
         -5    1    4    4    0  501 -0.20213375156E+02 -0.66283706656E+01  0.51200868012E+02  0.55601412915E+02  0.41800000000E+01 0.  1.
</event>
<event>
11    1  0.8453735E-009  0.1443660E+03  0.7561462E-02  0.1102779E+00
         22   -1    0    0    0    0  0.00000000000E+00  0.00000000000E+00  0.16166718500E+04  0.16166718500E+04  0.00000000000E+00 0. -1.
         22   -1    0    0    0    0 -0.00000000000E+00 -0.00000000000E+00 -0.48928256957E+02  0.48928256957E+02  0.00000000000E+00 0.  1.
         24    2    1    2    0    0  0.32899111856E+02  0.83240963212E+01  0.17197389935E+02  0.89463365290E+02  0.80970990904E+02 0.  0.
         25    2    1    2    0    0 -0.25493793495E+02  0.65550796142E+02  0.50389733370E+03  0.52393413316E+03  0.12509041766E+03 0.  0.
        -24    2    1    2    0    0 -0.74053183609E+01 -0.73874892463E+02  0.10466488694E+04  0.10522026085E+04  0.78384533259E+02 0.  0.
        -11    1    3    3    0    0  0.85125002213E+01 -0.87778963727E+01 -0.30708135559E+02  0.33053043948E+02  0.00000000000E+00 0.  1.
         12    1    3    3    0    0  0.24386611635E+02  0.17101992694E+02  0.47905525493E+02  0.56410321342E+02  0.00000000000E+00 0. -1.
         11    1    5    5    0    0 -0.23373472442E+02 -0.83555636343E+02  0.93347925742E+03  0.93750274005E+03  0.00000000000E+00 0. -1.
        -12    1    5    5    0    0  0.15968154081E+02  0.96807438806E+01  0.11316961201E+03  0.11469986848E+03  0.00000000000E+00 0.  1.
          5    1    4    4  501    0 -0.25706078599E+02 -0.89919762734E+01  0.36673628816E+03  0.36776981329E+03  0.41800000000E+01 0.  1.
         -5    1    4    4    0  501  0.21228510334E+00  0.74542772415E+02  0.13716104554E+03  0.15616431986E+03  0.41800000000E+01 0.  1.
</event>
<event>
11    1  0.8453735E-009  0.2004306E+03  0.7561462E-02  0.1054220E+00
         22   -1    0    0    0    0  0.00000000000E+00  0.00000000000E+00  0.10969121085E+04  0.10969121085E+04  0.00000000000E+00 0.  1.
         22   -1    0    0    0    0 -0.00000000000E+00 -0.00000000000E+00 -0.37038239529E+03  0.37038239529E+03  0.00000000000E+00 0.  1.
        -24    2    1    2    0    0  0.13317636997E+03  0.69597432517E+02 -0.25306253810E+03  0.30492361065E+03  0.79737143233E+02 0.  0.
         25    2    1    2    0    0 -0.20313998856E+03 -0.33014443504E+02  0.78584587306E+02  0.25333797434E+03  0.12509509761E+03 0.  0.
         24    2    1    2    0    0  0.69963618599E+02 -0.36582989012E+02  0.90100766402E+03  0.90903291882E+03  0.91064888222E+02 0.  0.
        -13    1    5    5    0    0  0.28282837349E+02 -0.16056529211E+01  0.70622670075E+03  0.70679463061E+03  0.00000000000E+00 0.  1.
         14    1    5    5    0    0  0.41680781251E+02 -0.34977336091E+02  0.19478096327E+03  0.20223828821E+03  0.00000000000E+00 0. -1.
         13    1    3    3    0    0  0.64188384121E+02  0.56232125268E+02 -0.75420717819E+02  0.11388803820E+03  0.00000000000E+00 0. -1.
        -14    1    3    3    0    0  0.68987985844E+02  0.13365307248E+02 -0.17764182028E+03  0.19103557245E+03  0.00000000000E+00 0.  1.
          5    1    4    4  501    0 -0.20962704660E+03 -0.30099855635E+01  0.71618413805E+02  0.22158345668E+03  0.41800000000E+01 0.  1.
         -5    1    4    4    0  501  0.64870580363E+01 -0.30004457941E+02  0.69661735014E+01  0.31754517655E+02  0.41800000000E+01 0.  1.
</event>
<event>
11    1  0.8453735E-009  0.1275581E+03  0.7561462E-02  0.1122306E+00
         22   -1    0    0    0    0  0.00000000000E+00  0.00000000000E+00  0.12994151424E+04  0.12994151424E+04  0.00000000000E+00 0. -1.
         22   -1    0    0    0    0 -0.00000000000E+00 -0.00000000000E+00 -0.14630273466E+03  0.14630273466E+03  0.00000000000E+00 0. -1.
         24    2    1    2    0    0  0.12893631737E+02 -0.21344441678E+02 -0.11613962765E+03  0.14404286643E+03  0.81474556325E+02 0.  0.
         25    2    1    2    0    0 -0.20935599788E+01  0.28108380057E+02  0.26674239708E+03  0.29596343787E+03  0.12509350957E+03 0.  0.
        -24    2    1    2    0    0 -0.10800071758E+02 -0.67639383796E+01  0.10025096383E+04  0.10057115727E+04  0.79169440245E+02 0.  0.
        -11    1    3    3    0    0  0.60280443566E+01 -0.42010830195E+02 -0.22762352464E+02  0.48159857373E+02  0.00000000000E+00 0.  1.
         12    1    3    3    0    0  0.68655873805E+01  0.20666388518E+02 -0.93377275186E+02  0.95883009056E+02  0.00000000000E+00 0. -1.
         11    1    5    5    0    0 -0.29284420234E+02  0.17647317747E+02  0.81511725854E+03  0.81583402127E+03  0.00000000000E+00 0. -1.
        -12    1    5    5    0    0  0.18484348476E+02 -0.24411256126E+02  0.18739237976E+03  0.18987755148E+03  0.00000000000E+00 0.  1.
          5    1    4    4  501    0  0.25408864207E+02  0.61201885197E+02  0.78476289255E+02  0.10279728356E+03  0.41800000000E+01 0. -1.
         -5    1    4    4    0  501 -0.27502424186E+02 -0.33093505140E+02  0.18826610782E+03  0.19316615432E+03  0.41800000000E+01 0. -1.
</event>
<event>
11    1  0.8453735E-009  0.1500276E+03  0.7561462E-02  0.1096851E+00
         22   -1    0    0    0    0  0.00000000000E+00  0.00000000000E+00  0.15148666394E+04  0.15148666394E+04  0.00000000000E+00 0.  1.
         22   -1    0    0    0    0 -0.00000000000E+00 -0.00000000000E+00 -0.25329885061E+04  0.25329885061E+04  0.00000000000E+00 0.  1.
        -24    2    1    2    0    0 -0.54964838894E+02 -0.72462171307E+02 -0.20367168995E+04  0.20403473752E+04  0.80807074303E+02 0.  0.
         25    2    1    2    0    0  0.15384063031E+02  0.41901020846E+02 -0.48401242215E+03  0.50190314529E+03  0.12508548083E+03 0.  0.
         24    2    1    2    0    0  0.39580775863E+02  0.30561150461E+02  0.15026074549E+04  0.15056046250E+04  0.80718656529E+02 0.  0.
        -13    1    5    5    0    0  0.40538352209E+02  0.49702625958E+02  0.74529407805E+03  0.74804877636E+03  0.00000000000E+00 0.  1.
         14    1    5    5    0    0 -0.95757634536E+00 -0.19141475497E+02  0.75731337682E+03  0.75755584860E+03  0.00000000000E+00 0. -1.
         11    1    3    3    0    0  0.18025817395E+02 -0.28670775510E+02 -0.79178177302E+03  0.79250572210E+03  0.00000000000E+00 0. -1.
        -12    1    3    3    0    0 -0.72990656289E+02 -0.43791395797E+02 -0.12449351264E+04  0.12478416531E+04  0.00000000000E+00 0.  1.
          5    1    4    4  501    0  0.26629810941E+02 -0.40013516083E+02 -0.14040823360E+03  0.14846606603E+03  0.41800000000E+01 0. -1.
         -5    1    4    4    0  501 -0.11245747910E+02  0.81914536929E+02 -0.34360418854E+03  0.35343707925E+03  0.41800000000E+01 0. -1.
</event>
<event>
11    1  0.8453735E-009  0.1498259E+03  0.7561462E-02  0.1097057E+00
         22   -1    0    0    0    0  0.00000000000E+00  0.00000000000E+00  0.27087070213E+03  0.27087070213E+03  0.00000000000E+00 0.  1.
         22   -1    0    0    0    0 -0.00000000000E+00 -0.00000000000E+00 -0.30878118896E+03  0.30878118896E+03  0.00000000000E+00 0.  1.
        -24    2    1    2    0    0 -0.28241163550E+02  0.74887691593E+02 -0.16483304104E+03  0.20354265571E+03  0.88622523109E+02 0.  0.
         25    2    1    2    0    0 -0.22550335399E+02 -0.99284377535E+02 -0.53975493117E+02  0.17007792569E+03  0.12508893516E+03 0.  0.
         24    2    1    2    0    0  0.50791498949E+02  0.24396685941E+02  0.18089804732E+03  0.20603130970E+03  0.80930973054E+02 0.  0.
        -13    1    5    5    0    0  0.40819094165E+02  0.35733088228E+02  0.18292271387E+03  0.19079772350E+03  0.00000000000E+00 0.  1.
         14    1    5    5    0    0  0.99724047845E+01 -0.11336402287E+02 -0.20246665412E+01  0.15233586203E+02  0.00000000000E+00 0. -1.
         11    1    3    3    0    0 -0.52150593329E+02  0.25374332036E+02 -0.51438913225E+02  0.77520983640E+02  0.00000000000E+00 0. -1.
        -12    1    3    3    0    0  0.23909429779E+02  0.49513359557E+02 -0.11339412782E+03  0.12602167207E+03  0.00000000000E+00 0.  1.
          5    1    4    4  501    0  0.24482258357E+02 -0.62913852652E+01  0.27608385411E+02  0.37665074642E+02  0.41800000000E+01 0.  1.
         -5    1    4    4    0  501 -0.47032593756E+02 -0.92992992269E+02 -0.81583878527E+02  0.13241285105E+03  0.41800000000E+01 0.  1.
</event>
<event>
11    1  0.8453735E-009  0.1699844E+03  0.7561462E-02  0.1078045E+00
         22   -1    0    0    0    0  0.00000000000E+00  0.00000000000E+00  0.71749299407E+03  0.71749299407E+03  0.00000000000E+00 0.  1.
         22   -1    0    0    0    0 -0.00000000000E+00 -0.00000000000E+00 -0.11340208787E+03  0.11340208787E+03  0.00000000000E+00 0. -1.
         24    2    1    2    0    0 -0.46338260498E+02  0.95672845797E+02  0.10356924582E+02  0.13383260827E+03  0.80643495346E+02 0.  0.
         25    2    1    2    0    0  0.16743745394E+02 -0.14396583538E+03  0.15418737538E+03  0.24582014687E+03  0.12508910070E+03 0.  0.
        -24    2    1    2    0    0  0.29594515104E+02  0.48292989582E+02  0.43954660624E+03  0.45124232679E+03  0.84913899120E+02 0.  0.
        -13    1    3    3    0    0 -0.45524066219E+02  0.89747026792E+01  0.80951939126E+01  0.47101147096E+02  0.00000000000E+00 0.  1.
         14    1    3    3    0    0 -0.81419427909E+00  0.86698143118E+02  0.22617306691E+01  0.86731461177E+02  0.00000000000E+00 0. -1.
         11    1    5    5    0    0  0.23631978672E+02 -0.38636982116E+00  0.27388581978E+02  0.36176706875E+02  0.00000000000E+00 0. -1.
        -12    1    5    5    0    0  0.59625364327E+01  0.48679359404E+02  0.41215802426E+03  0.41506561992E+03  0.00000000000E+00 0.  1.
          5    1    4    4  501    0  0.43369388527E+02 -0.13214726089E+03  0.68246635437E+02  0.15498025058E+03  0.41800000000E+01 0.  1.
         -5    1    4    4    0  501 -0.26625643133E+02 -0.11818574486E+02  0.85940739941E+02  0.90839896283E+02  0.41800000000E+01 0.  1.
</event>
<event>
11    1  0.8453735E-009  0.1696557E+03  0.7561462E-02  0.1078332E+00
         22   -1    0    0    0    0  0.00000000000E+00  0.00000000000E+00  0.20736086270E+04  0.20736086270E+04  0.00000000000E+00 0. -1.
         22   -1    0    0    0    0 -0.00000000000E+00 -0.00000000000E+00 -0.20418744562E+02  0.20418744562E+02  0.00000000000E+00 0.  1.
        -24    2    1    2    0    0  0.27965973694E+02  0.76170819843E+01  0.26135898953E+03  0.27514178632E+03  0.80959036244E+02 0.  0.
         25    2    1    2    0    0 -0.82561032768E+01  0.10931838174E+03  0.78868095118E+03  0.80602944163E+03  0.12508855344E+03 0.  0.
         24    2    1    2    0    0 -0.19709870417E+02 -0.11693546373E+03  0.10031499418E+04  0.10128561436E+04  0.74198250542E+02 0.  0.
        -11    1    5    5    0    0 -0.97504205381E+01 -0.77259427207E+02  0.35613550067E+03  0.36454983833E+03  0.00000000000E+00 0.  1.
         12    1    5    5    0    0 -0.99594498790E+01 -0.39676036519E+02  0.64701444110E+03  0.64830630531E+03  0.00000000000E+00 0. -1.
         13    1    3    3    0    0  0.37302189393E+02  0.57682574272E+01  0.26281663688E+03  0.26551329674E+03  0.00000000000E+00 0. -1.
        -14    1    3    3    0    0 -0.93362156990E+01  0.18488245571E+01 -0.14576473462E+01  0.96284895808E+01  0.00000000000E+00 0.  1.
          5    1    4    4  501    0  0.21879215047E+02  0.25360150550E+02  0.55249643082E+03  0.55352652669E+03  0.41800000000E+01 0. -1.
         -5    1    4    4    0  501 -0.30135318324E+02  0.83958231192E+02  0.23618452036E+03  0.25250291494E+03  0.41800000000E+01 0. -1.
</event>
<event>
11    1  0.8453735E-009  0.1340404E+03  0.7561462E-02  0.1114402E+00
         22   -1    0    0    0    0  0.00000000000E+00  0.00000000000E+00  0.20992820328E+03  0.20992820328E+03  0.00000000000E+00 0.  1.
         22   -1    0    0    0    0 -0.00000000000E+00 -0.00000000000E+00 -0.55246405322E+03  0.55246405322E+03  0.00000000000E+00 0. -1.
        -24    2    1    2    0    0 -0.14904052611E+02 -0.25395663533E+02 -0.44311902725E+03  0.45187669846E+03  0.83492561318E+02 0.  0.
         25    2    1    2    0    0  0.11831752972E+01  0.68724759738E+02 -0.35057375222E+02  0.14697348516E+03  0.12509074018E+03 0.  0.
         24    2    1    2    0    0  0.13720877314E+02 -0.43329096205E+02  0.13564055253E+03  0.16354207288E+03  0.79258924149E+02 0.  0.
        -11    1    5    5    0    0  0.14692138953E+02 -0.53800611028E+02  0.14107908419E+03  0.15170257971E+03  0.00000000000E+00 0.  1.
         12    1    5    5    0    0 -0.97126163882E+00  0.10471514823E+02 -0.54385316592E+01  0.11839493168E+02  0.00000000000E+00 0. -1.
         11    1    3    3    0    0 -0.46652522135E+02  0.22348731652E+00 -0.20086795190E+03  0.20621455300E+03  0.00000000000E+00 0. -1.
        -12    1    3    3    0    0  0.31748469524E+02 -0.25619150849E+02 -0.24225107535E+03  0.24566214547E+03  0.00000000000E+00 0.  1.
          5    1    4    4  501    0  0.41210287282E+01  0.70184098357E+02  0.33654160681E+02  0.78056809255E+02  0.41800000000E+01 0. -1.
         -5    1    4    4    0  501 -0.29378534310E+01 -0.14593386194E+01 -0.68711535903E+02  0.68916675907E+02  0.41800000000E+01 0. -1.
</event>
<event>
11    1  0.8453735E-009  0.1613238E+03  0.7561462E-02  0.1085839E+00
         22   -1    0    0    0    0  0.00000000000E+00  0.00000000000E+00  0.82026774736E+03  0.82026774736E+03  0.00000000000E+00 0.  1.
         22   -1    0    0    0    0 -0.00000000000E+00 -0.00000000000E+00 -0.16815973335E+03  0.16815973335E+03  0.00000000000E+00 0. -1.
        -24    2    1    2    0    0  0.89341601683E+02  0.46465594569E+02 -0.99261091530E+02  0.16430002965E+03  0.83670557429E+02 0.  0.
         25    2    1    2    0    0 -0.10835319720E+03 -0.28457605472E+02  0.18355952055E+03  0.24878030970E+03  0.12508914524E+03 0.  0.
         24    2    1    2    0    0  0.19011595517E+02 -0.18007989097E+02  0.56780958499E+03  0.57534714137E+03  0.89055487365E+02 0.  0.
        -13    1    5    5    0    0  0.48297696658E+02 -0.23531988503E+02  0.47099555333E+03  0.47404982147E+03  0.00000000000E+00 0.  1.
         14    1    5    5    0    0 -0.29286101141E+02  0.55239994059E+01  0.96814031669E+02  0.10129731989E+03  0.00000000000E+00 0. -1.
         13    1    3    3    0    0  0.89447245299E+02  0.51462655346E+02 -0.11098915423E+03  0.15155133435E+03  0.00000000000E+00 0. -1.
        -14    1    3    3    0    0 -0.10564361604E+00 -0.49970607765E+01  0.11728062702E+02  0.12748695295E+02  0.00000000000E+00 0.  1.
          5    1    4    4  501    0 -0.10870686840E+03 -0.60170005627E+02  0.10078494340E+03  0.16003965143E+03  0.41800000000E+01 0.  1.
         -5    1    4    4    0  501  0.35367120023E+00  0.31712400155E+02  0.82774577150E+02  0.88740658265E+02  0.41800000000E+01 0.  1.
</event>
<event>
11    1  0.8453735E-009  0.1262701E+03  0.7561462E-02  0.1123939E+00
         22   -1    0    0    0    0  0.00000000000E+00  0.00000000000E+00  0.21196967483E+04  0.21196967483E+04  0.00000000000E+00 0. -1.
         22   -1    0    0    0    0 -0.00000000000E+00 -0.00000000000E+00 -0.50552739963E+02  0.50552739963E+02  0.00000000000E+00 0. -1.
        -24    2    1    2    0    0 -0.15791948220E+02 -0.11135357955E+02  0.25371770827E+01  0.76380051030E+02  0.73851832085E+02 0.  0.
         25    2    1    2    0    0 -0.16530158997E+01  0.50166739441E+01  0.29633739138E+03  0.32170196622E+03  0.12509358922E+03 0.  0.
         24    2    1    2    0    0  0.17444964120E+02  0.61186840106E+01  0.17702694399E+04  0.17721674710E+04  0.79886735322E+02 0.  0.
        -13    1    5    5    0    0  0.73733721790E+01  0.83727242164E+01  0.32393418872E+02  0.34260804345E+02  0.00000000000E+00 0.  1.
         14    1    5    5    0    0  0.10071591941E+02 -0.22540402058E+01  0.17378760210E+04  0.17379066666E+04  0.00000000000E+00 0. -1.
         13    1    3    3    0    0 -0.28106877468E+02 -0.36917125090E+02 -0.54361939805E+01  0.46716409225E+02  0.00000000000E+00 0. -1.
        -14    1    3    3    0    0  0.12314929247E+02  0.25781767136E+02  0.79733710632E+01  0.29663641804E+02  0.00000000000E+00 0.  1.
          5    1    4    4  501    0  0.37098590290E+02 -0.46047512589E+02  0.11609689660E+03  0.13035582310E+03  0.41800000000E+01 0.  1.
         -5    1    4    4    0  501 -0.38751606190E+02  0.51064186533E+02  0.18024049478E+03  0.19134614312E+03  0.41800000000E+01 0.  1.
</event>
<event>
11    1  0.8453735E-009  0.1659786E+03  0.7561462E-02  0.1081585E+00
         22   -1    0    0    0    0  0.00000000000E+00  0.00000000000E+00  0.10886396997E+04  0.10886396997E+04  0.00000000000E+00 0. -1.
         22   -1    0    0    0    0 -0.00000000000E+00 -0.00000000000E+00 -0.42896150419E+03  0.42896150419E+03  0.00000000000E+00 0.  1.
        -24    2    1    2    0    0 -0.48667068849E+02 -0.31216016375E+02 -0.39620172105E+03  0.40847455725E+03  0.80825348091E+02 0.  0.
         25    2    1    2    0    0  0.12992482396E+03  0.80286681221E+02  0.46472251614E+03  0.50491675438E+03  0.12508997077E+03 0.  0.
         24    2    1    2    0    0 -0.81257755116E+02 -0.49070664846E+02  0.59115740044E+03  0.60420989227E+03  0.81189709376E+02 0.  0.
        -13    1    5    5    0    0  0.57663371625E+01 -0.11589250053E+02  0.13021710504E+02  0.18360999578E+02  0.00000000000E+00 0.  1.
         14    1    5    5    0    0 -0.87024092279E+02 -0.37481414793E+02  0.57813568993E+03  0.58584889269E+03  0.00000000000E+00 0. -1.
         13    1    3    3    0    0 -0.66925330107E+01  0.24624008829E+02 -0.61922335233E+02  0.66973930821E+02  0.00000000000E+00 0. -1.
        -14    1    3    3    0    0 -0.41974535838E+02 -0.55840025204E+02 -0.33427938581E+03  0.34150062643E+03  0.00000000000E+00 0.  1.
          5    1    4    4  501    0  0.84330863231E+02  0.87785562848E+02  0.18581775421E+03  0.22217945386E+03  0.41800000000E+01 0. -1.
         -5    1    4    4    0  501  0.45593960734E+02 -0.74988816266E+01  0.27890476193E+03  0.28273730052E+03  0.41800000000E+01 0. -1.
</event>
<event>
11    1  0.8453735E-009  0.1348363E+03  0.7561462E-02  0.1113465E+00
         22   -1    0    0    0    0  0.00000000000E+00  0.00000000000E+00  0.28755896044E+04  0.28755896044E+04  0.00000000000E+00 0.  1.
         22   -1    0    0    0    0 -0.00000000000E+00 -0.00000000000E+00 -0.34077739861E+03  0.34077739861E+03  0.00000000000E+00 0.  1.
        -24    2    1    2    0    0  0.26999764022E+01 -0.93971927620E+01 -0.32423855789E+03  0.33413164026E+03  0.80110632844E+02 0.  0.
         25    2    1    2    0    0 -0.43494417869E+02  0.37892487393E+02  0.43181963500E+03  0.45325820885E+03  0.12508877540E+03 0.  0.
         24    2    1    2    0    0  0.40794441467E+02 -0.28495294631E+02  0.24272311287E+04  0.24289771539E+04  0.77478344217E+02 0.  0.
        -11    1    5    5    0    0  0.34420061271E+02 -0.50587577615E+02  0.12259289382E+04  0.12274549300E+04  0.00000000000E+00 0.  1.
         12    1    5    5    0    0  0.63743801956E+01  0.22092282984E+02  0.12013021905E+04  0.12015222240E+04  0.00000000000E+00 0. -1.
         13    1    3    3    0    0 -0.90121035364E+01 -0.12102303061E+02 -0.69454659291E+01  0.16610937556E+02  0.00000000000E+00 0. -1.
        -14    1    3    3    0    0  0.11712079939E+02  0.27051102987E+01 -0.31729309196E+03  0.31752070270E+03  0.00000000000E+00 0.  1.
          5    1    4    4  501    0  0.25407318676E+02 -0.16631097519E+02  0.33779643252E+02  0.45614273481E+02  0.41800000000E+01 0. -1.
         -5    1    4    4    0  501 -0.68901736545E+02  0.54523584912E+02  0.39803999174E+03  0.40764393536E+03  0.41800000000E+01 0. -1.
</event>
<event>
11    1  0.8453735E-009  0.1277931E+03  0.7561462E-02  0.1122011E+00
         22   -1    0    0    0    0  0.00000000000E+00  0.00000000000E+00  0.26112432183E+03  0.26112432183E+03  0.00000000000E+00 0. -1.
         22   -1    0    0    0    0 -0.00000000000E+00 -0.00000000000E+00 -0.90286560330E+03  0.90286560330E+03  0.00000000000E+00 0. -1.
        -24    2    1    2    0    0 -0.55741163794E+01  0.25561927749E+02 -0.84659029642E+03  0.85110196658E+03  0.83516133748E+02 0.  0.
         25    2    1    2    0    0  0.32675962578E+02 -0.15480273315E+02  0.55177567411E+02  0.14143150977E+03  0.12510375940E+03 0.  0.
         24    2    1    2    0    0 -0.27101846198E+02 -0.10081654434E+02  0.14967144754E+03  0.17145644878E+03  0.78483258056E+02 0.  0.
        -13    1    5    5    0    0  0.38881866014E+01 -0.51506661505E+00 -0.88346797075E+01  0.96661706068E+01  0.00000000000E+00 0.  1.
         14    1    5    5    0    0 -0.30990032800E+02 -0.95665878191E+01  0.15850612725E+03  0.16179027817E+03  0.00000000000E+00 0. -1.
         13    1    3    3    0    0  0.19573033806E+02  0.36255337605E+02 -0.73719033516E+03  0.73834080437E+03  0.00000000000E+00 0. -1.
        -14    1    3    3    0    0 -0.25147150186E+02 -0.10693409856E+02 -0.10939996127E+03  0.11276116221E+03  0.00000000000E+00 0.  1.
          5    1    4    4  501    0  0.52424017154E+02  0.17968848253E+02 -0.18050762514E+02  0.58433376673E+02  0.41800000000E+01 0. -1.
         -5    1    4    4    0  501 -0.19748054576E+02 -0.33449121568E+02  0.73228329925E+02  0.82998133093E+02  0.41800000000E+01 0. -1.
</event>
<event>
11    1  0.8453735E-009  0.1324102E+03  0.7561462E-02  0.1116343E+00
         22   -1    0    0    0    0  0.00000000000E+00  0.00000000000E+00  0.10956648366E+04  0.10956648366E+04  0.00000000000E+00 0.  1.
         22   -1    0    0    0    0 -0.00000000000E+00 -0.00000000000E+00 -0.42264360605E+03  0.42264360605E+03  0.00000000000E+00 0. -1.
         24    2    1    2    0    0  0.13550407286E+02  0.41674224151E+02 -0.40209477822E+03  0.41242642475E+03  0.80591504903E+02 0.  0.
         25    2    1    2    0    0 -0.16635636436E+02 -0.14210616590E+02  0.30114838146E+03  0.32682814589E+03  0.12509038040E+03 0.  0.
        -24    2    1    2    0    0  0.30852291496E+01 -0.27463607561E+02  0.77396762734E+03  0.77905387204E+03  0.84470580597E+02 0.  0.
        -13    1    3    3    0    0 -0.27979787902E+02 -0.53447466950E+01 -0.10615642463E+03  0.10991187987E+03  0.00000000000E+00 0.  1.
         14    1    3    3    0    0  0.41530195188E+02  0.47018970846E+02 -0.29593835360E+03  0.30251454488E+03  0.00000000000E+00 0. -1.
         11    1    5    5    0    0  0.22178610909E+02  0.27587557013E+01  0.57437292935E+02  0.61632330271E+02  0.00000000000E+00 0. -1.
        -12    1    5    5    0    0 -0.19093381759E+02 -0.30222363262E+02  0.71653033440E+03  0.71742154176E+03  0.00000000000E+00 0.  1.
          5    1    4    4  501    0  0.18780861249E+02 -0.54417750715E+02  0.76450346978E+02  0.95792172411E+02  0.41800000000E+01 0.  1.
         -5    1    4    4    0  501 -0.35416497685E+02  0.40207134125E+02  0.22469803448E+03  0.23103597348E+03  0.41800000000E+01 0.  1.
</event>
<event>
11    1  0.8453735E-009  0.1846981E+03  0.7561462E-02  0.1065905E+00
         22   -1    0    0    0    0  0.00000000000E+00  0.00000000000E+00  0.36775080399E+04  0.36775080399E+04  0.00000000000E+00 0. -1.
         22   -1    0    0    0    0 -0.00000000000E+00 -0.00000000000E+00 -0.38931799246E+03  0.38931799246E+03  0.00000000000E+00 0.  1.
        -24    2    1    2    0    0  0.72313185947E+02  0.11518815621E+03 -0.36339148946E+03  0.39626680030E+03  0.80476668803E+02 0.  0.
         25    2    1    2    0    0 -0.62563109187E+02 -0.11483209104E+03  0.91686888128E+03  0.93455388864E+03  0.12506747599E+03 0.  0.
         24    2    1    2    0    0 -0.97500767601E+01 -0.35606517628E+00  0.27347126556E+04  0.27360053435E+04  0.83526879918E+02 0.  0.
        -11    1    5    5    0    0  0.21236233661E+02 -0.76867683523E+01  0.23342452333E+03  0.23451454564E+03  0.00000000000E+00 0.  1.
         12    1    5    5    0    0 -0.30986310421E+02  0.73307031760E+01  0.25012881323E+04  0.25014907978E+04  0.00000000000E+00 0. -1.
         13    1    3    3    0    0  0.98481979692E+01  0.10854114982E+02 -0.17890816042E+01  0.14764810472E+02  0.00000000000E+00 0. -1.
        -14    1    3    3    0    0  0.62464987978E+02  0.10433404123E+03 -0.36160240785E+03  0.38150198983E+03  0.00000000000E+00 0.  1.
          5    1    4    4  501    0 -0.80968360387E+02 -0.47893018101E+02  0.71203779192E+03  0.71823736055E+03  0.41800000000E+01 0.  1.
         -5    1    4    4    0  501  0.18405251200E+02 -0.66939072934E+02  0.20483108936E+03  0.21631652810E+03  0.41800000000E+01 0.  1.
</event>
<event>
11    1  0.8453735E-009  0.1411962E+03  0.7561462E-02  0.1106230E+00
         22   -1    0    0    0    0  0.00000000000E+00  0.00000000000E+00  0.40022344313E+03  0.40022344313E+03  0.00000000000E+00 0.  1.
         22   -1    0    0    0    0 -0.00000000000E+00 -0.00000000000E+00 -0.56687327656E+03  0.56687327656E+03  0.00000000000E+00 0. -1.
         24    2    1    2    0    0  0.37410608795E+02  0.26160872604E+02 -0.46217383974E+03  0.47127056788E+03  0.80045893788E+02 0.  0.
         25    2    1    2    0    0  0.78753194508E+01  0.26274766445E+02 -0.46765256100E+02  0.13633310600E+03  0.12508933850E+03 0.  0.
        -24    2    1    2    0    0 -0.45285928246E+02 -0.52435639050E+02  0.34228926241E+03  0.35949304580E+03  0.85281881294E+02 0.  0.
        -13    1    3    3    0    0  0.99344615263E+01  0.40841185861E+02 -0.11057279559E+03  0.11829217689E+03  0.00000000000E+00 0.  1.
         14    1    3    3    0    0  0.27476147269E+02 -0.14680313257E+02 -0.35160104414E+03  0.35297839100E+03  0.00000000000E+00 0. -1.
         11    1    5    5    0    0  0.15215995421E+02  0.12414754431E+02  0.41706528587E+02  0.46098667779E+02  0.00000000000E+00 0. -1.
        -12    1    5    5    0    0 -0.60501923668E+02 -0.64850393480E+02  0.30058273382E+03  0.31339437802E+03  0.00000000000E+00 0.  1.
          5    1    4    4  501    0  0.41595555776E+02  0.46068728434E+01 -0.75784526996E+02  0.86672835824E+02  0.41800000000E+01 0.  1.
         -5    1    4    4    0  501 -0.33720236326E+02  0.21667893602E+02  0.29019270896E+02  0.49660270180E+02  0.41800000000E+01 0.  1.
</event>
<event>
11    1  0.8453735E-009  0.1376527E+03  0.7561462E-02  0.1110208E+00
         22   -1    0    0    0    0  0.00000000000E+00  0.00000000000E+00  0.59690007521E+03  0.59690007521E+03  0.00000000000E+00 0. -1.
         22   -1    0    0    0    0 -0.00000000000E+00 -0.00000000000E+00 -0.14395504065E+03  0.14395504065E+03  0.00000000000E+00 0.  1.
         24    2    1    2    0    0 -0.26777667030E+02 -0.29157377408E+02 -0.96343367162E+02  0.13083711266E+03  0.79177708636E+02 0.  0.
         25    2    1    2    0    0 -0.31393877711E+02 -0.24333547503E+01  0.15612266664E+03  0.20252108104E+03  0.12509598096E+03 0.  0.
        -24    2    1    2    0    0  0.58171544741E+02  0.31590732158E+02  0.39316573508E+03  0.40749692215E+03  0.84217239012E+02 0.  0.
        -11    1    3    3    0    0 -0.48219817013E+02 -0.28999120612E+02 -0.93611664284E+02  0.10922107598E+03  0.00000000000E+00 0.  1.
         12    1    3    3    0    0  0.21442149983E+02 -0.15825679582E+00 -0.27317028784E+01  0.21616036679E+02  0.00000000000E+00 0. -1.
         13    1    5    5    0    0  0.68474986074E+02  0.15497980274E+02  0.17591177240E+03  0.18940423116E+03  0.00000000000E+00 0. -1.
        -14    1    5    5    0    0 -0.10303441333E+02  0.16092751884E+02  0.21725396268E+03  0.21809269099E+03  0.00000000000E+00 0.  1.
          5    1    4    4  501    0  0.29602307812E+02  0.36069098174E+02  0.25731445771E+02  0.53449566624E+02  0.41800000000E+01 0.  1.
         -5    1    4    4    0  501 -0.60996185523E+02 -0.38502452924E+02  0.13039122087E+03  0.14907151441E+03  0.41800000000E+01 0.  1.
</event>
<event>
11    1  0.8453735E-009  0.1374532E+03  0.7561462E-02  0.1110436E+00
         22   -1    0    0    0    0  0.00000000000E+00  0.00000000000E+00  0.69171185062E+03  0.69171185062E+03  0.00000000000E+00 0. -1.
         22   -1    0    0    0    0 -0.00000000000E+00 -0.00000000000E+00 -0.10000006890E+03  0.10000006890E+03  0.00000000000E+00 0. -1.
        -24    2    1    2    0    0 -0.22526987075E+02  0.51938063074E+02 -0.25744943041E+02  0.10135819380E+03  0.80035328545E+02 0.  0.
         25    2    1    2    0    0 -0.12647557366E+02 -0.66527209668E+02  0.12390250567E+03  0.18863852047E+03  0.12508729017E+03 0.  0.
         24    2    1    2    0    0  0.35174544441E+02  0.14589146594E+02  0.49355421910E+03  0.50171520525E+03  0.81684075683E+02 0.  0.
        -11    1    5    5    0    0 -0.13389510837E+02 -0.13177472477E+02  0.34660618036E+02  0.39424398841E+02  0.00000000000E+00 0.  1.
         12    1    5    5    0    0  0.48564055279E+02  0.27766619071E+02  0.45889360106E+03  0.46229080641E+03  0.00000000000E+00 0. -1.
         13    1    3    3    0    0 -0.34159494901E+02 -0.39014816478E+01 -0.27902414009E+02  0.44279084887E+02  0.00000000000E+00 0. -1.
        -14    1    3    3    0    0  0.11632507826E+02  0.55839544722E+02  0.21574709688E+01  0.57079108911E+02  0.00000000000E+00 0.  1.
          5    1    4    4  501    0  0.28282613009E+02  0.26811799147E+02  0.45020368968E+02  0.59691580596E+02  0.41800000000E+01 0. -1.
         -5    1    4    4    0  501 -0.40930170375E+02 -0.93339008815E+02  0.78882136700E+02  0.12894693988E+03  0.41800000000E+01 0. -1.
</event>
<event>
11    1  0.8453735E-009  0.2974500E+03  0.7561462E-02  0.1001276E+00
         22   -1    0    0    0    0  0.00000000000E+00  0.00000000000E+00  0.19802047942E+03  0.19802047942E+03  0.00000000000E+00 0. -1.
         22   -1    0    0    0    0 -0.00000000000E+00 -0.00000000000E+00 -0.99883397011E+03  0.99883397011E+03  0.00000000000E+00 0. -1.
        -24    2    1    2    0    0 -0.33138865886E+03  0.37899344984E+02 -0.62207949195E+03  0.71045928506E+03  0.80713678201E+02 0.  0.
         25    2    1    2    0    0  0.16229833048E+03 -0.11324389035E+03 -0.16053124055E+03  0.28387201448E+03  0.12509242436E+03 0.  0.
         24    2    1    2    0    0  0.16909032838E+03  0.75344545365E+02 -0.18202758196E+02  0.20252315000E+03  0.80099601819E+02 0.  0.
        -13    1    5    5    0    0  0.16505710219E+03  0.84637766148E+02 -0.28968063411E+02  0.18774063795E+03  0.00000000000E+00 0.  1.
         14    1    5    5    0    0  0.40332261950E+01 -0.92932207830E+01  0.10765305216E+02  0.14782512048E+02  0.00000000000E+00 0. -1.
         11    1    3    3    0    0 -0.14998316876E+03  0.56529007877E+02 -0.27130154989E+03  0.31511110837E+03  0.00000000000E+00 0. -1.
        -12    1    3    3    0    0 -0.18140549010E+03 -0.18629662892E+02 -0.35077794206E+03  0.39534817669E+03  0.00000000000E+00 0.  1.
          5    1    4    4  501    0  0.20715971678E+02 -0.49726422527E+02  0.81388310908E+01  0.54640475396E+02  0.41800000000E+01 0.  1.
         -5    1    4    4    0  501  0.14158235880E+03 -0.63517467823E+02 -0.16867007164E+03  0.22923153908E+03  0.41800000000E+01 0.  1.
</event>
<event>
11    1  0.8453735E-009  0.1337857E+03  0.7561462E-02  0.1114703E+00
         22   -1    0    0    0    0  0.00000000000E+00  0.00000000000E+00  0.11559973550E+04  0.11559973550E+04  0.00000000000E+00 0.  1.
         22   -1    0    0    0    0 -0.00000000000E+00 -0.00000000000E+00 -0.57078983585E+02  0.57078983585E+02  0.00000000000E+00 0. -1.
         24    2    1    2    0    0  0.38021939811E+02  0.22808821872E+02  0.17385505637E+02  0.93846505607E+02  0.80864086876E+02 0.  0.
         25    2    1    2    0    0 -0.78543635658E+02 -0.84705509835E+01  0.32497579139E+03  0.35706680062E+03  0.12508629894E+03 0.  0.
        -24    2    1    2    0    0  0.40521695847E+02 -0.14338270888E+02  0.75655707444E+03  0.76216303240E+03  0.81647334491E+02 0.  0.
        -13    1    3    3    0    0  0.90719646194E-01  0.23454872889E+02  0.42364909702E+02  0.48424424275E+02  0.00000000000E+00 0.  1.
         14    1    3    3    0    0  0.37931220165E+02 -0.64605101725E+00 -0.24979404065E+02  0.45422081332E+02  0.00000000000E+00 0. -1.
         13    1    5    5    0    0 -0.14593242697E+02  0.17812357716E+02  0.10533748070E+03  0.10782498625E+03  0.00000000000E+00 0. -1.
        -14    1    5    5    0    0  0.55114938544E+02 -0.32150628604E+02  0.65121959374E+03  0.65433804615E+03  0.00000000000E+00 0.  1.
          5    1    4    4  501    0 -0.15974080419E+02 -0.49339520238E+02  0.23170783570E+03  0.23747747899E+03  0.41800000000E+01 0.  1.
         -5    1    4    4    0  501 -0.62569555239E+02  0.40868969255E+02  0.93267955684E+02  0.11958932163E+03  0.41800000000E+01 0.  1.
</event>
<event>
11    1  0.8453735E-009  0.1497544E+03  0.7561462E-02  0.1097130E+00
         22   -1    0    0    0    0  0.00000000000E+00  0.00000000000E+00  0.13407771826E+04  0.13407771826E+04  0.00000000000E+00 0. -1.
         22   -1    0    0    0    0 -0.00000000000E+00 -0.00000000000E+00 -0.10710336331E+04  0.10710336331E+04  0.00000000000E+00 0. -1.
        -24    2    1    2    0    0 -0.26509541416E+02 -0.37385188792E+02 -0.10007358393E+04  0.10050514681E+04  0.80968051326E+02 0.  0.
         25    2    1    2    0    0 -0.33513085874E+02  0.93379102998E+02  0.31684341801E+02  0.16276876488E+03  0.12508792708E+03 0.  0.
         24    2    1    2    0    0  0.60022627290E+02 -0.55993914206E+02  0.12387950471E+04  0.12439905828E+04  0.78494376251E+02 0.  0.
        -11    1    5    5    0    0 -0.70241945155E+00  0.14637137310E+02  0.71569611635E+02  0.73054421435E+02  0.00000000000E+00 0.  1.
         12    1    5    5    0    0  0.60725046741E+02 -0.70631051516E+02  0.11672254354E+04  0.11709361613E+04  0.00000000000E+00 0. -1.
         11    1    3    3    0    0 -0.35166825826E+02 -0.43468858063E+02 -0.98155058216E+03  0.98314179679E+03  0.00000000000E+00 0. -1.
        -12    1    3    3    0    0  0.86572844101E+01  0.60836692710E+01 -0.19185257143E+02  0.21909671307E+02  0.00000000000E+00 0.  1.
          5    1    4    4  501    0  0.44058077696E+02  0.93766805199E+01  0.90900572828E+01  0.46142582169E+02  0.41800000000E+01 0.  1.
         -5    1    4    4    0  501 -0.77571163570E+02  0.84002422478E+02  0.22594284518E+02  0.11662618271E+03  0.41800000000E+01 0.  1.
</event>
<event>
11    1  0.8453735E-009  0.1862445E+03  0.7561462E-02  0.1064701E+00
         22   -1    0    0    0    0  0.00000000000E+00  0.00000000000E+00  0.35269576470E+03  0.35269576470E+03  0.00000000000E+00 0. -1.
         22   -1    0    0    0    0 -0.00000000000E+00 -0.00000000000E+00 -0.63191748069E+03  0.63191748069E+03  0.00000000000E+00 0. -1.
         24    2    1    2    0    0 -0.12495893697E+02 -0.12992356084E+03 -0.34519597306E+03  0.37734621365E+03  0.78699594147E+02 0.  0.
         25    2    1    2    0    0  0.44607722508E+02  0.15123483066E+03 -0.22570710382E+03  0.30241384360E+03  0.12509441703E+03 0.  0.
        -24    2    1    2    0    0 -0.32111828811E+02 -0.21311269816E+02  0.29168136089E+03  0.30485318813E+03  0.79825498767E+02 0.  0.
        -11    1    3    3    0    0  0.16231156664E+02 -0.21811652856E+02 -0.20881726830E+02  0.34281848876E+02  0.00000000000E+00 0.  1.
         12    1    3    3    0    0 -0.28727050360E+02 -0.10811190799E+03 -0.32431424623E+03  0.34306436477E+03  0.00000000000E+00 0. -1.
         11    1    5    5    0    0 -0.58510666019E+02 -0.20427462001E+02  0.19360420362E+03  0.20328149670E+03  0.00000000000E+00 0. -1.
        -12    1    5    5    0    0  0.26398837207E+02 -0.88380781491E+00  0.98077157270E+02  0.10157169143E+03  0.00000000000E+00 0.  1.
          5    1    4    4  501    0  0.28732584053E+02  0.14975393900E+03 -0.11642570407E+03  0.19189637986E+03  0.41800000000E+01 0. -1.
         -5    1    4    4    0  501  0.15875138455E+02  0.14808916573E+01 -0.10928139975E+03  0.11051746374E+03  0.41800000000E+01 0. -1.
</event>
<event>
11    1  0.8453735E-009  0.1747795E+03  0.7561462E-02  0.1073946E+00
         22   -1    0    0    0    0  0.00000000000E+00  0.00000000000E+00  0.11719090850E+04  0.11719090850E+04  0.00000000000E+00 0. -1.
         22   -1    0    0    0    0 -0.00000000000E+00 -0.00000000000E+00 -0.88426382858E+03  0.88426382858E+03  0.00000000000E+00 0.  1.
         24    2    1    2    0    0  0.11244390728E+03 -0.52581447417E+02 -0.78022550067E+03  0.79417541508E+03  0.80958737202E+02 0.  0.
         25    2    1    2    0    0 -0.10028946054E+03  0.25832673898E+02 -0.26209070909E+02  0.16447702597E+03  0.12506187964E+03 0.  0.
        -24    2    1    2    0    0 -0.12154446747E+02  0.26748773519E+02  0.10940798280E+04  0.10975204726E+04  0.81714687481E+02 0.  0.
        -13    1    3    3    0    0  0.92543195721E+02 -0.18701274313E+02 -0.36204982788E+03  0.37415779907E+03  0.00000000000E+00 0.  1.
         14    1    3    3    0    0  0.19900711563E+02 -0.33880173105E+02 -0.41817567278E+03  0.42001761601E+03  0.00000000000E+00 0. -1.
         11    1    5    5    0    0 -0.95242012558E+01  0.13144471268E+02  0.10667986820E+04  0.10669221694E+04  0.00000000000E+00 0. -1.
        -12    1    5    5    0    0 -0.26302454908E+01  0.13604302252E+02  0.27281146002E+02  0.30598303193E+02  0.00000000000E+00 0.  1.
          5    1    4    4  501    0 -0.52573050490E+02  0.59877969897E+02  0.27964919492E+02  0.84550612292E+02  0.41800000000E+01 0. -1.
         -5    1    4    4    0  501 -0.47716410048E+02 -0.34045295999E+02 -0.54173990401E+02  0.79926413678E+02  0.41800000000E+01 0. -1.
</event>
<event>
11    1  0.8453735E-009  0.1591425E+03  0.7561462E-02  0.1087887E+00
         22   -1    0    0    0    0  0.00000000000E+00  0.00000000000E+00  0.75585122050E+03  0.75585122050E+03  0.00000000000E+00 0.  1.
         22   -1    0    0    0    0 -0.00000000000E+00 -0.00000000000E+00 -0.13302603152E+04  0.13302603152E+04  0.00000000000E+00 0.  1.
         24    2    1    2    0    0  0.88660160082E+02  0.34886762478E+02 -0.10083627231E+04  0.10160646026E+04  0.80710501371E+02 0.  0.
         25    2    1    2    0    0 -0.12353181821E+03 -0.57754137622E+01 -0.29052528116E+03  0.33962638969E+03  0.12509068737E+03 0.  0.
        -24    2    1    2    0    0  0.34871658127E+02 -0.29111348716E+02  0.72447890957E+03  0.73042054345E+03  0.81123219263E+02 0.  0.
        -11    1    3    3    0    0  0.24903649683E+02  0.47568310545E+02 -0.30369978759E+03  0.30840962520E+03  0.00000000000E+00 0.  1.
         12    1    3    3    0    0  0.63756510400E+02 -0.12681548067E+02 -0.70466293553E+03  0.70765497736E+03  0.00000000000E+00 0. -1.
         13    1    5    5    0    0 -0.23203698623E+02  0.43407239813E+01  0.12523597658E+03  0.12744137219E+03  0.00000000000E+00 0. -1.
        -14    1    5    5    0    0  0.58075356750E+02 -0.33452072697E+02  0.59924293299E+03  0.60297917126E+03  0.00000000000E+00 0.  1.
          5    1    4    4  501    0 -0.49207066434E+01  0.38801525095E+02 -0.28605968046E+02  0.48636873989E+02  0.41800000000E+01 0. -1.
         -5    1    4    4    0  501 -0.11861111157E+03 -0.44576938858E+02 -0.26191931312E+03  0.29098951570E+03  0.41800000000E+01 0. -1.
</event>
<event>
11    1  0.8453735E-009  0.1994428E+03  0.7561462E-02  0.1054918E+00
         22   -1    0    0    0    0  0.00000000000E+00  0.00000000000E+00  0.48249044757E+03  0.48249044757E+03  0.00000000000E+00 0. -1.
         22   -1    0    0    0    0 -0.00000000000E+00 -0.00000000000E+00 -0.43158999851E+03  0.43158999851E+03  0.00000000000E+00 0.  1.
         24    2    1    2    0    0 -0.15023594233E+03 -0.53035466144E+02 -0.31508860617E+03  0.36216613250E+03  0.80621825525E+02 0.  0.
         25    2    1    2    0    0  0.15716267380E+03 -0.82896076769E+02  0.92927308114E+02  0.23633570449E+03  0.12508882862E+03 0.  0.
        -24    2    1    2    0    0 -0.69267314665E+01  0.13593154291E+03  0.27306174712E+03  0.31557860908E+03  0.80633596000E+02 0.  0.
        -11    1    3    3    0    0 -0.92231536607E+02 -0.68376069466E+02 -0.24001743249E+03  0.26606448677E+03  0.00000000000E+00 0.  1.
         12    1    3    3    0    0 -0.58004405722E+02  0.15340603322E+02 -0.75071173683E+02  0.96101645728E+02  0.00000000000E+00 0. -1.
         13    1    5    5    0    0 -0.41228749555E+02  0.10116855821E+03  0.19419614116E+03  0.22281613092E+03  0.00000000000E+00 0. -1.
        -14    1    5    5    0    0  0.34302018088E+02  0.34762984704E+02  0.78865605965E+02  0.92762478161E+02  0.00000000000E+00 0.  1.
          5    1    4    4  501    0  0.16112809804E+03 -0.91970699036E+02  0.11031895137E+03  0.21589028902E+03  0.41800000000E+01 0.  1.
         -5    1    4    4    0  501 -0.39654242482E+01  0.90746222667E+01 -0.17391643256E+02  0.20445415474E+02  0.41800000000E+01 0.  1.
</event>
<event>
11    1  0.8453735E-009  0.1523350E+03  0.7561462E-02  0.1094516E+00
         22   -1    0    0    0    0  0.00000000000E+00  0.00000000000E+00  0.54339758424E+03  0.54339758424E+03  0.00000000000E+00 0.  1.
         22   -1    0    0    0    0 -0.00000000000E+00 -0.00000000000E+00 -0.68255393814E+03  0.68255393814E+03  0.00000000000E+00 0. -1.
        -24    2    1    2    0    0 -0.33048452044E+02  0.24186968538E+01 -0.59877417600E+03  0.60539828961E+03  0.82936873293E+02 0.  0.
         25    2    1    2    0    0  0.10993421736E+03  0.31628817096E+02  0.26243122830E+02  0.17152635853E+03  0.12508667377E+03 0.  0.
         24    2    1    2    0    0 -0.76885765318E+02 -0.34047513950E+02  0.43337469927E+03  0.44902687423E+03  0.82102677804E+02 0.  0.
        -11    1    5    5    0    0 -0.52459280864E+02  0.65093985983E+01  0.34253316038E+03  0.34658810478E+03  0.00000000000E+00 0.  1.
         12    1    5    5    0    0 -0.24426484454E+02 -0.40556912549E+02  0.90841538888E+02  0.10243876945E+03  0.00000000000E+00 0. -1.
         11    1    3    3    0    0 -0.18424537305E+02 -0.12393058658E+01 -0.58399718757E+03  0.58428906762E+03  0.00000000000E+00 0. -1.
        -12    1    3    3    0    0 -0.14623914739E+02  0.36580027195E+01 -0.14776988428E+02  0.21109221994E+02  0.00000000000E+00 0.  1.
          5    1    4    4  501    0  0.13735724966E+03  0.21018840513E+02  0.15230734583E+02  0.13985082541E+03  0.41800000000E+01 0.  1.
         -5    1    4    4    0  501 -0.27423032299E+02  0.10609976584E+02  0.11012388246E+02  0.31675533120E+02  0.41800000000E+01 0.  1.
</event>
<event>
11    1  0.8453735E-009  0.1636745E+03  0.7561462E-02  0.1083671E+00
         22   -1    0    0    0    0  0.00000000000E+00  0.00000000000E+00  0.64279440644E+03  0.64279440644E+03  0.00000000000E+00 0.  1.
         22   -1    0    0    0    0 -0.00000000000E+00 -0.00000000000E+00 -0.17923114998E+03  0.17923114998E+03  0.00000000000E+00 0.  1.
        -24    2    1    2    0    0 -0.93143637061E+02 -0.39744925863E+02 -0.10860538735E+03  0.16848234397E+03  0.79597574162E+02 0.  0.
         25    2    1    2    0    0  0.12100147283E+03  0.77641134181E+02  0.21958604793E+03  0.29075043187E+03  0.12509308152E+03 0.  0.
         24    2    1    2    0    0 -0.27857835774E+02 -0.37896208318E+02  0.35258259588E+03  0.36279278057E+03  0.71357782346E+02 0.  0.
        -13    1    5    5    0    0 -0.92116924675E+01 -0.48314592715E+02  0.32048935381E+03  0.32424154739E+03  0.00000000000E+00 0.  1.
         14    1    5    5    0    0 -0.18646143306E+02  0.10418384398E+02  0.32093242068E+02  0.38551233185E+02  0.00000000000E+00 0. -1.
         11    1    3    3    0    0 -0.25313851962E+02  0.77958787375E+01  0.59214133338E+01  0.27140927808E+02  0.00000000000E+00 0. -1.
        -12    1    3    3    0    0 -0.67829785100E+02 -0.47540804601E+02 -0.11452680068E+03  0.14134141616E+03  0.00000000000E+00 0.  1.
          5    1    4    4  501    0  0.26807086677E+02 -0.24387011953E+02  0.10339633604E+03  0.10964315279E+03  0.41800000000E+01 0.  1.
         -5    1    4    4    0  501  0.94194386158E+02  0.10202814613E+03  0.11618971189E+03  0.18110727908E+03  0.41800000000E+01 0.  1.
</event>
<event>
11    1  0.8453735E-009  0.1301444E+03  0.7561462E-02  0.1119092E+00
         22   -1    0    0    0    0  0.00000000000E+00  0.00000000000E+00  0.22687881379E+03  0.22687881379E+03  0.00000000000E+00 0. -1.
         22   -1    0    0    0    0 -0.00000000000E+00 -0.00000000000E+00 -0.98303087864E+03  0.98303087864E+03  0.00000000000E+00 0.  1.
        -24    2    1    2    0    0  0.14194650474E+02 -0.22396970094E+02 -0.77120066918E+03  0.77589902647E+03  0.81029098246E+02 0.  0.
         25    2    1    2    0    0 -0.49389525684E+02  0.24126851789E+02 -0.17702826450E+03  0.22362456516E+03  0.12509000554E+03 0.  0.
         24    2    1    2    0    0  0.35194875211E+02 -0.17298816947E+01  0.19207686883E+03  0.21038610080E+03  0.78275897556E+02 0.  0.
        -13    1    5    5    0    0  0.34393287643E+02  0.47712964473E+01  0.24065373923E+02  0.42246961154E+02  0.00000000000E+00 0.  1.
         14    1    5    5    0    0  0.80158756800E+00 -0.65011781420E+01  0.16801149491E+03  0.16813913965E+03  0.00000000000E+00 0. -1.
         13    1    3    3    0    0 -0.47882840015E+01  0.27364218086E+02 -0.16105424664E+03  0.16343255018E+03  0.00000000000E+00 0. -1.
        -14    1    3    3    0    0  0.18982934475E+02 -0.49761188180E+02 -0.61014642254E+03  0.61246647629E+03  0.00000000000E+00 0.  1.
          5    1    4    4  501    0 -0.17559665519E+02 -0.10843630701E+02  0.14975595603E+02  0.25839253928E+02  0.41800000000E+01 0. -1.
         -5    1    4    4    0  501 -0.31829860166E+02  0.34970482490E+02 -0.19200386011E+03  0.19778531123E+03  0.41800000000E+01 0. -1.
</event>
<event>
11    1  0.8453735E-009  0.1522298E+03  0.7561462E-02  0.1094622E+00
         22   -1    0    0    0    0  0.00000000000E+00  0.00000000000E+00  0.17206512621E+03  0.17206512621E+03  0.00000000000E+00 0. -1.
         22   -1    0    0    0    0 -0.00000000000E+00 -0.00000000000E+00 -0.48325222589E+03  0.48325222589E+03  0.00000000000E+00 0.  1.
         24    2    1    2    0    0 -0.56385561505E+02 -0.36134920068E+02 -0.18812331084E+03  0.21531205550E+03  0.80522277462E+02 0.  0.
         25    2    1    2    0    0  0.10974758080E+03  0.75708215950E+02 -0.22938216661E+03  0.29332550909E+03  0.12508960976E+03 0.  0.
        -24    2    1    2    0    0 -0.53362019298E+02 -0.39573295882E+02  0.10631837777E+03  0.14667978751E+03  0.76143363219E+02 0.  0.
        -13    1    3    3    0    0 -0.47312895033E+02 -0.34956521104E+02 -0.19511982647E+03  0.20379454136E+03  0.00000000000E+00 0.  1.
         14    1    3    3    0    0 -0.90726664719E+01 -0.11783989640E+01  0.69965156329E+01  0.11517514143E+02  0.00000000000E+00 0. -1.
         11    1    5    5    0    0 -0.45357438188E+02 -0.61142388891E+02  0.92664752500E+02  0.11992683300E+03  0.00000000000E+00 0. -1.
        -12    1    5    5    0    0 -0.80045811103E+01  0.21569093009E+02  0.13653625274E+02  0.26752954511E+02  0.00000000000E+00 0.  1.
          5    1    4    4  501    0  0.64308393217E+01 -0.28678561618E+02 -0.72705168074E+02  0.78532346556E+02  0.41800000000E+01 0.  1.
         -5    1    4    4    0  501  0.10331674148E+03  0.10438677757E+03 -0.15667699853E+03  0.21479316253E+03  0.41800000000E+01 0.  1.
</event>
<event>
11    1  0.8453735E-009  0.1381449E+03  0.7561462E-02  0.1109648E+00
         22   -1    0    0    0    0  0.00000000000E+00  0.00000000000E+00  0.45302328983E+03  0.45302328983E+03  0.00000000000E+00 0. -1.
         22   -1    0    0    0    0 -0.00000000000E+00 -0.00000000000E+00 -0.84134797719E+03  0.84134797719E+03  0.00000000000E+00 0.  1.
         24    2    1    2    0    0  0.57724925267E+02 -0.19092201928E+02 -0.76185100148E+03  0.76831645949E+03  0.78718195519E+02 0.  0.
         25    2    1    2    0    0 -0.16988432172E+02  0.13575516760E+02 -0.14468595954E+02  0.12778834570E+03  0.12509044546E+03 0.  0.
        -24    2    1    2    0    0 -0.40736493094E+02  0.55166851675E+01  0.38799491007E+03  0.39826646183E+03  0.79913882982E+02 0.  0.
        -13    1    3    3    0    0  0.43530156018E+02 -0.14625058703E+02 -0.74243430867E+03  0.74385312362E+03  0.00000000000E+00 0.  1.
         14    1    3    3    0    0  0.14194769249E+02 -0.44671432254E+01 -0.19416692807E+02  0.24463335876E+02  0.00000000000E+00 0. -1.
         13    1    5    5    0    0 -0.47418285754E+02  0.28982773568E+02  0.33908074252E+03  0.34360478014E+03  0.00000000000E+00 0. -1.
        -14    1    5    5    0    0  0.66817926600E+01 -0.23466088400E+02  0.48914167550E+02  0.54661681689E+02  0.00000000000E+00 0.  1.
          5    1    4    4  501    0  0.30238786996E+02  0.26462525627E+02 -0.52080310515E+02  0.65912674388E+02  0.41800000000E+01 0. -1.
         -5    1    4    4    0  501 -0.47227219169E+02 -0.12887008867E+02  0.37611714561E+02  0.61875671311E+02  0.41800000000E+01 0. -1.
</event>
<event>
11    1  0.8453735E-009  0.1381939E+03  0.7561462E-02  0.1109592E+00
         22   -1    0    0    0    0  0.00000000000E+00  0.00000000000E+00  0.18891142996E+03  0.18891142996E+03  0.00000000000E+00 0. -1.
         22   -1    0    0    0    0 -0.00000000000E+00 -0.00000000000E+00 -0.39677340239E+03  0.39677340239E+03  0.00000000000E+00 0.  1.
        -24    2    1    2    0    0 -0.13091289250E+02  0.51813430710E+02 -0.30719930405E+03  0.32111848820E+03  0.76744104656E+02 0.  0.
         25    2    1    2    0    0  0.56558160701E+02 -0.62856370985E-01  0.33026522043E+02  0.14120162053E+03  0.12509323319E+03 0.  0.
         24    2    1    2    0    0 -0.43466871452E+02 -0.51750574339E+02  0.66310809578E+02  0.12336472362E+03  0.79083757550E+02 0.  0.
        -13    1    5    5    0    0 -0.19922180009E+02 -0.70098789089E+02  0.37835723868E+02  0.82111360290E+02  0.00000000000E+00 0.  1.
         14    1    5    5    0    0 -0.23544691443E+02  0.18348214750E+02  0.28475085710E+02  0.41253363328E+02  0.00000000000E+00 0. -1.
         13    1    3    3    0    0 -0.10283250823E+02  0.20753921678E+01 -0.61013296663E+00  0.10508318722E+02  0.00000000000E+00 0. -1.
        -14    1    3    3    0    0 -0.28080384269E+01  0.49738038542E+02 -0.30658917109E+03  0.31061016948E+03  0.00000000000E+00 0.  1.
          5    1    4    4  501    0  0.60962469369E+02 -0.28137890912E+02 -0.28684546318E+02  0.73133023827E+02  0.41800000000E+01 0.  1.
         -5    1    4    4    0  501 -0.44043086680E+01  0.28075034541E+02  0.61711068361E+02  0.68068596707E+02  0.41800000000E+01 0.  1.
</event>
<event>
11    1  0.8453735E-009  0.1329039E+03  0.7561462E-02  0.1115752E+00
         22   -1    0    0    0    0  0.00000000000E+00  0.00000000000E+00  0.20011756246E+03  0.20011756246E+03  0.00000000000E+00 0.  1.
         22   -1    0    0    0    0 -0.00000000000E+00 -0.00000000000E+00 -0.78769441493E+03  0.78769441493E+03  0.00000000000E+00 0. -1.
         24    2    1    2    0    0  0.42507226327E+02  0.35295869640E+01 -0.50378576077E+03  0.51202361130E+03  0.80924430792E+02 0.  0.
         25    2    1    2    0    0 -0.55607700185E+02  0.29845037878E+02 -0.25047773839E+03  0.28698593896E+03  0.12505554416E+03 0.  0.
        -24    2    1    2    0    0  0.13100473858E+02 -0.33374624841E+02  0.16668664669E+03  0.18880242712E+03  0.81095192855E+02 0.  0.
        -13    1    3    3    0    0  0.18231188646E+02  0.22386070348E+02 -0.54387226521E+02  0.61575017610E+02  0.00000000000E+00 0.  1.
         14    1    3    3    0    0  0.24276037680E+02 -0.18856483384E+02 -0.44939853425E+03  0.45044859369E+03  0.00000000000E+00 0. -1.
         11    1    5    5    0    0  0.22583264790E+02  0.11346583772E+02  0.12920953357E+02  0.28384852431E+02  0.00000000000E+00 0. -1.
        -12    1    5    5    0    0 -0.94827909323E+01 -0.44721208614E+02  0.15376569334E+03  0.16041757469E+03  0.00000000000E+00 0.  1.
          5    1    4    4  501    0  0.28307044754E+02  0.45809343383E+02 -0.10948938639E+03  0.12208678412E+03  0.41800000000E+01 0. -1.
         -5    1    4    4    0  501 -0.83914744939E+02 -0.15964305505E+02 -0.14098835200E+03  0.16489915484E+03  0.41800000000E+01 0. -1.
</event>
<event>
11    1  0.8453735E-009  0.2443840E+03  0.7561462E-02  0.1026934E+00
         22   -1    0    0    0    0  0.00000000000E+00  0.00000000000E+00  0.10861182836E+04  0.10861182836E+04  0.00000000000E+00 0. -1.
         22   -1    0    0    0    0 -0.00000000000E+00 -0.00000000000E+00 -0.27710517002E+04  0.27710517002E+04  0.00000000000E+00 0.  1.
        -24    2    1    2    0    0 -0.18788909321E+03  0.94888065026E+02 -0.27325669361E+04  0.27418740194E+04  0.81517002888E+02 0.  0.
         25    2    1    2    0    0  0.18155612555E+03  0.34970399400E+02  0.51750142449E+03  0.56359575348E+03  0.12508754304E+03 0.  0.
         24    2    1    2    0    0  0.63329676535E+01 -0.12985846443E+03  0.53013209500E+03  0.55170021093E+03  0.80185767634E+02 0.  0.
        -13    1    5    5    0    0  0.28261675967E+02 -0.19681397510E+02  0.69466305644E+02  0.77534813833E+02  0.00000000000E+00 0.  1.
         14    1    5    5    0    0 -0.21928708313E+02 -0.11017706692E+03  0.46066578935E+03  0.47416539710E+03  0.00000000000E+00 0. -1.
         13    1    3    3    0    0 -0.26565436760E+00 -0.98685570286E+01 -0.77686005467E+02  0.78310755555E+02  0.00000000000E+00 0. -1.
        -14    1    3    3    0    0 -0.18762343884E+03  0.10475662205E+03 -0.26548809306E+04  0.26635632638E+04  0.00000000000E+00 0.  1.
          5    1    4    4  501    0  0.59290486110E+02 -0.30666773883E+02  0.78313839551E+02  0.10298709933E+03  0.41800000000E+01 0. -1.
         -5    1    4    4    0  501  0.12226563944E+03  0.65637173283E+02  0.43918758494E+03  0.46060865415E+03  0.41800000000E+01 0. -1.
</event>
<event>
11    1  0.8453735E-009  0.1570824E+03  0.7561462E-02  0.1089854E+00
         22   -1    0    0    0    0  0.00000000000E+00  0.00000000000E+00  0.37314607116E+03  0.37314607116E+03  0.00000000000E+00 0.  1.
         22   -1    0    0    0    0 -0.00000000000E+00 -0.00000000000E+00 -0.77497657386E+03  0.77497657386E+03  0.00000000000E+00 0. -1.
         24    2    1    2    0    0 -0.86765467465E+02 -0.26286432081E+02 -0.64414797930E+03  0.65528290031E+03  0.79055912729E+02 0.  0.
         25    2    1    2    0    0  0.11979497268E+03 -0.61614781088E+02 -0.36659064151E+02  0.18745676864E+03  0.12509570895E+03 0.  0.
        -24    2    1    2    0    0 -0.33029505219E+02  0.87901213168E+02  0.27897654075E+03  0.30538297607E+03  0.81322077498E+02 0.  0.
        -13    1    3    3    0    0 -0.49994673990E+02  0.10525018558E+02 -0.15123999031E+03  0.15963639344E+03  0.00000000000E+00 0.  1.
         14    1    3    3    0    0 -0.36770793475E+02 -0.36811450639E+02 -0.49290798899E+03  0.49564650686E+03  0.00000000000E+00 0. -1.
         11    1    5    5    0    0 -0.40525195736E+02  0.59431074858E+02  0.95502818749E+02  0.11956225382E+03  0.00000000000E+00 0. -1.
        -12    1    5    5    0    0  0.74956905172E+01  0.28470138310E+02  0.18347372201E+03  0.18582072225E+03  0.00000000000E+00 0.  1.
          5    1    4    4  501    0  0.16657252713E+02  0.77218550478E+01 -0.58277038732E+02  0.61243585433E+02  0.41800000000E+01 0. -1.
         -5    1    4    4    0  501  0.10313771997E+03 -0.69336636135E+02  0.21617974581E+02  0.12621318321E+03  0.41800000000E+01 0. -1.
</event>
<event>
11    1  0.8453735E-009  0.1502345E+03  0.7561462E-02  0.1096639E+00
         22   -1    0    0    0    0  0.00000000000E+00  0.00000000000E+00  0.10775713970E+04  0.10775713970E+04  0.00000000000E+00 0.  1.
         22   -1    0    0    0    0 -0.00000000000E+00 -0.00000000000E+00 -0.28137504111E+03  0.28137504111E+03  0.00000000000E+00 0. -1.
        -24    2    1    2    0    0  0.55163378269E+01 -0.57749558889E+02 -0.24466108741E+03  0.26391199062E+03  0.80156406918E+02 0.  0.
         25    2    1    2    0    0  0.78254915167E+02  0.55754430671E+02  0.24985051277E+03  0.29547399996E+03  0.12508883897E+03 0.  0.
         24    2    1    2    0    0 -0.83771252993E+02  0.19951282185E+01  0.79100693054E+03  0.79956044753E+03  0.81137794724E+02 0.  0.
        -11    1    5    5    0    0 -0.38703927939E+02 -0.23899670046E+02  0.59638962221E+03  0.59812186864E+03  0.00000000000E+00 0.  1.
         12    1    5    5    0    0 -0.45067325055E+02  0.25894798264E+02  0.19461730833E+03  0.20143857889E+03  0.00000000000E+00 0. -1.
         13    1    3    3    0    0  0.58755752647E+01 -0.71359380902E+02 -0.23841220160E+03  0.24893184108E+03  0.00000000000E+00 0. -1.
        -14    1    3    3    0    0 -0.35923743781E+00  0.13609822013E+02 -0.62488858007E+01  0.14980149549E+02  0.00000000000E+00 0.  1.
          5    1    4    4  501    0 -0.27445468620E+02 -0.13433972194E+02  0.40212903157E+02  0.50678154436E+02  0.41800000000E+01 0.  1.
         -5    1    4    4    0  501  0.10570038379E+03  0.69188402865E+02  0.20963760961E+03  0.24479584553E+03  0.41800000000E+01 0.  1.
</event>
<event>
11    1  0.8453735E-009  0.1405526E+03  0.7561462E-02  0.1106943E+00
         22   -1    0    0    0    0  0.00000000000E+00  0.00000000000E+00  0.33901153363E+03  0.33901153363E+03  0.00000000000E+00 0. -1.
         22   -1    0    0    0    0 -0.00000000000E+00 -0.00000000000E+00 -0.15736044999E+04  0.15736044999E+04  0.00000000000E+00 0. -1.
         24    2    1    2    0    0 -0.17901239266E+02  0.20176892171E+02 -0.11617820509E+04  0.11649495453E+04  0.81500601352E+02 0.  0.
         25    2    1    2    0    0  0.16768629442E+01  0.42322725502E+02 -0.39118357612E+03  0.41287529145E+03  0.12508953234E+03 0.  0.
        -24    2    1    2    0    0  0.16224376322E+02 -0.62499617673E+02  0.31837266071E+03  0.33479119680E+03  0.80960248103E+02 0.  0.
        -13    1    3    3    0    0 -0.51059164300E+01  0.30644896440E+02 -0.15768073897E+03  0.16071215107E+03  0.00000000000E+00 0.  1.
         14    1    3    3    0    0 -0.12795322836E+02 -0.10468004269E+02 -0.10041013119E+04  0.10042373942E+04  0.00000000000E+00 0. -1.
         13    1    5    5    0    0  0.21182183460E+01 -0.80049261867E+02  0.26578236275E+03  0.27758356494E+03  0.00000000000E+00 0. -1.
        -14    1    5    5    0    0  0.14106157976E+02  0.17549644193E+02  0.52590297960E+02  0.57207631865E+02  0.00000000000E+00 0.  1.
          5    1    4    4  501    0 -0.53153157007E+02 -0.83717827917E+01 -0.12021268755E+03  0.13177218028E+03  0.41800000000E+01 0.  1.
         -5    1    4    4    0  501  0.54830019951E+02  0.50694508294E+02 -0.27097088857E+03  0.28110311118E+03  0.41800000000E+01 0.  1.
</event>
<event>
11    1  0.8453735E-009  0.1510721E+03  0.7561462E-02  0.1095788E+00
         22   -1    0    0    0    0  0.00000000000E+00  0.00000000000E+00  0.39269757566E+03  0.39269757566E+03  0.00000000000E+00 0. -1.
         22   -1    0    0    0    0 -0.00000000000E+00 -0.00000000000E+00 -0.27469794867E+03  0.27469794867E+03  0.00000000000E+00 0. -1.
         24    2    1    2    0    0 -0.38876995403E+02  0.54361041171E+01 -0.67613181546E+02  0.11262979961E+03  0.81073777763E+02 0.  0.
         25    2    1    2    0    0  0.66102995704E+02 -0.84611932007E+02 -0.13572576695E+03  0.21353705250E+03  0.12509118234E+03 0.  0.
        -24    2    1    2    0    0 -0.27226000301E+02  0.79175827890E+02  0.32133857549E+03  0.34122867222E+03  0.78539543132E+02 0.  0.
        -11    1    3    3    0    0  0.19440819106E+02 -0.17723485723E+02 -0.28021129783E+02  0.38435024496E+02  0.00000000000E+00 0.  1.
         12    1    3    3    0    0 -0.58317814510E+02  0.23159589840E+02 -0.39592051763E+02  0.74194775109E+02  0.00000000000E+00 0. -1.
         13    1    5    5    0    0 -0.41117505956E+02  0.88785081555E+02  0.26991225334E+03  0.28709939830E+03  0.00000000000E+00 0. -1.
        -14    1    5    5    0    0  0.13891505655E+02 -0.96092536650E+01  0.51426322147E+02  0.54129273918E+02  0.00000000000E+00 0.  1.
          5    1    4    4  501    0  0.70853558499E+02 -0.83605299569E+02 -0.15689177353E+03  0.19142250095E+03  0.41800000000E+01 0.  1.
         -5    1    4    4    0  501 -0.47505627948E+01 -0.10066324374E+01  0.21166006583E+02  0.22114551553E+02  0.41800000000E+01 0.  1.
</event>
<event>
11    1  0.8453735E-009  0.1485614E+03  0.7561462E-02  0.1098358E+00
         22   -1    0    0    0    0  0.00000000000E+00  0.00000000000E+00  0.17091979277E+03  0.17091979277E+03  0.00000000000E+00 0.  1.
         22   -1    0    0    0    0 -0.00000000000E+00 -0.00000000000E+00 -0.54346749563E+03  0.54346749563E+03  0.00000000000E+00 0.  1.
        -24    2    1    2    0    0 -0.25267882795E+02 -0.54207611014E+01 -0.30288967371E+03  0.31428592030E+03  0.79784927823E+02 0.  0.
         25    2    1    2    0    0 -0.31477835128E+02 -0.54160137981E+02 -0.18806105125E+03  0.23439016151E+03  0.12509042395E+03 0.  0.
         24    2    1    2    0    0  0.56745717922E+02  0.59580899082E+02  0.11840302210E+03  0.16571120659E+03  0.81675995921E+02 0.  0.
        -13    1    5    5    0    0 -0.50318999201E+01 -0.20067920199E+01  0.61102785512E+02  0.61342461870E+02  0.00000000000E+00 0.  1.
         14    1    5    5    0    0  0.61777617843E+02  0.61587691102E+02  0.57300236586E+02  0.10436874472E+03  0.00000000000E+00 0. -1.
         13    1    3    3    0    0 -0.34352467805E+02  0.16181772953E+02 -0.65261832315E+02  0.75505288406E+02  0.00000000000E+00 0. -1.
        -14    1    3    3    0    0  0.90845850101E+01 -0.21602534054E+02 -0.23762784139E+03  0.23878063189E+03  0.00000000000E+00 0.  1.
          5    1    4    4  501    0 -0.74873860032E+02 -0.55935375945E+02 -0.10548002075E+03  0.14099066769E+03  0.41800000000E+01 0.  1.
         -5    1    4    4    0  501  0.43396024904E+02  0.17752379643E+01 -0.82581030498E+02  0.93399493818E+02  0.41800000000E+01 0.  1.
</event>
<event>
11    1  0.8453735E-009  0.1553227E+03  0.7561462E-02  0.1091561E+00
         22   -1    0    0    0    0  0.00000000000E+00  0.00000000000E+00  0.10501803483E+04  0.10501803483E+04  0.00000000000E+00 0.  1.
         22   -1    0    0    0    0 -0.00000000000E+00 -0.00000000000E+00 -0.16792844891E+03  0.16792844891E+03  0.00000000000E+00 0. -1.
         24    2    1    2    0    0 -0.38213541173E+01 -0.51236297212E+02 -0.90548392746E+02  0.13201803832E+03  0.81178754071E+02 0.  0.
         25    2    1    2    0    0  0.61557863151E+02  0.11903640717E+03  0.10731782068E+03  0.21242235889E+03  0.12508839744E+03 0.  0.
        -24    2    1    2    0    0 -0.57736509033E+02 -0.67800109953E+02  0.86548247149E+03  0.87366840004E+03  0.79411619907E+02 0.  0.
        -13    1    3    3    0    0  0.17104928163E+02 -0.61440753495E+02 -0.37255216667E+02  0.73861329032E+02  0.00000000000E+00 0.  1.
         14    1    3    3    0    0 -0.20926282280E+02  0.10204456283E+02 -0.53293176079E+02  0.58156709284E+02  0.00000000000E+00 0. -1.
         13    1    5    5    0    0 -0.15736627667E+02  0.17338949526E+02  0.13103444980E+03  0.13311013356E+03  0.00000000000E+00 0. -1.
        -14    1    5    5    0    0 -0.41999881366E+02 -0.85139059479E+02  0.73444802169E+03  0.74055826648E+03  0.00000000000E+00 0.  1.
          5    1    4    4  501    0  0.24564928699E+02  0.13522256641E+03  0.59841546459E+02  0.14995686470E+03  0.41800000000E+01 0.  1.
         -5    1    4    4    0  501  0.36992934452E+02 -0.16186159243E+02  0.47476274217E+02  0.62465494186E+02  0.41800000000E+01 0.  1.
</event>
<event>
11    1  0.8453735E-009  0.1432736E+03  0.7561462E-02  0.1103957E+00
         22   -1    0    0    0    0  0.00000000000E+00  0.00000000000E+00  0.42640550233E+03  0.42640550233E+03  0.00000000000E+00 0. -1.
         22   -1    0    0    0    0 -0.00000000000E+00 -0.00000000000E+00 -0.14759612313E+04  0.14759612313E+04  0.00000000000E+00 0.  1.
        -24    2    1    2    0    0  0.69405214619E+02 -0.31217154482E+01 -0.14226723604E+04  0.14266749603E+04  0.81104674457E+02 0.  0.
         25    2    1    2    0    0 -0.95972901138E+02  0.28627149380E+02  0.10005851753E+03  0.18891715443E+03  0.12509065862E+03 0.  0.
         24    2    1    2    0    0  0.26567686518E+02 -0.25505433932E+02  0.27305811397E+03  0.28677461888E+03  0.79514648343E+02 0.  0.
        -13    1    5    5    0    0 -0.20823117495E+02  0.14445613308E+02  0.68821903534E+02  0.73339841642E+02  0.00000000000E+00 0.  1.
         14    1    5    5    0    0  0.47390804013E+02 -0.39951047240E+02  0.20423621043E+03  0.21343477723E+03  0.00000000000E+00 0. -1.
         13    1    3    3    0    0  0.81123394999E+02  0.46147260510E+01 -0.86063084567E+03  0.86445806922E+03  0.00000000000E+00 0. -1.
        -14    1    3    3    0    0 -0.11718180380E+02 -0.77364414991E+01 -0.56204151476E+03  0.56221689106E+03  0.00000000000E+00 0.  1.
          5    1    4    4  501    0 -0.15986379960E+02 -0.24983935013E+02 -0.19201224149E+02  0.35579780238E+02  0.41800000000E+01 0. -1.
         -5    1    4    4    0  501 -0.79986521178E+02  0.53611084393E+02  0.11925974168E+03  0.15333737420E+03  0.41800000000E+01 0. -1.
</event>
<event>
11    1  0.8453735E-009  0.1413249E+03  0.7561462E-02  0.1106088E+00
         22   -1    0    0    0    0  0.00000000000E+00  0.00000000000E+00  0.95055174088E+03  0.95055174088E+03  0.00000000000E+00 0.  1.
         22   -1    0    0    0    0 -0.00000000000E+00 -0.00000000000E+00 -0.12137199757E+03  0.12137199757E+03  0.00000000000E+00 0. -1.
        -24    2    1    2    0    0  0.37082655743E+02 -0.56571246572E+02 -0.74305132205E+02  0.12645588790E+03  0.76775058560E+02 0.  0.
         25    2    1    2    0    0 -0.46407676006E+02  0.25899836963E+02  0.23479742432E+03  0.27129730231E+03  0.12509165371E+03 0.  0.
         24    2    1    2    0    0  0.93250202630E+01  0.30671409609E+02  0.66868745120E+03  0.67417054824E+03  0.79594782259E+02 0.  0.
        -11    1    5    5    0    0 -0.12054416022E+02  0.37927648875E+02  0.60989563566E+03  0.61119268802E+03  0.00000000000E+00 0.  1.
         12    1    5    5    0    0  0.21379436285E+02 -0.72562392663E+01  0.58791815537E+02  0.62977860223E+02  0.00000000000E+00 0. -1.
         13    1    3    3    0    0  0.21755150418E+02 -0.59512999022E+02 -0.86092782997E+02  0.10689738494E+03  0.00000000000E+00 0. -1.
        -14    1    3    3    0    0  0.15327505324E+02  0.29417524500E+01  0.11787650792E+02  0.19558502963E+02  0.00000000000E+00 0.  1.
          5    1    4    4  501    0 -0.87230628379E+02  0.19886958754E+02  0.12378455313E+03  0.15278992653E+03  0.41800000000E+01 0. -1.
         -5    1    4    4    0  501  0.40822952373E+02  0.60128782091E+01  0.11101287119E+03  0.11850737578E+03  0.41800000000E+01 0. -1.
</event>
<event>
11    1  0.8453735E-009  0.1432463E+03  0.7561462E-02  0.1103987E+00
         22   -1    0    0    0    0  0.00000000000E+00  0.00000000000E+00  0.67190946747E+03  0.67190946747E+03  0.00000000000E+00 0.  1.
         22   -1    0    0    0    0 -0.00000000000E+00 -0.00000000000E+00 -0.57407766278E+03  0.57407766278E+03  0.00000000000E+00 0. -1.
         24    2    1    2    0    0 -0.73486988856E+01  0.20281178740E+02 -0.49801574487E+03  0.50325179055E+03  0.69118398146E+02 0.  0.
         25    2    1    2    0    0  0.76150591210E+02 -0.27381971668E+02  0.12251888508E+02  0.14948846590E+03  0.12509199715E+03 0.  0.
        -24    2    1    2    0    0 -0.68801892324E+02  0.71007929280E+01  0.58359566105E+03  0.59324687380E+03  0.81079196049E+02 0.  0.
        -11    1    3    3    0    0 -0.10512955903E+02 -0.11286904869E+02 -0.26442011717E+02  0.30612031082E+02  0.00000000000E+00 0.  1.
         12    1    3    3    0    0  0.31642570172E+01  0.31568083610E+02 -0.47157373315E+03  0.47263975946E+03  0.00000000000E+00 0. -1.
         13    1    5    5    0    0  0.29813682287E+00 -0.24842387140E+02  0.75566047182E+02  0.79545336576E+02  0.00000000000E+00 0. -1.
        -14    1    5    5    0    0 -0.69100029147E+02  0.31943180068E+02  0.50802961387E+03  0.51370153722E+03  0.00000000000E+00 0.  1.
          5    1    4    4  501    0  0.38223900231E+02 -0.75529173040E+02  0.21307900360E+02  0.87391198336E+02  0.41800000000E+01 0.  1.
         -5    1    4    4    0  501  0.37926690980E+02  0.48147201371E+02 -0.90560118515E+01  0.62097267566E+02  0.41800000000E+01 0.  1.
</event>
<event>
11    1  0.8453735E-009  0.3981329E+03  0.7561462E-02  0.9655283E-01
         22   -1    0    0    0    0  0.00000000000E+00  0.00000000000E+00  0.15158249554E+04  0.15158249554E+04  0.00000000000E+00 0. -1.
         22   -1    0    0    0    0 -0.00000000000E+00 -0.00000000000E+00 -0.23637769984E+03  0.23637769984E+03  0.00000000000E+00 0. -1.
        -24    2    1    2    0    0  0.38089691301E+03  0.86440004006E+01  0.30191864838E+02  0.39089424749E+03  0.82034059625E+02 0.  0.
         25    2    1    2    0    0 -0.36291750705E+03  0.10476735084E+03  0.98005139945E+03  0.10577491659E+04  0.12508891942E+03 0.  0.
         24    2    1    2    0    0 -0.17979405958E+02 -0.11341135124E+03  0.26920399126E+03  0.30355924180E+03  0.80573139106E+02 0.  0.
        -11    1    5    5    0    0  0.16256545797E+02 -0.66852026894E+02  0.20932004197E+03  0.22033689830E+03  0.00000000000E+00 0.  1.
         12    1    5    5    0    0 -0.34235951755E+02 -0.46559324342E+02  0.59883949287E+02  0.83222343502E+02  0.00000000000E+00 0. -1.
         11    1    3    3    0    0  0.21797614016E+03 -0.10552498943E+02  0.54811155229E+02  0.22500936792E+03  0.00000000000E+00 0. -1.
        -12    1    3    3    0    0  0.16292077285E+03  0.19196499343E+02 -0.24619290391E+02  0.16588487957E+03  0.00000000000E+00 0.  1.
          5    1    4    4  501    0 -0.28230135380E+03  0.34801917396E+02  0.79109591224E+03  0.84068748211E+03  0.41800000000E+01 0.  1.
         -5    1    4    4    0  501 -0.80616153248E+02  0.69965433440E+02  0.18895548721E+03  0.21706168383E+03  0.41800000000E+01 0.  1.
</event>
<event>
11    1  0.8453735E-009  0.2007339E+03  0.7561462E-02  0.1054006E+00
         22   -1    0    0    0    0  0.00000000000E+00  0.00000000000E+00  0.90111761316E+03  0.90111761316E+03  0.00000000000E+00 0. -1.
         22   -1    0    0    0    0 -0.00000000000E+00 -0.00000000000E+00 -0.21075787166E+03  0.21075787166E+03  0.00000000000E+00 0.  1.
         24    2    1    2    0    0 -0.14124652148E+03 -0.68258224204E+02 -0.10950861669E+03  0.20263814008E+03  0.66785579902E+02 0.  0.
         25    2    1    2    0    0  0.13486137695E+03  0.82494891958E+02  0.14265196605E+03  0.24696336752E+03  0.12509325835E+03 0.  0.
        -24    2    1    2    0    0  0.63851445298E+01 -0.14236667754E+02  0.65721639214E+03  0.66227397723E+03  0.80187168839E+02 0.  0.
        -13    1    3    3    0    0 -0.11329555674E+03 -0.23957157418E+02 -0.90296227136E+02  0.14684426173E+03  0.00000000000E+00 0.  1.
         14    1    3    3    0    0 -0.27950964733E+02 -0.44301066786E+02 -0.19212389557E+02  0.55793878341E+02  0.00000000000E+00 0. -1.
         11    1    5    5    0    0  0.51798439333E+01 -0.38054771139E+02  0.58421075215E+03  0.58547177500E+03  0.00000000000E+00 0. -1.
        -12    1    5    5    0    0  0.12053005965E+01  0.23818103386E+02  0.73005639985E+02  0.76802202235E+02  0.00000000000E+00 0.  1.
          5    1    4    4  501    0  0.48243827996E+02  0.29354237979E+02 -0.15699996152E+02  0.58763087957E+02  0.41800000000E+01 0. -1.
         -5    1    4    4    0  501  0.86617548951E+02  0.53140653979E+02  0.15835196221E+03  0.18820027956E+03  0.41800000000E+01 0. -1.
</event>
<event>
11    1  0.8453735E-009  0.1397021E+03  0.7561462E-02  0.1107891E+00
         22   -1    0    0    0    0  0.00000000000E+00  0.00000000000E+00  0.18796121449E+04  0.18796121449E+04  0.00000000000E+00 0.  1.
         22   -1    0    0    0    0 -0.00000000000E+00 -0.00000000000E+00 -0.61034373483E+03  0.61034373483E+03  0.00000000000E+00 0.  1.
         24    2    1    2    0    0 -0.61910317122E+02  0.75420045473E+00 -0.22147652516E+03  0.24341798738E+03  0.79793541057E+02 0.  0.
         25    2    1    2    0    0  0.60755864414E+02 -0.21086861568E+02 -0.36386217146E+03  0.39010249332E+03  0.12509334388E+03 0.  0.
        -24    2    1    2    0    0  0.11544527076E+01  0.20332661113E+02  0.18546071067E+04  0.18564353990E+04  0.79813036017E+02 0.  0.
        -11    1    3    3    0    0 -0.76316308497E+02 -0.92799803646E+01 -0.13662739225E+03  0.15677162145E+03  0.00000000000E+00 0.  1.
         12    1    3    3    0    0  0.14405991375E+02  0.10034180819E+02 -0.84849132912E+02  0.86646365926E+02  0.00000000000E+00 0. -1.
         13    1    5    5    0    0  0.26984054836E+02 -0.16708403684E+02  0.45796868777E+03  0.45906712902E+03  0.00000000000E+00 0. -1.
        -14    1    5    5    0    0 -0.25829602128E+02  0.37041064797E+02  0.13966384189E+04  0.13973682700E+04  0.00000000000E+00 0.  1.
          5    1    4    4  501    0  0.17775654130E+02 -0.12071695009E+02  0.16366715645E+01  0.21951100063E+02  0.41800000000E+01 0.  1.
         -5    1    4    4    0  501  0.42980210284E+02 -0.90151665588E+01 -0.36549884302E+03  0.36815139325E+03  0.41800000000E+01 0.  1.
</event>
<event>
11    1  0.8453735E-009  0.2906290E+03  0.7561462E-02  0.1004237E+00
         22   -1    0    0    0    0  0.00000000000E+00  0.00000000000E+00  0.14254213945E+04  0.14254213945E+04  0.00000000000E+00 0. -1.
         22   -1    0    0    0    0 -0.00000000000E+00 -0.00000000000E+00 -0.72664190539E+03  0.72664190539E+03  0.00000000000E+00 0.  1.
        -24    2    1    2    0    0 -0.16098511012E+03 -0.18796191447E+03 -0.46529435246E+03  0.53189500064E+03  0.71885814333E+02 0.  0.
         25    2    1    2    0    0  0.20050784073E+03  0.25077394055E+03 -0.94122226974E+02  0.35721713263E+03  0.12511643688E+03 0.  0.
         24    2    1    2    0    0 -0.39522730611E+02 -0.62812026079E+02  0.12581960685E+04  0.12629511666E+04  0.80504071377E+02 0.  0.
        -11    1    5    5    0    0 -0.31044985030E+02  0.11739854601E+02  0.30291636494E+03  0.30472928877E+03  0.00000000000E+00 0.  1.
         12    1    5    5    0    0 -0.84777455811E+01 -0.74551880680E+02  0.95527970358E+03  0.95822187783E+03  0.00000000000E+00 0. -1.
         11    1    3    3    0    0 -0.99216891359E+01  0.19317304389E+01 -0.43938694856E+01  0.11021687115E+02  0.00000000000E+00 0. -1.
        -12    1    3    3    0    0 -0.15106342099E+03 -0.18989364491E+03 -0.46090048297E+03  0.52087331352E+03  0.00000000000E+00 0.  1.
          5    1    4    4  501    0  0.34824558414E+02  0.55190267664E+02  0.30516221787E+02  0.72162509004E+02  0.41800000000E+01 0. -1.
         -5    1    4    4    0  501  0.16568328232E+03  0.19558367288E+03 -0.12463844876E+03  0.28505462362E+03  0.41800000000E+01 0. -1.
</event>
<event>
11    1  0.8453735E-009  0.1432718E+03  0.7561462E-02  0.1103959E+00
         22   -1    0    0    0    0  0.00000000000E+00  0.00000000000E+00  0.79006413670E+03  0.79006413670E+03  0.00000000000E+00 0. -1.
         22   -1    0    0    0    0 -0.00000000000E+00 -0.00000000000E+00 -0.39550116707E+03  0.39550116707E+03  0.00000000000E+00 0. -1.
         24    2    1    2    0    0 -0.49118877741E+02 -0.24024822229E+02 -0.30342150516E+03  0.31820535271E+03  0.78741224699E+02 0.  0.
         25    2    1    2    0    0  0.19493562755E+02  0.87180078993E+02 -0.75144016855E+01  0.15389911205E+03  0.12509238704E+03 0.  0.
        -24    2    1    2    0    0  0.29625314986E+02 -0.63155256764E+02  0.70549887648E+03  0.71346083900E+03  0.80196373523E+02 0.  0.
        -11    1    3    3    0    0 -0.25692897754E+02  0.22372464018E+02 -0.57361501618E+02  0.66715770318E+02  0.00000000000E+00 0.  1.
         12    1    3    3    0    0 -0.23425979987E+02 -0.46397286247E+02 -0.24606000355E+03  0.25148958240E+03  0.00000000000E+00 0. -1.
         13    1    5    5    0    0  0.47343486780E+02 -0.59839823786E+02  0.66188549988E+03  0.66626918374E+03  0.00000000000E+00 0. -1.
        -14    1    5    5    0    0 -0.17718171794E+02 -0.33154329783E+01  0.43613376594E+02  0.47191655253E+02  0.00000000000E+00 0.  1.
          5    1    4    4  501    0  0.49577441574E+01  0.90630896225E+02 -0.53447783766E+02  0.10541668069E+03  0.41800000000E+01 0. -1.
         -5    1    4    4    0  501  0.14535818598E+02 -0.34508172311E+01  0.45933382080E+02  0.48482431366E+02  0.41800000000E+01 0. -1.
</event>
<event>
11    1  0.8453735E-009  0.1318987E+03  0.7561462E-02  0.1116958E+00
         22   -1    0    0    0    0  0.00000000000E+00  0.00000000000E+00  0.33767509519E+03  0.33767509519E+03  0.00000000000E+00 0. -1.
         22   -1    0    0    0    0 -0.00000000000E+00 -0.00000000000E+00 -0.11368124451E+04  0.11368124451E+04  0.00000000000E+00 0.  1.
         24    2    1    2    0    0 -0.20209406501E+02  0.37639928280E+02 -0.10265412836E+04  0.10304670558E+04  0.79057965382E+02 0.  0.
         25    2    1    2    0    0 -0.66761240703E+01 -0.29811486951E+02 -0.61240822911E+02  0.14258793136E+03  0.12509030495E+03 0.  0.
        -24    2    1    2    0    0  0.26885530572E+02 -0.78284413291E+01  0.28864475662E+03  0.30143255308E+03  0.82229388215E+02 0.  0.
        -11    1    3    3    0    0 -0.21497462431E+01 -0.10997092070E+02 -0.67734323315E+03  0.67743591057E+03  0.00000000000E+00 0.  1.
         12    1    3    3    0    0 -0.18059660258E+02  0.48637020350E+02 -0.34919805044E+03  0.35303114524E+03  0.00000000000E+00 0. -1.
         11    1    5    5    0    0  0.50327600779E+02 -0.24049380085E+02  0.15366305203E+03  0.16347346464E+03  0.00000000000E+00 0. -1.
        -12    1    5    5    0    0 -0.23442070207E+02  0.16220938756E+02  0.13498170459E+03  0.13795908844E+03  0.00000000000E+00 0.  1.
          5    1    4    4  501    0 -0.39133295732E+02 -0.13973362614E+02  0.25224881148E+02  0.48789719476E+02  0.41800000000E+01 0. -1.
         -5    1    4    4    0  501  0.32457171662E+02 -0.15838124337E+02 -0.86465704059E+02  0.93798211888E+02  0.41800000000E+01 0. -1.
</event>
<event>
11    1  0.8453735E-009  0.1395683E+03  0.7561462E-02  0.1108041E+00
         22   -1    0    0    0    0  0.00000000000E+00  0.00000000000E+00  0.37428048326E+03  0.37428048326E+03  0.00000000000E+00 0.  1.
         22   -1    0    0    0    0 -0.00000000000E+00 -0.00000000000E+00 -0.19737223727E+04  0.19737223727E+04  0.00000000000E+00 0.  1.
         24    2    1    2    0    0 -0.61665741471E+02  0.22989251409E+00 -0.17721866235E+04  0.17750680203E+04  0.80114490072E+02 0.  0.
         25    2    1    2    0    0  0.65763116253E+02 -0.31258497346E+02 -0.16769431512E+03  0.22151959920E+03  0.12509064070E+03 0.  0.
        -24    2    1    2    0    0 -0.40973747818E+01  0.31028604832E+02  0.34043904926E+03  0.35141523642E+03  0.81328711563E+02 0.  0.
        -11    1    3    3    0    0 -0.28327483461E+02 -0.60621260831E-01 -0.15617404416E+04  0.15619973294E+04  0.00000000000E+00 0.  1.
         12    1    3    3    0    0 -0.33338258010E+02  0.29051377492E+00 -0.21044618191E+03  0.21307069091E+03  0.00000000000E+00 0. -1.
         11    1    5    5    0    0 -0.18366898336E+02  0.46861987660E+02  0.12251327377E+03  0.13244957943E+03  0.00000000000E+00 0. -1.
        -12    1    5    5    0    0  0.14269523554E+02 -0.15833382829E+02  0.21792577549E+03  0.21896565698E+03  0.00000000000E+00 0.  1.
          5    1    4    4  501    0  0.87584211014E+02 -0.39707367704E+02 -0.17224703477E+03  0.19731746617E+03  0.41800000000E+01 0. -1.
         -5    1    4    4    0  501 -0.21821094761E+02  0.84488703587E+01  0.45527196516E+01  0.24202133029E+02  0.41800000000E+01 0. -1.
</event>
<event>
11    1  0.8453735E-009  0.1659895E+03  0.7561462E-02  0.1081575E+00
         22   -1    0    0    0    0  0.00000000000E+00  0.00000000000E+00  0.61752993489E+02  0.61752993489E+02  0.00000000000E+00 0. -1.
         22   -1    0    0    0    0 -0.00000000000E+00 -0.00000000000E+00 -0.32400928876E+04  0.32400928876E+04  0.00000000000E+00 0.  1.
        -24    2    1    2    0    0 -0.11775085817E+02  0.10464344612E+03 -0.25362007604E+04  0.25396537446E+04  0.80236786673E+02 0.  0.
         25    2    1    2    0    0  0.47923908358E+02 -0.13427140467E+03 -0.64229834901E+03  0.66971649093E+03  0.12508995953E+03 0.  0.
         24    2    1    2    0    0 -0.36148822541E+02  0.29627958556E+02  0.15921529923E+00  0.92475645562E+02  0.79794525961E+02 0.  0.
        -13    1    5    5    0    0  0.22118480839E+02  0.16807767999E+02  0.14179311868E+02  0.31189439636E+02  0.00000000000E+00 0.  1.
         14    1    5    5    0    0 -0.58267303380E+02  0.12820190557E+02 -0.14020096569E+02  0.61286205926E+02  0.00000000000E+00 0. -1.
         13    1    3    3    0    0 -0.73872884155E+01 -0.10922494194E+02 -0.12793453512E+03  0.12861227852E+03  0.00000000000E+00 0. -1.
        -14    1    3    3    0    0 -0.43877974015E+01  0.11556594031E+03 -0.24082662253E+04  0.24110414661E+04  0.00000000000E+00 0.  1.
          5    1    4    4  501    0  0.41615235224E+02 -0.14946901375E+02 -0.56638848654E+02  0.71976866007E+02  0.41800000000E+01 0. -1.
         -5    1    4    4    0  501  0.63086731343E+01 -0.11932450330E+03 -0.58565950035E+03  0.59773962492E+03  0.41800000000E+01 0. -1.
</event>
<event>
11    1  0.8453735E-009  0.1334062E+03  0.7561462E-02  0.1115153E+00
         22   -1    0    0    0    0  0.00000000000E+00  0.00000000000E+00  0.82328785549E+03  0.82328785549E+03  0.00000000000E+00 0.  1.
         22   -1    0    0    0    0 -0.00000000000E+00 -0.00000000000E+00 -0.28193844101E+03  0.28193844101E+03  0.00000000000E+00 0. -1.
         24    2    1    2    0    0 -0.17164136152E+02 -0.30232607651E+02 -0.25824584073E+03  0.27243047558E+03  0.79491078970E+02 0.  0.
         25    2    1    2    0    0  0.50016384355E+02 -0.56853635149E+01  0.41842681295E+03  0.43961612004E+03  0.12508946054E+03 0.  0.
        -24    2    1    2    0    0 -0.32852248203E+02  0.35917971166E+02  0.38116844226E+03  0.39317970088E+03  0.83255780258E+02 0.  0.
        -11    1    3    3    0    0  0.21196199044E+02 -0.20806244565E+01 -0.19135301638E+02  0.28631584323E+02  0.00000000000E+00 0.  1.
         12    1    3    3    0    0 -0.38360335196E+02 -0.28151983195E+02 -0.23911053909E+03  0.24379889125E+03  0.00000000000E+00 0. -1.
         11    1    5    5    0    0 -0.27363056542E+01  0.35785838704E+02  0.55320220216E+02  0.65942705322E+02  0.00000000000E+00 0. -1.
        -12    1    5    5    0    0 -0.30115942548E+02  0.13213246256E+00  0.32584822204E+03  0.32723699556E+03  0.00000000000E+00 0.  1.
          5    1    4    4  501    0  0.57234999621E+02 -0.26702257283E+02  0.41095652038E+03  0.41580234459E+03  0.41800000000E+01 0. -1.
         -5    1    4    4    0  501 -0.72186152661E+01  0.21016893768E+02  0.74702925746E+01  0.23813775450E+02  0.41800000000E+01 0. -1.
</event>
<event>
11    1  0.8453735E-009  0.1443596E+03  0.7561462E-02  0.1102786E+00
         22   -1    0    0    0    0  0.00000000000E+00  0.00000000000E+00  0.10474379507E+04  0.10474379507E+04  0.00000000000E+00 0.  1.
         22   -1    0    0    0    0 -0.00000000000E+00 -0.00000000000E+00 -0.20329500644E+03  0.20329500644E+03  0.00000000000E+00 0.  1.
         24    2    1    2    0    0  0.28938379565E+02  0.49869517388E+02 -0.16124737728E+03  0.18997975826E+03  0.82262952111E+02 0.  0.
         25    2    1    2    0    0 -0.45392729625E+02 -0.11235944532E+03  0.29207277042E+03  0.34005734334E+03  0.12508936279E+03 0.  0.
        -24    2    1    2    0    0  0.16454350060E+02  0.62489927927E+02  0.71331755110E+03  0.72069585552E+03  0.80030311297E+02 0.  0.
        -13    1    3    3    0    0  0.42489261669E+02  0.44526692047E+02 -0.16398879620E+03  0.17515789717E+03  0.00000000000E+00 0.  1.
         14    1    3    3    0    0 -0.13550882104E+02  0.53428253412E+01  0.27414189156E+01  0.14821861087E+02  0.00000000000E+00 0. -1.
         11    1    5    5    0    0  0.38710651690E+02  0.27335558979E+01  0.24419749444E+03  0.24726181099E+03  0.00000000000E+00 0. -1.
        -12    1    5    5    0    0 -0.22256301630E+02  0.59756372029E+02  0.46912005666E+03  0.47343404453E+03  0.00000000000E+00 0.  1.
          5    1    4    4  501    0 -0.62925812303E+02 -0.12261113066E+03  0.28745736205E+03  0.31881398120E+03  0.41800000000E+01 0. -1.
         -5    1    4    4    0  501  0.17533082679E+02  0.10251685341E+02  0.46154083771E+01  0.21243362141E+02  0.41800000000E+01 0. -1.
</event>
<event>
11    1  0.8453735E-009  0.4006310E+03  0.7561462E-02  0.9647898E-01
         22   -1    0    0    0    0  0.00000000000E+00  0.00000000000E+00  0.12630121713E+04  0.12630121713E+04  0.00000000000E+00 0. -1.
         22   -1    0    0    0    0 -0.00000000000E+00 -0.00000000000E+00 -0.61466919542E+03  0.61466919542E+03  0.00000000000E+00 0.  1.
         24    2    1    2    0    0  0.37806982609E+03  0.35561063621E+02 -0.48061324889E+03  0.61777677777E+03  0.80359626049E+02 0.  0.
         25    2    1    2    0    0 -0.39018092358E+03 -0.60145368805E+01  0.61773470590E+03  0.74129742068E+03  0.12509345012E+03 0.  0.
        -24    2    1    2    0    0  0.12111097485E+02 -0.29546526741E+02  0.51122151890E+03  0.51860716829E+03  0.81155885144E+02 0.  0.
        -13    1    3    3    0    0  0.14916820300E+03  0.48227964811E+02 -0.22739284595E+03  0.27619666140E+03  0.00000000000E+00 0.  1.
         14    1    3    3    0    0  0.22890162309E+03 -0.12666901189E+02 -0.25322040294E+03  0.34158011637E+03  0.00000000000E+00 0. -1.
         11    1    5    5    0    0  0.19672260686E+02 -0.51924065375E+02  0.44183721211E+03  0.44531250646E+03  0.00000000000E+00 0. -1.
        -12    1    5    5    0    0 -0.75611632009E+01  0.22377538635E+02  0.69384306794E+02  0.73294661836E+02  0.00000000000E+00 0.  1.
          5    1    4    4  501    0 -0.14777431806E+03 -0.62982438522E+02  0.23657436544E+03  0.28598765607E+03  0.41800000000E+01 0.  1.
         -5    1    4    4    0  501 -0.24240660551E+03  0.56967901641E+02  0.38116034046E+03  0.45530976461E+03  0.41800000000E+01 0.  1.
</event>
<event>
11    1  0.8453735E-009  0.1790396E+03  0.7561462E-02  0.1070422E+00
         22   -1    0    0    0    0  0.00000000000E+00  0.00000000000E+00  0.75527868043E+03  0.75527868043E+03  0.00000000000E+00 0.  1.
         22   -1    0    0    0    0 -0.00000000000E+00 -0.00000000000E+00 -0.14005628979E+03  0.14005628979E+03  0.00000000000E+00 0.  1.
         24    2    1    2    0    0 -0.11148498191E+03  0.12634328184E+03 -0.26942671395E+02  0.18895950568E+03  0.81168104497E+02 0.  0.
         25    2    1    2    0    0 -0.24075803610E+01 -0.70035958039E+02  0.28751012440E+03  0.32127935320E+03  0.12509004477E+03 0.  0.
        -24    2    1    2    0    0  0.11389256227E+03 -0.56307323800E+02  0.35465493763E+03  0.38509611134E+03  0.79855242310E+02 0.  0.
        -11    1    3    3    0    0 -0.82728941220E+02  0.98216444071E+02  0.16827369531E+02  0.12951335053E+03  0.00000000000E+00 0.  1.
         12    1    3    3    0    0 -0.28756040693E+02  0.28126837768E+02 -0.43770040926E+02  0.59446155147E+02  0.00000000000E+00 0. -1.
         13    1    5    5    0    0  0.59659522990E+02 -0.25565693158E+00  0.23354917418E+03  0.24104883490E+03  0.00000000000E+00 0. -1.
        -14    1    5    5    0    0  0.54233039284E+02 -0.56051666868E+02  0.12110576345E+03  0.14404727644E+03  0.00000000000E+00 0.  1.
          5    1    4    4  501    0  0.23868072794E+02 -0.65704252313E+02  0.60118143340E+02  0.92295163630E+02  0.41800000000E+01 0. -1.
         -5    1    4    4    0  501 -0.26275653155E+02 -0.43317057263E+01  0.22739198106E+03  0.22898418957E+03  0.41800000000E+01 0. -1.
</event>
<event>
11    1  0.8453735E-009  0.1656501E+03  0.7561462E-02  0.1081880E+00
         22   -1    0    0    0    0  0.00000000000E+00  0.00000000000E+00  0.24684938556E+04  0.24684938556E+04  0.00000000000E+00 0. -1.
         22   -1    0    0    0    0 -0.00000000000E+00 -0.00000000000E+00 -0.71709488480E+02  0.71709488480E+02  0.00000000000E+00 0.  1.
         24    2    1    2    0    0 -0.21755391405E+02  0.13217255408E+02 -0.28368896198E+02  0.89644449053E+02  0.81137784533E+02 0.  0.
         25    2    1    2    0    0 -0.89898111442E+02  0.47425216431E+01  0.56773115583E+03  0.58827721062E+03  0.12508896546E+03 0.  0.
        -24    2    1    2    0    0  0.11165350285E+03 -0.17959777051E+02  0.18574221075E+04  0.18622816844E+04  0.72712642701E+02 0.  0.
        -13    1    3    3    0    0 -0.47849698602E+02  0.27503642313E+02 -0.16380227442E+02  0.57570442484E+02  0.00000000000E+00 0.  1.
         14    1    3    3    0    0  0.26094307197E+02 -0.14286386904E+02 -0.11988668756E+02  0.32074006569E+02  0.00000000000E+00 0. -1.
         11    1    5    5    0    0  0.98624830570E+02 -0.66819310011E+01  0.17887954263E+04  0.17915246531E+04  0.00000000000E+00 0. -1.
        -12    1    5    5    0    0  0.13028672277E+02 -0.11277846050E+02  0.68626681165E+02  0.70757031316E+02  0.00000000000E+00 0.  1.
          5    1    4    4  501    0 -0.11419899436E+03  0.71265987890E+01  0.53561859480E+03  0.54771977344E+03  0.41800000000E+01 0. -1.
         -5    1    4    4    0  501  0.24300882918E+02 -0.23840771459E+01  0.32112561037E+02  0.40557437182E+02  0.41800000000E+01 0. -1.
</event>
<event>
11    1  0.8453735E-009  0.1299307E+03  0.7561462E-02  0.1119354E+00
         22   -1    0    0    0    0  0.00000000000E+00  0.00000000000E+00  0.28396507454E+03  0.28396507454E+03  0.00000000000E+00 0. -1.
         22   -1    0    0    0    0 -0.00000000000E+00 -0.00000000000E+00 -0.50002406640E+03  0.50002406640E+03  0.00000000000E+00 0. -1.
        -24    2    1    2    0    0  0.47354244832E+02 -0.31380472128E+01 -0.27508027563E+03  0.29115784745E+03  0.82773560067E+02 0.  0.
         25    2    1    2    0    0 -0.37022275344E+01  0.16817148586E+02 -0.19025957054E+03  0.22834673644E+03  0.12508798858E+03 0.  0.
         24    2    1    2    0    0 -0.43652017297E+02 -0.13679101373E+02  0.24928085431E+03  0.26448455706E+03  0.75620897672E+02 0.  0.
        -13    1    5    5    0    0 -0.21814433790E+02 -0.25139031036E+02  0.33236925046E+02  0.47037576357E+02  0.00000000000E+00 0.  1.
         14    1    5    5    0    0 -0.21837583507E+02  0.11459929663E+02  0.21604392927E+03  0.21744698070E+03  0.00000000000E+00 0. -1.
         13    1    3    3    0    0  0.56237597637E+02 -0.11068529911E+01 -0.91874983513E+02  0.10772606512E+03  0.00000000000E+00 0. -1.
        -14    1    3    3    0    0 -0.88833528058E+01 -0.20311942217E+01 -0.18320529212E+03  0.18343178232E+03  0.00000000000E+00 0.  1.
          5    1    4    4  501    0 -0.20522153844E+02  0.68521283497E+02 -0.10385579613E+03  0.12617378444E+03  0.41800000000E+01 0. -1.
         -5    1    4    4    0  501  0.16819926309E+02 -0.51704134912E+02 -0.86403774411E+02  0.10217295200E+03  0.41800000000E+01 0. -1.
</event>
<event>
11    1  0.8453735E-009  0.4165332E+03  0.7561462E-02  0.9602197E-01
         22   -1    0    0    0    0  0.00000000000E+00  0.00000000000E+00  0.23867416458E+04  0.23867416458E+04  0.00000000000E+00 0. -1.
         22   -1    0    0    0    0 -0.00000000000E+00 -0.00000000000E+00 -0.11461243453E+03  0.11461243453E+03  0.00000000000E+00 0. -1.
        -24    2    1    2    0    0 -0.51215310306E+02 -0.44415082219E+02  0.10598531751E+03  0.15616555335E+03  0.92515322993E+02 0.  0.
         25    2    1    2    0    0  0.17940463143E+03  0.40183587024E+03  0.76677864313E+03  0.89289169255E+03  0.12509196091E+03 0.  0.
         24    2    1    2    0    0 -0.12818932112E+03 -0.35742078802E+03  0.13993652506E+04  0.14522968344E+04  0.82224502506E+02 0.  0.
        -11    1    5    5    0    0 -0.75846248622E+02 -0.10472310624E+03  0.52110846699E+03  0.53691118146E+03  0.00000000000E+00 0.  1.
         12    1    5    5    0    0 -0.52343072501E+02 -0.25269768178E+03  0.87825678365E+03  0.91538565296E+03  0.00000000000E+00 0. -1.
         13    1    3    3    0    0 -0.72369792550E+02 -0.17980679962E+02  0.46975322366E+02  0.88132699022E+02  0.00000000000E+00 0. -1.
        -14    1    3    3    0    0  0.21154482244E+02 -0.26434402257E+02  0.59009995142E+02  0.68032854330E+02  0.00000000000E+00 0.  1.
          5    1    4    4  501    0  0.30952399248E+02  0.39549599141E+02  0.30305874088E+02  0.58805953914E+02  0.41800000000E+01 0.  1.
         -5    1    4    4    0  501  0.14845223218E+03  0.36228627110E+03  0.73647276904E+03  0.83408573864E+03  0.41800000000E+01 0.  1.
</event>
<event>
11    1  0.8453735E-009  0.2499371E+03  0.7561462E-02  0.1023933E+00
         22   -1    0    0    0    0  0.00000000000E+00  0.00000000000E+00  0.26389935633E+04  0.26389935633E+04  0.00000000000E+00 0. -1.
         22   -1    0    0    0    0 -0.00000000000E+00 -0.00000000000E+00 -0.32950128409E+03  0.32950128409E+03  0.00000000000E+00 0.  1.
         24    2    1    2    0    0 -0.20178081179E+03  0.43670974629E+01 -0.75081543506E+02  0.23216062589E+03  0.86756846961E+02 0.  0.
         25    2    1    2    0    0  0.21475622053E+03  0.19327082607E+03 -0.26335853161E+02  0.31593632496E+03  0.12509331638E+03 0.  0.
        -24    2    1    2    0    0 -0.12975408744E+02 -0.19763792353E+03  0.24109096758E+04  0.24203978965E+04  0.81310529847E+02 0.  0.
        -11    1    3    3    0    0 -0.19158822798E+03 -0.19822827189E+02 -0.59302715618E+02  0.20153363406E+03  0.00000000000E+00 0.  1.
         12    1    3    3    0    0 -0.10192583810E+02  0.24189924652E+02 -0.15778827888E+02  0.30626991836E+02  0.00000000000E+00 0. -1.
         11    1    5    5    0    0  0.32333052270E+01 -0.18660036685E+03  0.19079071909E+04  0.19170133020E+04  0.00000000000E+00 0. -1.
        -12    1    5    5    0    0 -0.16208713971E+02 -0.11037556685E+02  0.50300248499E+03  0.50338459449E+03  0.00000000000E+00 0.  1.
          5    1    4    4  501    0  0.12105200759E+03  0.15332239226E+03  0.32723334012E+02  0.19811520259E+03  0.41800000000E+01 0. -1.
         -5    1    4    4    0  501  0.93704212939E+02  0.39948433808E+02 -0.59059187173E+02  0.11782112237E+03  0.41800000000E+01 0. -1.
</event>
<event>
11    1  0.8453735E-009  0.1532271E+03  0.7561462E-02  0.1093626E+00
         22   -1    0    0    0    0  0.00000000000E+00  0.00000000000E+00  0.23969016165E+04  0.23969016165E+04  0.00000000000E+00 0. -1.
         22   -1    0    0    0    0 -0.00000000000E+00 -0.00000000000E+00 -0.10167845374E+04  0.10167845374E+04  0.00000000000E+00 0. -1.
         24    2    1    2    0    0 -0.79807190940E+02  0.38519964807E+02 -0.99076770293E+03  0.99811215599E+03  0.82184301177E+02 0.  0.
         25    2    1    2    0    0  0.57063348919E+02 -0.64738313120E+02  0.24859035288E+03  0.29136131092E+03  0.12508786903E+03 0.  0.
        -24    2    1    2    0    0  0.22743842021E+02  0.26218348314E+02  0.21222944291E+04  0.21242126869E+04  0.83313931412E+02 0.  0.
        -13    1    3    3    0    0  0.28397311412E+01 -0.49646352962E+01 -0.41060400735E+01  0.70406847439E+01  0.00000000000E+00 0.  1.
         14    1    3    3    0    0 -0.82646922081E+02  0.43484600103E+02 -0.98666166286E+03  0.99107147125E+03  0.00000000000E+00 0. -1.
         13    1    5    5    0    0  0.57321619424E+01  0.15700446018E+02  0.20150424449E+04  0.20151117627E+04  0.00000000000E+00 0. -1.
        -14    1    5    5    0    0  0.17011680079E+02  0.10517902295E+02  0.10725198428E+03  0.10910092419E+03  0.00000000000E+00 0.  1.
          5    1    4    4  501    0 -0.23915502815E+02  0.15213203126E+02  0.10077749829E+03  0.10477103314E+03  0.41800000000E+01 0.  1.
         -5    1    4    4    0  501  0.80978851734E+02 -0.79951516246E+02  0.14781285459E+03  0.18659027778E+03  0.41800000000E+01 0.  1.
</event>
<event>
11    1  0.8453735E-009  0.1351748E+03  0.7561462E-02  0.1113069E+00
         22   -1    0    0    0    0  0.00000000000E+00  0.00000000000E+00  0.34465748555E+03  0.34465748555E+03  0.00000000000E+00 0. -1.
         22   -1    0    0    0    0 -0.00000000000E+00 -0.00000000000E+00 -0.10211542968E+04  0.10211542968E+04  0.00000000000E+00 0.  1.
        -24    2    1    2    0    0 -0.53671546012E+02  0.15308721048E+02 -0.85517860972E+03  0.86080885384E+03  0.80910052150E+02 0.  0.
         25    2    1    2    0    0 -0.23099745129E+01 -0.32418705253E+02 -0.12912025499E+03  0.18269170171E+03  0.12509160321E+03 0.  0.
         24    2    1    2    0    0  0.55981520525E+02  0.17109984205E+02  0.30780205346E+03  0.32231122681E+03  0.75602517245E+02 0.  0.
        -13    1    5    5    0    0 -0.43656518837E+01 -0.22804200867E+02  0.70615198566E+02  0.74334357884E+02  0.00000000000E+00 0.  1.
         14    1    5    5    0    0  0.60347172409E+02  0.39914185072E+02  0.23718685489E+03  0.24797686892E+03  0.00000000000E+00 0. -1.
         11    1    3    3    0    0  0.15324389413E+01 -0.27092240191E+02 -0.17710631064E+03  0.17917305354E+03  0.00000000000E+00 0. -1.
        -12    1    3    3    0    0 -0.55203984954E+02  0.42400961239E+02 -0.67807229908E+03  0.68163580030E+03  0.00000000000E+00 0.  1.
          5    1    4    4  501    0 -0.15037629567E+02 -0.72477450230E+02 -0.40405528366E+02  0.84434532138E+02  0.41800000000E+01 0.  1.
         -5    1    4    4    0  501  0.12727655054E+02  0.40058744977E+02 -0.88714726624E+02  0.98257169572E+02  0.41800000000E+01 0.  1.
</event>
<event>
11    1  0.8453735E-009  0.1811059E+03  0.7561462E-02  0.1068752E+00
         22   -1    0    0    0    0  0.00000000000E+00  0.00000000000E+00  0.12352070832E+04  0.12352070832E+04  0.00000000000E+00 0.  1.
         22   -1    0    0    0    0 -0.00000000000E+00 -0.00000000000E+00 -0.63616122700E+03  0.63616122700E+03  0.00000000000E+00 0. -1.
         24    2    1    2    0    0  0.44021484624E+02 -0.15682599324E+02 -0.58154071446E+03  0.58926585929E+03  0.82830038763E+02 0.  0.
         25    2    1    2    0    0 -0.16850305963E+03 -0.57391499994E+01  0.19991943431E+03  0.28989909150E+03  0.12508990403E+03 0.  0.
        -24    2    1    2    0    0  0.12448157500E+03  0.21421749323E+02  0.98066713632E+03  0.99220335938E+03  0.82491940520E+02 0.  0.
        -11    1    3    3    0    0  0.27358845323E+02  0.17005380040E+02 -0.77998220296E+02  0.84388457369E+02  0.00000000000E+00 0.  1.
         12    1    3    3    0    0  0.16662639302E+02 -0.32687979363E+02 -0.50354249416E+03  0.50487740192E+03  0.00000000000E+00 0. -1.
         13    1    5    5    0    0  0.32839967933E+02 -0.30932994935E+02  0.27047653920E+03  0.27421318701E+03  0.00000000000E+00 0. -1.
        -14    1    5    5    0    0  0.91641607070E+02  0.52354744258E+02  0.71019059712E+03  0.71799017238E+03  0.00000000000E+00 0.  1.
          5    1    4    4  501    0 -0.18415974283E+03 -0.22877712202E+02  0.18451374352E+03  0.26172694653E+03  0.41800000000E+01 0.  1.
         -5    1    4    4    0  501  0.15656683199E+02  0.17138562202E+02  0.15405690785E+02  0.28172144961E+02  0.41800000000E+01 0.  1.
</event>
<event>
11    1  0.8453735E-009  0.4056762E+03  0.7561462E-02  0.9633157E-01
         22   -1    0    0    0    0  0.00000000000E+00  0.00000000000E+00  0.54173540025E+03  0.54173540025E+03  0.00000000000E+00 0. -1.
         22   -1    0    0    0    0 -0.00000000000E+00 -0.00000000000E+00 -0.47296399819E+03  0.47296399819E+03  0.00000000000E+00 0. -1.
         24    2    1    2    0    0 -0.11509569990E+03 -0.20305838278E+02 -0.11606596024E+03  0.18350081270E+03  0.80881975318E+02 0.  0.
         25    2    1    2    0    0 -0.32226562262E+03 -0.13055392871E+02 -0.71456381406E+01  0.34601278789E+03  0.12509282327E+03 0.  0.
        -24    2    1    2    0    0  0.43736132252E+03  0.33361231149E+02  0.19198300044E+03  0.48518579785E+03  0.78421220309E+02 0.  0.
        -11    1    3    3    0    0 -0.94442592115E+02 -0.48058676670E+01 -0.12449468627E+03  0.15633754021E+03  0.00000000000E+00 0.  1.
         12    1    3    3    0    0 -0.20653107786E+02 -0.15499970611E+02  0.84287260251E+01  0.27163272494E+02  0.00000000000E+00 0. -1.
         13    1    5    5    0    0  0.24380698477E+03  0.52936788322E+02  0.87675919418E+02  0.26444511004E+03  0.00000000000E+00 0. -1.
        -14    1    5    5    0    0  0.19355433775E+03 -0.19575557173E+02  0.10430708102E+03  0.22074068780E+03  0.00000000000E+00 0.  1.
          5    1    4    4  501    0 -0.15560082054E+03 -0.11938667039E+02  0.58665077206E+02  0.16677293188E+03  0.41800000000E+01 0. -1.
         -5    1    4    4    0  501 -0.16666480207E+03 -0.11167258325E+01 -0.65810715347E+02  0.17923985601E+03  0.41800000000E+01 0. -1.
</event>
<event>
11    1  0.8453735E-009  0.1317792E+03  0.7561462E-02  0.1117102E+00
         22   -1    0    0    0    0  0.00000000000E+00  0.00000000000E+00  0.35689479337E+03  0.35689479337E+03  0.00000000000E+00 0.  1.
         22   -1    0    0    0    0 -0.00000000000E+00 -0.00000000000E+00 -0.21612598118E+03  0.21612598118E+03  0.00000000000E+00 0.  1.
        -24    2    1    2    0    0 -0.32622950283E+02 -0.25438948531E+02 -0.15936429723E+03  0.18340672747E+03  0.80806258812E+02 0.  0.
         25    2    1    2    0    0 -0.15591488333E+02  0.17442791475E+02  0.79948352482E+02  0.15032239671E+03  0.12513088510E+03 0.  0.
         24    2    1    2    0    0  0.48214438615E+02  0.79961570558E+01  0.22018475693E+03  0.23929165036E+03  0.79941204217E+02 0.  0.
        -13    1    5    5    0    0  0.34913815279E+02 -0.33085391073E+02  0.14268131805E+03  0.15057083423E+03  0.00000000000E+00 0.  1.
         14    1    5    5    0    0  0.13300623336E+02  0.41081548129E+02  0.77503438882E+02  0.88720816139E+02  0.00000000000E+00 0. -1.
         13    1    3    3    0    0 -0.66878799333E+01 -0.48719805232E+02 -0.57050617283E+02  0.75320117447E+02  0.00000000000E+00 0. -1.
        -14    1    3    3    0    0 -0.25935070349E+02  0.23280856701E+02 -0.10231367994E+03  0.10808661002E+03  0.00000000000E+00 0.  1.
          5    1    4    4  501    0  0.51425899672E+02 -0.59819104977E+00  0.11729064332E+02  0.52915256209E+02  0.41800000000E+01 0.  1.
         -5    1    4    4    0  501 -0.67017388004E+02  0.18040982525E+02  0.68219288149E+02  0.97407140503E+02  0.41800000000E+01 0.  1.
</event>
<event>
11    1  0.8453735E-009  0.1481477E+03  0.7561462E-02  0.1098787E+00
         22   -1    0    0    0    0  0.00000000000E+00  0.00000000000E+00  0.95276612899E+02  0.95276612899E+02  0.00000000000E+00 0. -1.
         22   -1    0    0    0    0 -0.00000000000E+00 -0.00000000000E+00 -0.60133533169E+03  0.60133533169E+03  0.00000000000E+00 0. -1.
        -24    2    1    2    0    0  0.57730768370E+02  0.94399289226E+01 -0.36538187773E+03  0.37853238034E+03  0.79755203709E+02 0.  0.
         25    2    1    2    0    0 -0.16234621094E+02 -0.81908834443E+02 -0.13460699696E+03  0.20182950572E+03  0.12507392082E+03 0.  0.
         24    2    1    2    0    0 -0.41496147277E+02  0.72468905521E+02 -0.60698441105E+01  0.11625005853E+03  0.80644656331E+02 0.  0.
        -11    1    5    5    0    0  0.21898713136E+02  0.77166603483E+01  0.79737075590E+01  0.24549551853E+02  0.00000000000E+00 0.  1.
         12    1    5    5    0    0 -0.63394860412E+02  0.64752245172E+02 -0.14043551670E+02  0.91700506678E+02  0.00000000000E+00 0. -1.
         11    1    3    3    0    0 -0.14895303206E+02  0.63801547283E+01 -0.15703823997E+03  0.15787205340E+03  0.00000000000E+00 0. -1.
        -12    1    3    3    0    0  0.72626071576E+02  0.30597741943E+01 -0.20834363776E+03  0.22066032694E+03  0.00000000000E+00 0.  1.
          5    1    4    4  501    0  0.14427885545E+02 -0.61298933799E+02 -0.97362828592E+00  0.63120072230E+02  0.41800000000E+01 0. -1.
         -5    1    4    4    0  501 -0.30662506639E+02 -0.20609900644E+02 -0.13363336867E+03  0.13870943349E+03  0.41800000000E+01 0. -1.
</event>
<event>
11    1  0.8453735E-009  0.2202218E+03  0.7561462E-02  0.1041079E+00
         22   -1    0    0    0    0  0.00000000000E+00  0.00000000000E+00  0.65164026038E+03  0.65164026038E+03  0.00000000000E+00 0.  1.
         22   -1    0    0    0    0 -0.00000000000E+00 -0.00000000000E+00 -0.20941868104E+04  0.20941868104E+04  0.00000000000E+00 0.  1.
        -24    2    1    2    0    0  0.16019085621E+02 -0.10505108609E+03 -0.18934156626E+04  0.18980860753E+04  0.80097040470E+02 0.  0.
         25    2    1    2    0    0  0.40619409872E+01  0.27618364089E+03 -0.54266341618E+02  0.30803425094E+03  0.12508541506E+03 0.  0.
         24    2    1    2    0    0 -0.20081026608E+02 -0.17113255480E+03  0.50513545421E+03  0.53970674457E+03  0.80199402078E+02 0.  0.
        -11    1    5    5    0    0 -0.34840571411E+02 -0.12850948398E+03  0.44526375376E+03  0.46474548228E+03  0.00000000000E+00 0.  1.
         12    1    5    5    0    0  0.14759544803E+02 -0.42623070826E+02  0.59871700447E+02  0.74961262288E+02  0.00000000000E+00 0. -1.
         13    1    3    3    0    0 -0.30974372278E+02 -0.51949839809E+02 -0.72366341124E+03  0.72618656718E+03  0.00000000000E+00 0. -1.
        -14    1    3    3    0    0  0.46993457899E+02 -0.53101246278E+02 -0.11697522514E+04  0.11718995081E+04  0.00000000000E+00 0.  1.
          5    1    4    4  501    0  0.13860581828E+01  0.28687962883E+03 -0.62513701084E+02  0.29364481575E+03  0.41800000000E+01 0. -1.
         -5    1    4    4    0  501  0.26758828044E+01 -0.10695987943E+02  0.82473594660E+01  0.14389435188E+02  0.41800000000E+01 0. -1.
</event>
<event>
11    1  0.8453735E-009  0.1545873E+03  0.7561462E-02  0.1092282E+00
         22   -1    0    0    0    0  0.00000000000E+00  0.00000000000E+00  0.30675422639E+04  0.30675422639E+04  0.00000000000E+00 0.  1.
         22   -1    0    0    0    0 -0.00000000000E+00 -0.00000000000E+00 -0.55014638438E+03  0.55014638438E+03  0.00000000000E+00 0.  1.
         24    2    1    2    0    0 -0.85933389047E+02 -0.27288576112E+02 -0.52385140850E+03  0.53765729652E+03  0.80782773982E+02 0.  0.
         25    2    1    2    0    0  0.13613984120E+03  0.15854244286E+02  0.44730374844E+03  0.48426915147E+03  0.12510217535E+03 0.  0.
        -24    2    1    2    0    0 -0.50206452157E+02  0.11434331826E+02  0.25939435396E+04  0.25957622003E+04  0.82382535413E+02 0.  0.
        -13    1    3    3    0    0 -0.10189321941E+03 -0.23348902970E+02 -0.45930770566E+03  0.47105304150E+03  0.00000000000E+00 0.  1.
         14    1    3    3    0    0  0.15959830362E+02 -0.39396731415E+01 -0.64543702840E+02  0.66604255014E+02  0.00000000000E+00 0. -1.
         13    1    5    5    0    0 -0.51915692715E+02 -0.20303453280E+02  0.10393928992E+04  0.10408866740E+04  0.00000000000E+00 0. -1.
        -14    1    5    5    0    0  0.17092405583E+01  0.31737785106E+02  0.15545506404E+04  0.15548755262E+04  0.00000000000E+00 0.  1.
          5    1    4    4  501    0 -0.79484954912E+01  0.31780849666E+02  0.14852945482E+03  0.15215673608E+03  0.41800000000E+01 0. -1.
         -5    1    4    4    0  501  0.14408833670E+03 -0.15926605379E+02  0.29877429362E+03  0.33211241539E+03  0.41800000000E+01 0. -1.
</event>
<event>
11    1  0.8453735E-009  0.1381166E+03  0.7561462E-02  0.1109680E+00
         22   -1    0    0    0    0  0.00000000000E+00  0.00000000000E+00  0.97953865570E+03  0.97953865570E+03  0.00000000000E+00 0.  1.
         22   -1    0    0    0    0 -0.00000000000E+00 -0.00000000000E+00 -0.57360919474E+02  0.57360919474E+02  0.00000000000E+00 0.  1.
        -24    2    1    2    0    0 -0.13778337700E+02 -0.17885214456E+02  0.31781508779E+01  0.84291098520E+02  0.81149030559E+02 0.  0.
         25    2    1    2    0    0 -0.39091866397E+02  0.44943819725E+02  0.39551492855E+03  0.41908179989E+03  0.12509746337E+03 0.  0.
         24    2    1    2    0    0  0.52870204097E+02 -0.27058605268E+02  0.52348465680E+03  0.53352667676E+03  0.84184929276E+02 0.  0.
        -13    1    5    5    0    0  0.71751102950E+02 -0.22040280872E+02  0.48028448678E+03  0.48611437234E+03  0.00000000000E+00 0.  1.
         14    1    5    5    0    0 -0.18880898852E+02 -0.50183243958E+01  0.43200170018E+02  0.47412304424E+02  0.00000000000E+00 0. -1.
         13    1    3    3    0    0 -0.37147685046E+02 -0.12983299918E+02  0.29179347852E+02  0.48989293954E+02  0.00000000000E+00 0. -1.
        -14    1    3    3    0    0  0.23369347346E+02 -0.49019145386E+01 -0.26001196974E+02  0.35301804566E+02  0.00000000000E+00 0.  1.
          5    1    4    4  501    0 -0.43410894008E+02  0.86217513788E+02  0.28698501127E+03  0.30281320066E+03  0.41800000000E+01 0.  1.
         -5    1    4    4    0  501  0.43190276110E+01 -0.41273694063E+02  0.10852991728E+03  0.11626859923E+03  0.41800000000E+01 0.  1.
</event>
<event>
11    1  0.8453735E-009  0.1551645E+03  0.7561462E-02  0.1091716E+00
         22   -1    0    0    0    0  0.00000000000E+00  0.00000000000E+00  0.72247965115E+02  0.72247965115E+02  0.00000000000E+00 0. -1.
         22   -1    0    0    0    0 -0.00000000000E+00 -0.00000000000E+00 -0.35609716779E+04  0.35609716779E+04  0.00000000000E+00 0.  1.
        -24    2    1    2    0    0 -0.15069527644E+02  0.58320485737E+02 -0.31243525064E+04  0.31260063609E+04  0.81907353120E+02 0.  0.
         25    2    1    2    0    0  0.17945556327E+02 -0.14059110450E+03 -0.34126324489E+03  0.39012355776E+03  0.12509151190E+03 0.  0.
         24    2    1    2    0    0 -0.28760286827E+01  0.82270618758E+02 -0.23107961473E+02  0.11708972432E+03  0.79995621172E+02 0.  0.
        -11    1    5    5    0    0 -0.12649963922E+02 -0.12845026210E+02 -0.98932901563E+01  0.20564373943E+02  0.00000000000E+00 0.  1.
         12    1    5    5    0    0  0.97739352389E+01  0.95115644968E+02 -0.13214671316E+02  0.96525350379E+02  0.00000000000E+00 0. -1.
         13    1    3    3    0    0 -0.36124127296E+00  0.38522124216E+02 -0.48146043680E+03  0.48299920989E+03  0.00000000000E+00 0. -1.
        -14    1    3    3    0    0 -0.14708286371E+02  0.19798361521E+02 -0.26428920696E+04  0.26430071510E+04  0.00000000000E+00 0.  1.
          5    1    4    4  501    0  0.48777937497E+02 -0.37998216200E+02 -0.49588366083E+02  0.79370208968E+02  0.41800000000E+01 0. -1.
         -5    1    4    4    0  501 -0.30832381170E+02 -0.10259288830E+03 -0.29167487880E+03  0.31075334879E+03  0.41800000000E+01 0. -1.
</event>
<event>
11    1  0.8453735E-009  0.1639230E+03  0.7561462E-02  0.1083445E+00
         22   -1    0    0    0    0  0.00000000000E+00  0.00000000000E+00  0.17521562954E+04  0.17521562954E+04  0.00000000000E+00 0. -1.
         22   -1    0    0    0    0 -0.00000000000E+00 -0.00000000000E+00 -0.25181961041E+03  0.25181961041E+03  0.00000000000E+00 0. -1.
        -24    2    1    2    0    0 -0.10118310969E+03 -0.16096003598E+02 -0.17075746304E+03  0.21414288689E+03  0.78752535206E+02 0.  0.
         25    2    1    2    0    0  0.11851240939E+03  0.73677825030E+02  0.94281893763E+02  0.20978700655E+03  0.12509156464E+03 0.  0.
         24    2    1    2    0    0 -0.17329299691E+02 -0.57581821432E+02  0.15768122543E+04  0.15800460124E+04  0.81194490256E+02 0.  0.
        -11    1    5    5    0    0  0.76454421991E+01  0.18990170034E+02  0.33356901909E+03  0.33419660358E+03  0.00000000000E+00 0.  1.
         12    1    5    5    0    0 -0.24974741891E+02 -0.76571991466E+02  0.12432432352E+04  0.12458494088E+04  0.00000000000E+00 0. -1.
         11    1    3    3    0    0 -0.54652786746E+02 -0.47635547529E+02 -0.10555949791E+03  0.12805811215E+03  0.00000000000E+00 0. -1.
        -12    1    3    3    0    0 -0.46530322948E+02  0.31539543931E+02 -0.65197965128E+02  0.86084774739E+02  0.00000000000E+00 0.  1.
          5    1    4    4  501    0  0.10322442359E+03  0.65943981122E+02  0.12456020465E+03  0.17474726680E+03  0.41800000000E+01 0. -1.
         -5    1    4    4    0  501  0.15287985791E+02  0.77338439079E+01 -0.30278310887E+02  0.35039739744E+02  0.41800000000E+01 0. -1.
</event>
<event>
11    1  0.8453735E-009  0.1353236E+03  0.7561462E-02  0.1112896E+00
         22   -1    0    0    0    0  0.00000000000E+00  0.00000000000E+00  0.13201084976E+04  0.13201084976E+04  0.00000000000E+00 0. -1.
         22   -1    0    0    0    0 -0.00000000000E+00 -0.00000000000E+00 -0.16516110243E+04  0.16516110243E+04  0.00000000000E+00 0. -1.
         24    2    1    2    0    0  0.27309538875E+02 -0.26106700950E+02 -0.15696394246E+04  0.15721943494E+04  0.81239018648E+02 0.  0.
         25    2    1    2    0    0 -0.77724574209E+02  0.17770041553E+02 -0.91172654359E+01  0.14862082590E+03  0.12509253194E+03 0.  0.
        -24    2    1    2    0    0  0.50415035333E+02  0.83366593971E+01  0.12472541635E+04  0.12509043466E+04  0.80669451586E+02 0.  0.
        -13    1    3    3    0    0 -0.98475036279E+01 -0.14300598241E+02 -0.72604014972E+02  0.74651345787E+02  0.00000000000E+00 0.  1.
         14    1    3    3    0    0  0.37157042503E+02 -0.11806102710E+02 -0.14970354097E+04  0.14975430036E+04  0.00000000000E+00 0. -1.
         13    1    5    5    0    0  0.57672833024E+02  0.17656848722E+02  0.50980137495E+03  0.51335695366E+03  0.00000000000E+00 0. -1.
        -14    1    5    5    0    0 -0.72577976910E+01 -0.93201893246E+01  0.73745278851E+03  0.73754739295E+03  0.00000000000E+00 0.  1.
          5    1    4    4  501    0 -0.10541005981E+03  0.11129432966E+02 -0.33141089329E+02  0.11113482438E+03  0.41800000000E+01 0. -1.
         -5    1    4    4    0  501  0.27685485602E+02  0.66406085870E+01  0.24023823893E+02  0.37486001519E+02  0.41800000000E+01 0. -1.
</event>
<event>
11    1  0.8453735E-009  0.1389489E+03  0.7561462E-02  0.1108738E+00
         22   -1    0    0    0    0  0.00000000000E+00  0.00000000000E+00  0.52748642941E+03  0.52748642941E+03  0.00000000000E+00 0.  1.
         22   -1    0    0    0    0 -0.00000000000E+00 -0.00000000000E+00 -0.21276578492E+04  0.21276578492E+04  0.00000000000E+00 0. -1.
        -24    2    1    2    0    0 -0.58994238495E+02 -0.10847207207E+02 -0.19307074726E+04  0.19333067719E+04  0.80285410539E+02 0.  0.
         25    2    1    2    0    0  0.75529765189E+02 -0.16481179015E+02 -0.16344595778E+03  0.21985898078E+03  0.12508803149E+03 0.  0.
         24    2    1    2    0    0 -0.16535526694E+02  0.27328386222E+02  0.49398201059E+03  0.50197852601E+03  0.83330363331E+02 0.  0.
        -13    1    5    5    0    0  0.58627604884E+01  0.53583428111E+02  0.33346343811E+03  0.33779197782E+03  0.00000000000E+00 0.  1.
         14    1    5    5    0    0 -0.22398287182E+02 -0.26255041888E+02  0.16051857249E+03  0.16418654819E+03  0.00000000000E+00 0. -1.
         13    1    3    3    0    0 -0.45452515084E+02 -0.44318465976E+02 -0.13314038967E+04  0.13329164992E+04  0.00000000000E+00 0. -1.
        -14    1    3    3    0    0 -0.13541723411E+02  0.33471258768E+02 -0.59930357593E+03  0.60039027271E+03  0.00000000000E+00 0.  1.
          5    1    4    4  501    0  0.81162352015E+02  0.26554778921E+02 -0.51717105787E+02  0.99923045886E+02  0.41800000000E+01 0.  1.
         -5    1    4    4    0  501 -0.56325868262E+01 -0.43035957936E+02 -0.11172885199E+03  0.11993593489E+03  0.41800000000E+01 0.  1.
</event>
<event>
11    1  0.8453735E-009  0.3018134E+03  0.7561462E-02  0.9994267E-01
         22   -1    0    0    0    0  0.00000000000E+00  0.00000000000E+00  0.44236360033E+03  0.44236360033E+03  0.00000000000E+00 0. -1.
         22   -1    0    0    0    0 -0.00000000000E+00 -0.00000000000E+00 -0.86868557372E+03  0.86868557372E+03  0.00000000000E+00 0.  1.
        -24    2    1    2    0    0  0.20745234218E+03 -0.18157347964E+03 -0.73426129174E+03  0.78842231184E+03  0.80403323770E+02 0.  0.
         25    2    1    2    0    0 -0.22080774477E+03  0.15180976100E+03  0.12267549855E+03  0.32015439034E+03  0.12508913632E+03 0.  0.
         24    2    1    2    0    0  0.13355402589E+02  0.29763718645E+02  0.18526381980E+03  0.20247247187E+03  0.74887737401E+02 0.  0.
        -13    1    5    5    0    0 -0.94298746254E+00  0.21649258153E+02  0.60394846700E+01  0.22495665783E+02  0.00000000000E+00 0.  1.
         14    1    5    5    0    0  0.14298390052E+02  0.81144604921E+01  0.17922433513E+03  0.17997680609E+03  0.00000000000E+00 0. -1.
         13    1    3    3    0    0 -0.72686299526E+01 -0.88341853077E+01 -0.34744114775E+02  0.36579083134E+02  0.00000000000E+00 0. -1.
        -14    1    3    3    0    0  0.21472097214E+03 -0.17273929434E+03 -0.69951717696E+03  0.75184322870E+03  0.00000000000E+00 0.  1.
          5    1    4    4  501    0 -0.45627210496E+02 -0.18090843392E+02  0.59920859536E+01  0.49623567449E+02  0.41800000000E+01 0. -1.
         -5    1    4    4    0  501 -0.17518053428E+03  0.16990060439E+03  0.11668341259E+03  0.27053082289E+03  0.41800000000E+01 0. -1.
</event>
<event>
11    1  0.8453735E-009  0.1735301E+03  0.7561462E-02  0.1075000E+00
         22   -1    0    0    0    0  0.00000000000E+00  0.00000000000E+00  0.25374099948E+04  0.25374099948E+04  0.00000000000E+00 0. -1.
         22   -1    0    0    0    0 -0.00000000000E+00 -0.00000000000E+00 -0.90021513578E+03  0.90021513578E+03  0.00000000000E+00 0.  1.
        -24    2    1    2    0    0 -0.14535177755E+02 -0.13981101254E+02 -0.87732382009E+03  0.88112774121E+03  0.79260762335E+02 0.  0.
         25    2    1    2    0    0  0.13251982395E+03  0.24087562490E+02  0.43756183535E+03  0.47460527187E+03  0.12509232562E+03 0.  0.
         24    2    1    2    0    0 -0.11798464619E+03 -0.10106461236E+02  0.20769568438E+04  0.20818921175E+04  0.80638332985E+02 0.  0.
        -11    1    5    5    0    0 -0.26826445486E+00  0.23530366554E+01  0.65858058919E+03  0.65858484739E+03  0.00000000000E+00 0.  1.
         12    1    5    5    0    0 -0.11771638174E+03 -0.12459497891E+02  0.14183762546E+04  0.14233072701E+04  0.00000000000E+00 0. -1.
         13    1    3    3    0    0  0.50578019494E+01 -0.32280750776E+02 -0.15995733919E+03  0.16326046243E+03  0.00000000000E+00 0. -1.
        -14    1    3    3    0    0 -0.19592979704E+02  0.18299649522E+02 -0.71736648091E+03  0.71786727879E+03  0.00000000000E+00 0.  1.
          5    1    4    4  501    0 -0.46280566553E+01 -0.31603985583E+02  0.47619863757E+02  0.57492213711E+02  0.41800000000E+01 0. -1.
         -5    1    4    4    0  501  0.13714788060E+03  0.55691548073E+02  0.38994197159E+03  0.41711305816E+03  0.41800000000E+01 0. -1.
</event>
<event>
11    1  0.8453735E-009  0.1522222E+03  0.7561462E-02  0.1094630E+00
         22   -1    0    0    0    0  0.00000000000E+00  0.00000000000E+00  0.16041011262E+04  0.16041011262E+04  0.00000000000E+00 0.  1.
         22   -1    0    0    0    0 -0.00000000000E+00 -0.00000000000E+00 -0.39222643758E+03  0.39222643758E+03  0.00000000000E+00 0.  1.
        -24    2    1    2    0    0  0.87647628270E+01  0.90696811303E+02 -0.28114268511E+03  0.30580907797E+03  0.78582759745E+02 0.  0.
         25    2    1    2    0    0 -0.26745051746E+02 -0.65239364687E+02 -0.44719240063E+02  0.15039811675E+03  0.12509320762E+03 0.  0.
         24    2    1    2    0    0  0.17980288919E+02 -0.25457446616E+02  0.15377366138E+04  0.15401203691E+04  0.79783992268E+02 0.  0.
        -13    1    5    5    0    0 -0.48754172199E+01 -0.45977075235E+02  0.12266600242E+04  0.12275310489E+04  0.00000000000E+00 0.  1.
         14    1    5    5    0    0  0.22855706139E+02  0.20519628619E+02  0.31107658958E+03  0.31258932011E+03  0.00000000000E+00 0. -1.
         11    1    3    3    0    0  0.44419200998E+01  0.60728513531E+02 -0.71165588287E+02  0.93660151431E+02  0.00000000000E+00 0. -1.
        -12    1    3    3    0    0  0.43228427272E+01  0.29968297771E+02 -0.20997709683E+03  0.21214892654E+03  0.00000000000E+00 0.  1.
          5    1    4    4  501    0 -0.20323568645E+02 -0.78847171458E+02 -0.78501593763E+02  0.11318081336E+03  0.41800000000E+01 0. -1.
         -5    1    4    4    0  501 -0.64214831015E+01  0.13607806771E+02  0.33782353700E+02  0.37217303393E+02  0.41800000000E+01 0. -1.
</event>
<event>
11    1  0.8453735E-009  0.1278849E+03  0.7561462E-02  0.1121895E+00
         22   -1    0    0    0    0  0.00000000000E+00  0.00000000000E+00  0.71964998013E+03  0.71964998013E+03  0.00000000000E+00 0.  1.
         22   -1    0    0    0    0 -0.00000000000E+00 -0.00000000000E+00 -0.10595388675E+04  0.10595388675E+04  0.00000000000E+00 0.  1.
         24    2    1    2    0    0  0.23753099689E+02  0.13434254031E+02 -0.98297617545E+03  0.98678222225E+03  0.82172402457E+02 0.  0.
         25    2    1    2    0    0 -0.38294348963E+01 -0.68353340564E+01 -0.17854843273E+02  0.12659994954E+03  0.12508942973E+03 0.  0.
        -24    2    1    2    0    0 -0.19923664792E+02 -0.65989199747E+01  0.66094213135E+03  0.66580667585E+03  0.77546956471E+02 0.  0.
        -13    1    3    3    0    0  0.20020191883E+02  0.26487714452E+02 -0.95605453677E+03  0.95663090289E+03  0.00000000000E+00 0.  1.
         14    1    3    3    0    0  0.37329078054E+01 -0.13053460421E+02 -0.26921638681E+02  0.30151319356E+02  0.00000000000E+00 0. -1.
         13    1    5    5    0    0  0.11003708802E+02 -0.32749552974E+02  0.18915147008E+03  0.19228076726E+03  0.00000000000E+00 0. -1.
        -14    1    5    5    0    0 -0.30927373594E+02  0.26150632999E+02  0.47179066127E+03  0.47352590859E+03  0.00000000000E+00 0.  1.
          5    1    4    4  501    0  0.96912269485E+01 -0.28160639459E+02 -0.65746654519E+02  0.72298246693E+02  0.41800000000E+01 0. -1.
         -5    1    4    4    0  501 -0.13520661845E+02  0.21325305403E+02  0.47891811246E+02  0.54301702843E+02  0.41800000000E+01 0. -1.
</event>
<event>
11    1  0.8453735E-009  0.1266599E+03  0.7561462E-02  0.1123442E+00
         22   -1    0    0    0    0  0.00000000000E+00  0.00000000000E+00  0.10942394217E+04  0.10942394217E+04  0.00000000000E+00 0. -1.
         22   -1    0    0    0    0 -0.00000000000E+00 -0.00000000000E+00 -0.36025113025E+03  0.36025113025E+03  0.00000000000E+00 0. -1.
        -24    2    1    2    0    0 -0.41074320140E+01 -0.17172888104E+02 -0.27535703197E+03  0.28809747336E+03  0.82866639984E+02 0.  0.
         25    2    1    2    0    0  0.25241698002E+02  0.34047480876E+02 -0.20120509983E+02  0.13359897974E+03  0.12508988046E+03 0.  0.
         24    2    1    2    0    0 -0.21134265988E+02 -0.16874592772E+02  0.10294658334E+04  0.10327940989E+04  0.78309255022E+02 0.  0.
        -11    1    5    5    0    0 -0.13652466599E+02  0.23364084496E+01  0.29228326555E+02  0.32344145095E+02  0.00000000000E+00 0.  1.
         12    1    5    5    0    0 -0.74817993891E+01 -0.19211001222E+02  0.10002375069E+04  0.10004499538E+04  0.00000000000E+00 0. -1.
         11    1    3    3    0    0 -0.62183686177E+01 -0.73216020442E+01 -0.27760801437E+03  0.27777415935E+03  0.00000000000E+00 0. -1.
        -12    1    3    3    0    0  0.21109366037E+01 -0.98512860594E+01  0.22509824008E+01  0.10323314009E+02  0.00000000000E+00 0.  1.
          5    1    4    4  501    0  0.30838332379E+02  0.23662676436E+02  0.49378969236E+02  0.62981584633E+02  0.41800000000E+01 0. -1.
         -5    1    4    4    0  501 -0.55966343766E+01  0.10384804439E+02 -0.69499479218E+02  0.70617395104E+02  0.41800000000E+01 0. -1.
</event>
<event>
11    1  0.8453735E-009  0.3180954E+03  0.7561462E-02  0.9928109E-01
         22   -1    0    0    0    0  0.00000000000E+00  0.00000000000E+00  0.17063898548E+04  0.17063898548E+04  0.00000000000E+00 0.  1.
         22   -1    0    0    0    0 -0.00000000000E+00 -0.00000000000E+00 -0.31724996248E+04  0.31724996248E+04  0.00000000000E+00 0.  1.
        -24    2    1    2    0    0 -0.70700071816E+01 -0.39309705149E+01 -0.26851847837E+04  0.26863419594E+04  0.78424246778E+02 0.  0.
         25    2    1    2    0    0  0.28471392652E+03 -0.87495752076E+02 -0.41761096467E+03  0.52798128654E+03  0.12509114494E+03 0.  0.
         24    2    1    2    0    0 -0.27764391934E+03  0.91426722591E+02  0.16366859785E+04  0.16645662337E+04  0.81208144485E+02 0.  0.
        -11    1    5    5    0    0 -0.25480400058E+03  0.74657811234E+02  0.15670717467E+04  0.15894064071E+04  0.00000000000E+00 0.  1.
         12    1    5    5    0    0 -0.22839918761E+02  0.16768911357E+02  0.69614231753E+02  0.75159826634E+02  0.00000000000E+00 0. -1.
         13    1    3    3    0    0  0.17099027931E+02  0.31460292188E+02 -0.13124022251E+04  0.13128905998E+04  0.00000000000E+00 0. -1.
        -14    1    3    3    0    0 -0.24169035113E+02 -0.35391262703E+02 -0.13727825587E+04  0.13734513596E+04  0.00000000000E+00 0.  1.
          5    1    4    4  501    0  0.23513769417E+03 -0.77326563638E+02 -0.40657594967E+03  0.47601534420E+03  0.41800000000E+01 0. -1.
         -5    1    4    4    0  501  0.49576232351E+02 -0.10169188438E+02 -0.11035014998E+02  0.51965942343E+02  0.41800000000E+01 0. -1.
</event>
<event>
11    1  0.8453735E-009  0.1428807E+03  0.7561462E-02  0.1104384E+00
         22   -1    0    0    0    0  0.00000000000E+00  0.00000000000E+00  0.90362459679E+03  0.90362459679E+03  0.00000000000E+00 0.  1.
         22   -1    0    0    0    0 -0.00000000000E+00 -0.00000000000E+00 -0.11239113638E+03  0.11239113638E+03  0.00000000000E+00 0. -1.
        -24    2    1    2    0    0 -0.60290123618E+02  0.22557373456E+02 -0.42670614093E+02  0.11087894063E+03  0.79558934536E+02 0.  0.
         25    2    1    2    0    0  0.96710185077E+02 -0.12563825749E+02  0.16055772457E+03  0.22569242926E+03  0.12509028775E+03 0.  0.
         24    2    1    2    0    0 -0.36420061458E+02 -0.99935477070E+01  0.67334634994E+03  0.67944436328E+03  0.82601718818E+02 0.  0.
        -13    1    5    5    0    0 -0.27752309791E+02  0.21264515608E+02  0.57125020595E+03  0.57231911389E+03  0.00000000000E+00 0.  1.
         14    1    5    5    0    0 -0.86677516669E+01 -0.31258063315E+02  0.10209614399E+03  0.10712524940E+03  0.00000000000E+00 0. -1.
         13    1    3    3    0    0 -0.57485069786E+02 -0.10923549160E+02 -0.49441858299E+02  0.76605186029E+02  0.00000000000E+00 0. -1.
        -14    1    3    3    0    0 -0.28050538326E+01  0.33480922615E+02  0.67712442061E+01  0.34273754598E+02  0.00000000000E+00 0.  1.
          5    1    4    4  501    0 -0.28671208324E+02 -0.17823322387E+01  0.13266115676E+02  0.31916721637E+02  0.41800000000E+01 0. -1.
         -5    1    4    4    0  501  0.12538139340E+03 -0.10781493510E+02  0.14729160890E+03  0.19377570762E+03  0.41800000000E+01 0. -1.
</event>
<event>
11    1  0.8453735E-009  0.1472461E+03  0.7561462E-02  0.1099726E+00
         22   -1    0    0    0    0  0.00000000000E+00  0.00000000000E+00  0.65753673977E+02  0.65753673977E+02  0.00000000000E+00 0. -1.
         22   -1    0    0    0    0 -0.00000000000E+00 -0.00000000000E+00 -0.19613409830E+04  0.19613409830E+04  0.00000000000E+00 0. -1.
         24    2    1    2    0    0  0.71549554611E+02 -0.32229412802E+02 -0.16988535477E+04  0.17022995788E+04  0.74581538352E+02 0.  0.
         25    2    1    2    0    0 -0.30340524142E+02  0.82006184121E+02 -0.14093086025E+03  0.20773120542E+03  0.12508071272E+03 0.  0.
        -24    2    1    2    0    0 -0.41209030469E+02 -0.49776771318E+02 -0.55802901088E+02  0.11706387270E+03  0.80087922734E+02 0.  0.
        -11    1    3    3    0    0 -0.28002777735E+01 -0.30795199742E+02 -0.69946642340E+03  0.70014960069E+03  0.00000000000E+00 0.  1.
         12    1    3    3    0    0  0.74349832384E+02 -0.14342130602E+01 -0.99938712426E+03  0.10021499781E+04  0.00000000000E+00 0. -1.
         11    1    5    5    0    0  0.47913877483E+01 -0.31163720772E+02  0.11397947022E+02  0.33526826352E+02  0.00000000000E+00 0. -1.
        -12    1    5    5    0    0 -0.46000418217E+02 -0.18613050546E+02 -0.67200848109E+02  0.83537046353E+02  0.00000000000E+00 0.  1.
          5    1    4    4  501    0 -0.17744049472E+02 -0.16102026170E+02 -0.95959320645E+02  0.98993889493E+02  0.41800000000E+01 0.  1.
         -5    1    4    4    0  501 -0.12596474670E+02  0.98108210291E+02 -0.44971539609E+02  0.10873731593E+03  0.41800000000E+01 0.  1.
</event>
<event>
11    1  0.8453735E-009  0.1514491E+03  0.7561462E-02  0.1095407E+00
         22   -1    0    0    0    0  0.00000000000E+00  0.00000000000E+00  0.76837935346E+03  0.76837935346E+03  0.00000000000E+00 0.  1.
         22   -1    0    0    0    0 -0.00000000000E+00 -0.00000000000E+00 -0.11008221185E+04  0.11008221185E+04  0.00000000000E+00 0.  1.
         24    2    1    2    0    0  0.11566985414E+01 -0.86007372566E+02 -0.10583871647E+04  0.10648640525E+04  0.79708555275E+02 0.  0.
         25    2    1    2    0    0  0.16976249448E+02  0.57459777325E+02  0.10810129915E+03  0.17585168035E+03  0.12509238006E+03 0.  0.
        -24    2    1    2    0    0 -0.18132947989E+02  0.28547595241E+02  0.61784310055E+03  0.62848573907E+03  0.11009295309E+03 0.  0.
        -11    1    3    3    0    0 -0.91908738576E+01 -0.55874638551E+02 -0.95504497675E+03  0.95672219322E+03  0.00000000000E+00 0.  1.
         12    1    3    3    0    0  0.10347572399E+02 -0.30132734016E+02 -0.10334218798E+03  0.10814185929E+03  0.00000000000E+00 0. -1.
         11    1    5    5    0    0  0.41285373748E+02  0.25526090235E+02  0.17295527084E+03  0.17963738219E+03  0.00000000000E+00 0. -1.
        -12    1    5    5    0    0 -0.59418321737E+02  0.30215050062E+01  0.44488782972E+03  0.44884835689E+03  0.00000000000E+00 0.  1.
          5    1    4    4  501    0 -0.25667722445E+02  0.31170186797E+01  0.10320335617E+03  0.10647512811E+03  0.41800000000E+01 0.  1.
         -5    1    4    4    0  501  0.42643971893E+02  0.54342758646E+02  0.48979429836E+01  0.69376552246E+02  0.41800000000E+01 0.  1.
</event>
<event>
11    1  0.8453735E-009  0.1643860E+03  0.7561462E-02  0.1083023E+00
         22   -1    0    0    0    0  0.00000000000E+00  0.00000000000E+00  0.13088674200E+04  0.13088674200E+04  0.00000000000E+00 0. -1.
         22   -1    0    0    0    0 -0.00000000000E+00 -0.00000000000E+00 -0.25542104952E+03  0.25542104952E+03  0.00000000000E+00 0. -1.
        -24    2    1    2    0    0  0.18462976287E+02 -0.10464088465E+03 -0.21042111128E+03  0.24880406973E+03  0.79597894484E+02 0.  0.
         25    2    1    2    0    0 -0.57984047296E+01  0.11354748114E+03  0.27205874046E+03  0.32029504643E+03  0.12508519711E+03 0.  0.
         24    2    1    2    0    0 -0.12664571558E+02 -0.89065964855E+01  0.99180874133E+03  0.99518935340E+03  0.80483233709E+02 0.  0.
        -11    1    5    5    0    0 -0.32959449770E+02 -0.35226087883E+02  0.53316777730E+03  0.53534575869E+03  0.00000000000E+00 0.  1.
         12    1    5    5    0    0  0.20294878212E+02  0.26319491397E+02  0.45864096403E+03  0.45984359471E+03  0.00000000000E+00 0. -1.
         13    1    3    3    0    0  0.23269642533E+02 -0.97470555428E+02 -0.21628259492E+03  0.23836976802E+03  0.00000000000E+00 0. -1.
        -14    1    3    3    0    0 -0.48066662451E+01 -0.71703292257E+01  0.58614836446E+01  0.10434301707E+02  0.00000000000E+00 0.  1.
          5    1    4    4  501    0 -0.46053642255E+02  0.14192126688E+02  0.33840546442E+02  0.59033968258E+02  0.41800000000E+01 0. -1.
         -5    1    4    4    0  501  0.40255237525E+02  0.99355354451E+02  0.23821819402E+03  0.26126107817E+03  0.41800000000E+01 0. -1.
</event>
<event>
11    1  0.8453735E-009  0.1650789E+03  0.7561462E-02  0.1082395E+00
         22   -1    0    0    0    0  0.00000000000E+00  0.00000000000E+00  0.16370113923E+03  0.16370113923E+03  0.00000000000E+00 0.  1.
         22   -1    0    0    0    0 -0.00000000000E+00 -0.00000000000E+00 -0.18546389556E+04  0.18546389556E+04  0.00000000000E+00 0. -1.
         24    2    1    2    0    0 -0.32219924591E+02 -0.40406549159E+02 -0.17007694738E+04  0.17034040235E+04  0.79357744405E+02 0.  0.
         25    2    1    2    0    0  0.12087927044E+03 -0.15036755932E+02 -0.30093261130E+02  0.17717274922E+03  0.12508667654E+03 0.  0.
        -24    2    1    2    0    0 -0.88659345852E+02  0.55443305091E+02  0.39924918531E+02  0.13776332212E+03  0.80313723081E+02 0.  0.
        -13    1    3    3    0    0  0.22164897504E+02 -0.16790543351E+02 -0.27499681142E+03  0.27639907981E+03  0.00000000000E+00 0.  1.
         14    1    3    3    0    0 -0.54384822095E+02 -0.23616005808E+02 -0.14257726624E+04  0.14270049437E+04  0.00000000000E+00 0. -1.
         11    1    5    5    0    0  0.44627685403E+01  0.25856287868E+02 -0.99488150175E+01  0.28061412039E+02  0.00000000000E+00 0. -1.
        -12    1    5    5    0    0 -0.93122114392E+02  0.29587017223E+02  0.49873733549E+02  0.10970191008E+03  0.00000000000E+00 0.  1.
          5    1    4    4  501    0  0.14637083848E+03 -0.19263928295E+02 -0.31287748888E+02  0.15096992059E+03  0.41800000000E+01 0.  1.
         -5    1    4    4    0  501 -0.25491568040E+02  0.42271723637E+01  0.11944877578E+01  0.26202828632E+02  0.41800000000E+01 0.  1.
</event>
<event>
11    1  0.8453735E-009  0.1353178E+03  0.7561462E-02  0.1112902E+00
         22   -1    0    0    0    0  0.00000000000E+00  0.00000000000E+00  0.99467239715E+03  0.99467239715E+03  0.00000000000E+00 0. -1.
         22   -1    0    0    0    0 -0.00000000000E+00 -0.00000000000E+00 -0.47292380610E+03  0.47292380610E+03  0.00000000000E+00 0.  1.
         24    2    1    2    0    0 -0.11115794201E+02 -0.25405433638E+02 -0.25969837029E+03  0.27358737332E+03  0.81472758469E+02 0.  0.
         25    2    1    2    0    0  0.56161694368E+02  0.18536398807E+00 -0.18081534203E+03  0.22693006841E+03  0.12509555451E+03 0.  0.
        -24    2    1    2    0    0 -0.45045900168E+02  0.25220069650E+02  0.96226230337E+03  0.96707876153E+03  0.81408878380E+02 0.  0.
        -11    1    3    3    0    0  0.24512942246E+02 -0.23209987857E+02 -0.20824897479E+03  0.21096735145E+03  0.00000000000E+00 0.  1.
         12    1    3    3    0    0 -0.35628736447E+02 -0.21954457810E+01 -0.51449395491E+02  0.62620021873E+02  0.00000000000E+00 0. -1.
         11    1    5    5    0    0 -0.19831332798E+02  0.42183668333E+02  0.83255860140E+03  0.83386243973E+03  0.00000000000E+00 0. -1.
        -12    1    5    5    0    0 -0.25214567369E+02 -0.16963598682E+02  0.12970370197E+03  0.13321632180E+03  0.00000000000E+00 0.  1.
          5    1    4    4  501    0 -0.26771214584E+02 -0.27686798103E+02 -0.10196483864E+03  0.10907592511E+03  0.41800000000E+01 0. -1.
         -5    1    4    4    0  501  0.82932908952E+02  0.27872162091E+02 -0.78850503398E+02  0.11785414330E+03  0.41800000000E+01 0. -1.
</event>
<event>
11    1  0.8453735E-009  0.1786493E+03  0.7561462E-02  0.1070741E+00
         22   -1    0    0    0    0  0.00000000000E+00  0.00000000000E+00  0.14974115573E+04  0.14974115573E+04  0.00000000000E+00 0.  1.
         22   -1    0    0    0    0 -0.00000000000E+00 -0.00000000000E+00 -0.79803000211E+03  0.79803000211E+03  0.00000000000E+00 0.  1.
         24    2    1    2    0    0  0.55481713648E+02  0.11396130234E+03 -0.74915337581E+03  0.76390393350E+03  0.79076166719E+02 0.  0.
         25    2    1    2    0    0 -0.86371811824E+02 -0.12978739295E+03  0.20993897870E+03  0.28987370923E+03  0.12509010864E+03 0.  0.
        -24    2    1    2    0    0  0.30890098177E+02  0.15826090603E+02  0.12385959523E+04  0.12416639166E+04  0.80029279707E+02 0.  0.
        -13    1    3    3    0    0  0.60598165789E+02  0.41415645105E+02 -0.29676474732E+03  0.30570689984E+03  0.00000000000E+00 0.  1.
         14    1    3    3    0    0 -0.51164521418E+01  0.72545657238E+02 -0.45238862849E+03  0.45819703366E+03  0.00000000000E+00 0. -1.
         11    1    5    5    0    0  0.76686095590E+01  0.10251051832E+02  0.27514002159E+02  0.30346531120E+02  0.00000000000E+00 0. -1.
        -12    1    5    5    0    0  0.23221488617E+02  0.55750387717E+01  0.12110819501E+04  0.12113173855E+04  0.00000000000E+00 0.  1.
          5    1    4    4  501    0 -0.68749952053E+02 -0.52945816446E+02  0.27561554482E+02  0.91142345108E+02  0.41800000000E+01 0. -1.
         -5    1    4    4    0  501 -0.17621859771E+02 -0.76841576500E+02  0.18237742422E+03  0.19873136412E+03  0.41800000000E+01 0. -1.
</event>
<event>
11    1  0.8453735E-009  0.1467975E+03  0.7561462E-02  0.1100197E+00
         22   -1    0    0    0    0  0.00000000000E+00  0.00000000000E+00  0.29998346202E+03  0.29998346202E+03  0.00000000000E+00 0. -1.
         22   -1    0    0    0    0 -0.00000000000E+00 -0.00000000000E+00 -0.15281930007E+04  0.15281930007E+04  0.00000000000E+00 0. -1.
        -24    2    1    2    0    0 -0.36036121883E+02  0.65334364379E+02 -0.13207529216E+04  0.13251806950E+04  0.78411817578E+02 0.  0.
         25    2    1    2    0    0  0.79958511678E+02 -0.85874830257E+02 -0.15950944709E+03  0.23421953089E+03  0.12509066664E+03 0.  0.
         24    2    1    2    0    0 -0.43922389795E+02  0.20540465878E+02  0.25205283007E+03  0.26877623680E+03  0.79743020143E+02 0.  0.
        -11    1    5    5    0    0  0.23145948513E+02  0.90695827910E+01  0.79348893939E+02  0.83151904572E+02  0.00000000000E+00 0.  1.
         12    1    5    5    0    0 -0.67068338309E+02  0.11470883087E+02  0.17270393613E+03  0.18562433223E+03  0.00000000000E+00 0. -1.
         13    1    3    3    0    0 -0.39984762708E+02  0.22470285624E+02 -0.10522545680E+04  0.10532537068E+04  0.00000000000E+00 0. -1.
        -14    1    3    3    0    0  0.39486408254E+01  0.42864078755E+02 -0.26849835364E+03  0.27192698821E+03  0.00000000000E+00 0.  1.
          5    1    4    4  501    0  0.39256643478E+02 -0.11138318987E+02 -0.14124426404E+03  0.14708011671E+03  0.41800000000E+01 0.  1.
         -5    1    4    4    0  501  0.40701868200E+02 -0.74736511270E+02 -0.18265183044E+02  0.87139414179E+02  0.41800000000E+01 0.  1.
</event>
<event>
11    1  0.8453735E-009  0.1357115E+03  0.7561462E-02  0.1112444E+00
         22   -1    0    0    0    0  0.00000000000E+00  0.00000000000E+00  0.65133102865E+03  0.65133102865E+03  0.00000000000E+00 0. -1.
         22   -1    0    0    0    0 -0.00000000000E+00 -0.00000000000E+00 -0.15385629078E+04  0.15385629078E+04  0.00000000000E+00 0. -1.
         24    2    1    2    0    0  0.15377516002E+02 -0.23295133831E+01 -0.12770866600E+04  0.12798183865E+04  0.82114983934E+02 0.  0.
         25    2    1    2    0    0  0.19497774919E+02  0.42113855547E+02 -0.23685489855E+03  0.27183093593E+03  0.12505228788E+03 0.  0.
        -24    2    1    2    0    0 -0.34875290921E+02 -0.39784342164E+02  0.62670967940E+03  0.63824461406E+03  0.10859136855E+03 0.  0.
        -13    1    3    3    0    0  0.96210814753E+01  0.33792729631E+02 -0.30052884977E+03  0.30257578114E+03  0.00000000000E+00 0.  1.
         14    1    3    3    0    0  0.57564345265E+01 -0.36122243014E+02 -0.97655781023E+03  0.97724260535E+03  0.00000000000E+00 0. -1.
         11    1    5    5    0    0 -0.37426314371E+02  0.31712662534E+02  0.23725603622E+03  0.24227432529E+03  0.00000000000E+00 0. -1.
        -12    1    5    5    0    0  0.25510234500E+01 -0.71497004699E+02  0.38945364317E+03  0.39597028876E+03  0.00000000000E+00 0.  1.
          5    1    4    4  501    0  0.64569908535E+02  0.50686277830E+02 -0.11336040587E+03  0.14002294765E+03  0.41800000000E+01 0.  1.
         -5    1    4    4    0  501 -0.45072133616E+02 -0.85724222825E+01 -0.12349449268E+03  0.13180798828E+03  0.41800000000E+01 0.  1.
</event>
<event>
11    1  0.8453735E-009  0.1918363E+03  0.7561462E-02  0.1060452E+00
         22   -1    0    0    0    0  0.00000000000E+00  0.00000000000E+00  0.47324420809E+03  0.47324420809E+03  0.00000000000E+00 0.  1.
         22   -1    0    0    0    0 -0.00000000000E+00 -0.00000000000E+00 -0.60896599195E+03  0.60896599195E+03  0.00000000000E+00 0. -1.
        -24    2    1    2    0    0  0.13628394223E+03  0.17280049165E+02 -0.45213951951E+03  0.47945537638E+03  0.81088839131E+02 0.  0.
         25    2    1    2    0    0 -0.24813534475E+03  0.52780143743E+02  0.39371415640E+02  0.28557872338E+03  0.12509278951E+03 0.  0.
         24    2    1    2    0    0  0.11185140252E+03 -0.70060192908E+02  0.27704632002E+03  0.31717610028E+03  0.80167626123E+02 0.  0.
        -13    1    5    5    0    0  0.11993584206E+03 -0.77449947754E+02  0.26408559063E+03  0.30020709485E+03  0.00000000000E+00 0.  1.
         14    1    5    5    0    0 -0.80844395338E+01  0.73897548452E+01  0.12960729383E+02  0.16969005433E+02  0.00000000000E+00 0. -1.
         13    1    3    3    0    0  0.12901876042E+03  0.30128734885E+02 -0.31785812832E+03  0.34436517092E+03  0.00000000000E+00 0. -1.
        -14    1    3    3    0    0  0.72651818103E+01 -0.12848685720E+02 -0.13428139119E+03  0.13509020546E+03  0.00000000000E+00 0.  1.
          5    1    4    4  501    0 -0.13811474570E+02  0.37344590856E+02  0.30871805729E+02  0.50556068725E+02  0.41800000000E+01 0. -1.
         -5    1    4    4    0  501 -0.23432387018E+03  0.15435552887E+02  0.84996099113E+01  0.23502265465E+03  0.41800000000E+01 0. -1.
</event>
<event>
11    1  0.8453735E-009  0.2222059E+03  0.7561462E-02  0.1039844E+00
         22   -1    0    0    0    0  0.00000000000E+00  0.00000000000E+00  0.96776801835E+02  0.96776801835E+02  0.00000000000E+00 0. -1.
         22   -1    0    0    0    0 -0.00000000000E+00 -0.00000000000E+00 -0.20138231351E+04  0.20138231351E+04  0.00000000000E+00 0.  1.
        -24    2    1    2    0    0  0.82292966912E+01 -0.48135070519E+01 -0.13099407132E+04  0.13137616424E+04  0.99669904804E+02 0.  0.
         25    2    1    2    0    0  0.17483379321E+03  0.32195581936E+02 -0.54403024005E+03  0.58584906203E+03  0.12508721213E+03 0.  0.
         24    2    1    2    0    0 -0.18306308990E+03 -0.27382074884E+02 -0.63075380009E+02  0.21098923245E+03  0.79221712538E+02 0.  0.
        -13    1    5    5    0    0  0.38392778541E+01 -0.61715406220E+01  0.71596946832E+01  0.10202411286E+02  0.00000000000E+00 0.  1.
         14    1    5    5    0    0 -0.18690236775E+03 -0.21210534262E+02 -0.70235074692E+02  0.20078682116E+03  0.00000000000E+00 0. -1.
         13    1    3    3    0    0 -0.48538085204E+01 -0.21655078043E+02 -0.65866610271E+02  0.69504763943E+02  0.00000000000E+00 0. -1.
        -14    1    3    3    0    0  0.13083105212E+02  0.16841570992E+02 -0.12440741029E+04  0.12442568785E+04  0.00000000000E+00 0.  1.
          5    1    4    4  501    0  0.24435783461E+02 -0.41431776794E+02 -0.15342017374E+03  0.16083818499E+03  0.41800000000E+01 0. -1.
         -5    1    4    4    0  501  0.15039800975E+03  0.73627358730E+02 -0.39061006632E+03  0.42501087703E+03  0.41800000000E+01 0. -1.
</event>
<event>
11    1  0.8453735E-009  0.1301982E+03  0.7561462E-02  0.1119026E+00
         22   -1    0    0    0    0  0.00000000000E+00  0.00000000000E+00  0.23968178541E+03  0.23968178541E+03  0.00000000000E+00 0.  1.
         22   -1    0    0    0    0 -0.00000000000E+00 -0.00000000000E+00 -0.57608604617E+03  0.57608604617E+03  0.00000000000E+00 0. -1.
         24    2    1    2    0    0 -0.32560303625E+02  0.26865791436E+01 -0.51749418757E+03  0.52474497514E+03  0.80558448896E+02 0.  0.
         25    2    1    2    0    0  0.40824101054E+02 -0.33397479145E+02  0.80699143912E+02  0.15789365649E+03  0.12504421654E+03 0.  0.
        -24    2    1    2    0    0 -0.82637974285E+01  0.30710900001E+02  0.10039078289E+03  0.13312919996E+03  0.81447067870E+02 0.  0.
        -13    1    3    3    0    0 -0.36609082158E+02 -0.50507918500E+01 -0.91775568675E+02  0.98936800031E+02  0.00000000000E+00 0.  1.
         14    1    3    3    0    0  0.40487785333E+01  0.77373709936E+01 -0.42571861889E+03  0.42580817511E+03  0.00000000000E+00 0. -1.
         11    1    5    5    0    0 -0.43663898933E+02  0.56236750062E+01  0.52099041753E+02  0.68209031236E+02  0.00000000000E+00 0. -1.
        -12    1    5    5    0    0  0.35400101504E+02  0.25087224995E+02  0.48291741137E+02  0.64920168719E+02  0.00000000000E+00 0.  1.
          5    1    4    4  501    0  0.15210968573E+02 -0.80355747529E+02  0.44857016982E+02  0.93370466949E+02  0.41800000000E+01 0.  1.
         -5    1    4    4    0  501  0.25613132480E+02  0.46958268384E+02  0.35842126930E+02  0.64523189536E+02  0.41800000000E+01 0.  1.
</event>
<event>
11    1  0.8453735E-009  0.1370836E+03  0.7561462E-02  0.1110859E+00
         22   -1    0    0    0    0  0.00000000000E+00  0.00000000000E+00  0.18263481939E+04  0.18263481939E+04  0.00000000000E+00 0.  1.
         22   -1    0    0    0    0 -0.00000000000E+00 -0.00000000000E+00 -0.30876346474E+03  0.30876346474E+03  0.00000000000E+00 0.  1.
        -24    2    1    2    0    0  0.50588402348E+02  0.75952161844E+01 -0.21018789014E+03  0.23159397084E+03  0.82703956430E+02 0.  0.
         25    2    1    2    0    0 -0.86344347932E+02 -0.95585316148E+01 -0.19948485798E+02  0.15359586299E+03  0.12508810933E+03 0.  0.
         24    2    1    2    0    0  0.35755945584E+02  0.19633154303E+01  0.17477211051E+04  0.17499218248E+04  0.80093629344E+02 0.  0.
        -11    1    5    5    0    0  0.61536790492E+02 -0.16998242832E+01  0.12713775617E+04  0.12728670671E+04  0.00000000000E+00 0.  1.
         12    1    5    5    0    0 -0.25780844908E+02  0.36631397136E+01  0.47634354340E+03  0.47705475776E+03  0.00000000000E+00 0. -1.
         13    1    3    3    0    0 -0.17274555451E+02 -0.81549769460E+00 -0.98394787980E+01  0.19897000918E+02  0.00000000000E+00 0. -1.
        -14    1    3    3    0    0  0.67862957799E+02  0.84107138791E+01 -0.20034841134E+03  0.21169696993E+03  0.00000000000E+00 0.  1.
          5    1    4    4  501    0 -0.15926099228E+01 -0.21497135522E+02  0.42315307318E+02  0.47673062366E+02  0.41800000000E+01 0. -1.
         -5    1    4    4    0  501 -0.84751738009E+02  0.11938603907E+02 -0.62263793115E+02  0.10592280062E+03  0.41800000000E+01 0. -1.
</event>
<event>
11    1  0.8453735E-009  0.1383723E+03  0.7561462E-02  0.1109390E+00
         22   -1    0    0    0    0  0.00000000000E+00  0.00000000000E+00  0.29681176005E+03  0.29681176005E+03  0.00000000000E+00 0.  1.
         22   -1    0    0    0    0 -0.00000000000E+00 -0.00000000000E+00 -0.11356468554E+04  0.11356468554E+04  0.00000000000E+00 0.  1.
        -24    2    1    2    0    0 -0.47014499886E+02 -0.35077370684E+02 -0.10034814584E+04  0.10084088223E+04  0.80452038736E+02 0.  0.
         25    2    1    2    0    0  0.32965630875E+02  0.69087530928E+02 -0.77656673003E+02  0.16594101341E+03  0.12508413697E+03 0.  0.
         24    2    1    2    0    0  0.14048869011E+02 -0.34010160244E+02  0.24230303600E+03  0.25810877973E+03  0.80964925734E+02 0.  0.
        -11    1    5    5    0    0 -0.83992470435E+01 -0.29492628532E+02  0.23015275715E+03  0.23218667944E+03  0.00000000000E+00 0.  1.
         12    1    5    5    0    0  0.22448116055E+02 -0.45175317118E+01  0.12150278855E+02  0.25922100290E+02  0.00000000000E+00 0. -1.
         11    1    3    3    0    0 -0.15038122883E+02 -0.13744745809E+02 -0.47875312343E+02  0.52029882848E+02  0.00000000000E+00 0. -1.
        -12    1    3    3    0    0 -0.31976377003E+02 -0.21332624875E+02 -0.95560614602E+03  0.95637893948E+03  0.00000000000E+00 0.  1.
          5    1    4    4  501    0  0.61287276383E+02  0.19983223936E+02 -0.86976892088E+02  0.10834164316E+03  0.41800000000E+01 0.  1.
         -5    1    4    4    0  501 -0.28321645509E+02  0.49104306992E+02  0.93202190846E+01  0.57599370251E+02  0.41800000000E+01 0.  1.
</event>
<event>
11    1  0.8453735E-009  0.1672323E+03  0.7561462E-02  0.1080466E+00
         22   -1    0    0    0    0  0.00000000000E+00  0.00000000000E+00  0.12151328530E+03  0.12151328530E+03  0.00000000000E+00 0. -1.
         22   -1    0    0    0    0 -0.00000000000E+00 -0.00000000000E+00 -0.21394381522E+04  0.21394381522E+04  0.00000000000E+00 0.  1.
        -24    2    1    2    0    0  0.86301851184E+02 -0.63073148924E+02 -0.17006447715E+04  0.17063769365E+04  0.90018769886E+02 0.  0.
         25    2    1    2    0    0 -0.11891161381E+03  0.77364762950E+02 -0.39519840654E+03  0.43812608883E+03  0.12508961082E+03 0.  0.
         24    2    1    2    0    0  0.32609762624E+02 -0.14291614027E+02  0.77918311155E+02  0.11644841216E+03  0.78875361365E+02 0.  0.
        -13    1    5    5    0    0  0.25789451990E+02  0.23258879121E+02  0.62992837668E+01  0.35295215935E+02  0.00000000000E+00 0.  1.
         14    1    5    5    0    0  0.68203106339E+01 -0.37550493148E+02  0.71619027388E+02  0.81153196220E+02  0.00000000000E+00 0. -1.
         13    1    3    3    0    0  0.29335343444E+02  0.70770171411E+01 -0.14485548086E+03  0.14796539083E+03  0.00000000000E+00 0. -1.
        -14    1    3    3    0    0  0.56966507740E+02 -0.70150166065E+02 -0.15557892907E+04  0.15584115457E+04  0.00000000000E+00 0.  1.
          5    1    4    4  501    0 -0.12205956965E+03  0.87899546202E+02 -0.39845480408E+03  0.42592085188E+03  0.41800000000E+01 0. -1.
         -5    1    4    4    0  501  0.31479558380E+01 -0.10534783251E+02  0.32563975438E+01  0.12205236953E+02  0.41800000000E+01 0. -1.
</event>
<event>
11    1  0.8453735E-009  0.1298189E+03  0.7561462E-02  0.1119492E+00
         22   -1    0    0    0    0  0.00000000000E+00  0.00000000000E+00  0.13292824423E+03  0.13292824423E+03  0.00000000000E+00 0.  1.
         22   -1    0    0    0    0 -0.00000000000E+00 -0.00000000000E+00 -0.76213848571E+03  0.76213848571E+03  0.00000000000E+00 0.  1.
         24    2    1    2    0    0 -0.33906450094E+02 -0.18170110442E+02 -0.54702738414E+03  0.55414339668E+03  0.79725433893E+02 0.  0.
         25    2    1    2    0    0  0.94568926169E+01  0.10145841148E+02 -0.17362932355E+03  0.21444697149E+03  0.12509192890E+03 0.  0.
        -24    2    1    2    0    0  0.24449557477E+02  0.80242692947E+01  0.91446466210E+02  0.12647636177E+03  0.83496372055E+02 0.  0.
        -11    1    3    3    0    0 -0.54632215081E+02 -0.39839714153E+01 -0.46864454324E+03  0.47183499114E+03  0.00000000000E+00 0.  1.
         12    1    3    3    0    0  0.20725764987E+02 -0.14186139027E+02 -0.78382840899E+02  0.82308405538E+02  0.00000000000E+00 0. -1.
         13    1    5    5    0    0  0.12750357061E+02  0.33876730956E+02  0.63192934721E+01  0.36744223702E+02  0.00000000000E+00 0. -1.
        -14    1    5    5    0    0  0.11699200416E+02 -0.25852461661E+02  0.85127172738E+02  0.89732138071E+02  0.00000000000E+00 0.  1.
          5    1    4    4  501    0  0.46838888850E+02  0.37559946025E+02 -0.15128508354E+03  0.16281670663E+03  0.41800000000E+01 0.  1.
         -5    1    4    4    0  501 -0.37381996233E+02 -0.27414104877E+02 -0.22344240008E+02  0.51630264866E+02  0.41800000000E+01 0.  1.
</event>
<event>
11    1  0.8453735E-009  0.2137241E+03  0.7561462E-02  0.1045222E+00
         22   -1    0    0    0    0  0.00000000000E+00  0.00000000000E+00  0.17986608553E+04  0.17986608553E+04  0.00000000000E+00 0. -1.
         22   -1    0    0    0    0 -0.00000000000E+00 -0.00000000000E+00 -0.20408892784E+03  0.20408892784E+03  0.00000000000E+00 0.  1.
         24    2    1    2    0    0 -0.16990408695E+03 -0.68557419847E+02 -0.89620576384E+02  0.21923242071E+03  0.80395820794E+02 0.  0.
         25    2    1    2    0    0  0.14381517832E+03  0.26637359277E+02  0.14364742174E+03  0.24014823164E+03  0.12507692418E+03 0.  0.
        -24    2    1    2    0    0  0.26088908626E+02  0.41920060570E+02  0.15405450821E+04  0.15433691308E+04  0.79190916539E+02 0.  0.
        -13    1    3    3    0    0 -0.15030704221E+03 -0.56737973543E+02 -0.10475602557E+03  0.19179475872E+03  0.00000000000E+00 0.  1.
         14    1    3    3    0    0 -0.19597044734E+02 -0.11819446304E+02  0.15135449185E+02  0.27437661986E+02  0.00000000000E+00 0. -1.
         11    1    5    5    0    0  0.13487387408E+02  0.18492259302E+02  0.14077354779E+04  0.14079215351E+04  0.00000000000E+00 0. -1.
        -12    1    5    5    0    0  0.12601521218E+02  0.23427801268E+02  0.13280960421E+03  0.13544759569E+03  0.00000000000E+00 0.  1.
          5    1    4    4  501    0  0.88830132344E+02  0.47941971121E+02  0.14983080413E+03  0.18070962142E+03  0.41800000000E+01 0.  1.
         -5    1    4    4    0  501  0.54985045977E+02 -0.21304611843E+02 -0.61833823950E+01  0.59438610218E+02  0.41800000000E+01 0.  1.
</event>
<event>
11    1  0.8453735E-009  0.1538683E+03  0.7561462E-02  0.1092990E+00
         22   -1    0    0    0    0  0.00000000000E+00  0.00000000000E+00  0.17154409046E+04  0.17154409046E+04  0.00000000000E+00 0. -1.
         22   -1    0    0    0    0 -0.00000000000E+00 -0.00000000000E+00 -0.29652564488E+03  0.29652564488E+03  0.00000000000E+00 0. -1.
        -24    2    1    2    0    0 -0.72730616589E+02 -0.52895645793E+02 -0.26089022671E+03  0.28715794609E+03  0.79424704447E+02 0.  0.
         25    2    1    2    0    0  0.29788552091E+02  0.96306871998E+02  0.29195946489E+03  0.33324328454E+03  0.12509350951E+03 0.  0.
         24    2    1    2    0    0  0.42942064498E+02 -0.43411226205E+02  0.13878460215E+04  0.13915653188E+04  0.81295151437E+02 0.  0.
        -13    1    5    5    0    0  0.46442725650E+02 -0.28390671008E+02  0.40998881662E+03  0.41358649243E+03  0.00000000000E+00 0.  1.
         14    1    5    5    0    0 -0.35006611515E+01 -0.15020555198E+02  0.97785720490E+03  0.97797882640E+03  0.00000000000E+00 0. -1.
         13    1    3    3    0    0 -0.11288265625E+02 -0.56116364218E+02 -0.14620944432E+03  0.15701488109E+03  0.00000000000E+00 0. -1.
        -14    1    3    3    0    0 -0.61442350964E+02  0.32207184255E+01 -0.11468078239E+03  0.13014306500E+03  0.00000000000E+00 0.  1.
          5    1    4    4  501    0  0.71696976494E+02  0.21920714613E+02  0.14198722339E+03  0.16062010513E+03  0.41800000000E+01 0.  1.
         -5    1    4    4    0  501 -0.41908424403E+02  0.74386157385E+02  0.14997224150E+03  0.17262317940E+03  0.41800000000E+01 0.  1.
</event>
<event>
11    1  0.8453735E-009  0.1757416E+03  0.7561462E-02  0.1073140E+00
         22   -1    0    0    0    0  0.00000000000E+00  0.00000000000E+00  0.11360583289E+04  0.11360583289E+04  0.00000000000E+00 0. -1.
         22   -1    0    0    0    0 -0.00000000000E+00 -0.00000000000E+00 -0.45273805475E+03  0.45273805475E+03  0.00000000000E+00 0.  1.
        -24    2    1    2    0    0 -0.36596970350E+02  0.20042321669E+02 -0.38135397969E+03  0.39709896801E+03  0.10254608563E+03 0.  0.
         25    2    1    2    0    0  0.13787277471E+03 -0.84070648998E+02  0.12190016935E+03  0.23787358563E+03  0.12508962957E+03 0.  0.
         24    2    1    2    0    0 -0.10127580436E+03  0.64028327329E+02  0.94277408446E+03  0.95382382997E+03  0.81243516950E+02 0.  0.
        -11    1    5    5    0    0  0.31342534696E+01  0.31898143555E+02  0.31388946777E+03  0.31552165232E+03  0.00000000000E+00 0.  1.
         12    1    5    5    0    0 -0.10441005783E+03  0.32130183774E+02  0.62888461669E+03  0.63830217765E+03  0.00000000000E+00 0. -1.
         11    1    3    3    0    0  0.11626010267E+02 -0.66017665073E+01 -0.17104470377E+01  0.13478615092E+02  0.00000000000E+00 0. -1.
        -12    1    3    3    0    0 -0.48222980616E+02  0.26644088176E+02 -0.37964353265E+03  0.38362035292E+03  0.00000000000E+00 0.  1.
          5    1    4    4  501    0  0.98383469499E+02 -0.48323824468E+02  0.55367341296E+01  0.10982999093E+03  0.41800000000E+01 0.  1.
         -5    1    4    4    0  501  0.39489305209E+02 -0.35746824530E+02  0.11636343522E+03  0.12804359471E+03  0.41800000000E+01 0.  1.
</event>
<event>
11    1  0.8453735E-009  0.1320027E+03  0.7561462E-02  0.1116832E+00
         22   -1    0    0    0    0  0.00000000000E+00  0.00000000000E+00  0.52365350472E+03  0.52365350472E+03  0.00000000000E+00 0. -1.
         22   -1    0    0    0    0 -0.00000000000E+00 -0.00000000000E+00 -0.14195356500E+03  0.14195356500E+03  0.00000000000E+00 0. -1.
        -24    2    1    2    0    0 -0.18224754276E+02 -0.44385365933E+02 -0.84447644122E+02  0.14387163778E+03  0.10613878265E+03 0.  0.
         25    2    1    2    0    0 -0.23420695845E+01  0.76240063755E+01  0.16366245552E+03  0.20613852686E+03  0.12507630531E+03 0.  0.
         24    2    1    2    0    0  0.20566823861E+02  0.36761359558E+02  0.30248512833E+03  0.31559690507E+03  0.79559800338E+02 0.  0.
        -11    1    5    5    0    0  0.33727979684E+02 -0.78991222971E+01  0.65650580228E+02  0.74229181801E+02  0.00000000000E+00 0.  1.
         12    1    5    5    0    0 -0.13161155823E+02  0.44660481855E+02  0.23683454810E+03  0.24136772327E+03  0.00000000000E+00 0. -1.
         11    1    3    3    0    0 -0.56633199524E+02  0.12819579859E+01 -0.37351731412E+02  0.67853625873E+02  0.00000000000E+00 0. -1.
        -12    1    3    3    0    0  0.38408445248E+02 -0.45667323919E+02 -0.47095912710E+02  0.76018011907E+02  0.00000000000E+00 0.  1.
          5    1    4    4  501    0  0.40133873637E+02 -0.40232449203E+02  0.10381742940E+03  0.11842680790E+03  0.41800000000E+01 0. -1.
         -5    1    4    4    0  501 -0.42475943221E+02  0.47856455578E+02  0.59845026117E+02  0.87711718966E+02  0.41800000000E+01 0. -1.
</event>
<event>
11    1  0.8453735E-009  0.1337519E+03  0.7561462E-02  0.1114743E+00
         22   -1    0    0    0    0  0.00000000000E+00  0.00000000000E+00  0.91408315919E+03  0.91408315919E+03  0.00000000000E+00 0.  1.
         22   -1    0    0    0    0 -0.00000000000E+00 -0.00000000000E+00 -0.24218741143E+03  0.24218741143E+03  0.00000000000E+00 0. -1.
         24    2    1    2    0    0  0.41063970965E+02  0.18515469590E+02 -0.12083835315E+03  0.15251720016E+03  0.81427983081E+02 0.  0.
         25    2    1    2    0    0 -0.59591443809E+02  0.67192610509E+01 -0.56781886149E+02  0.14989581145E+03  0.12509309754E+03 0.  0.
        -24    2    1    2    0    0  0.18527472844E+02 -0.25234730641E+02  0.84951598705E+03  0.85385755900E+03  0.80095317834E+02 0.  0.
        -11    1    3    3    0    0  0.19328447145E-02  0.24171427226E+01  0.12159272113E+02  0.12397196497E+02  0.00000000000E+00 0.  1.
         12    1    3    3    0    0  0.41062038120E+02  0.16098326868E+02 -0.13299762526E+03  0.14012000366E+03  0.00000000000E+00 0. -1.
         11    1    5    5    0    0  0.65551589763E+01 -0.45557094573E+01  0.59575641608E+01  0.99607815253E+01  0.00000000000E+00 0. -1.
        -12    1    5    5    0    0  0.11972313868E+02 -0.20679021184E+02  0.84355842289E+03  0.84389677748E+03  0.00000000000E+00 0.  1.
          5    1    4    4  501    0  0.32964725595E+02  0.14915573575E+02  0.70344867007E+01  0.37095874053E+02  0.41800000000E+01 0.  1.
         -5    1    4    4    0  501 -0.92556169404E+02 -0.81963125237E+01 -0.63816372850E+02  0.11279993740E+03  0.41800000000E+01 0.  1.
</event>
<event>
11    1  0.8453735E-009  0.1586493E+03  0.7561462E-02  0.1088355E+00
         22   -1    0    0    0    0  0.00000000000E+00  0.00000000000E+00  0.78137281805E+03  0.78137281805E+03  0.00000000000E+00 0. -1.
         22   -1    0    0    0    0 -0.00000000000E+00 -0.00000000000E+00 -0.80372130462E+03  0.80372130462E+03  0.00000000000E+00 0. -1.
         24    2    1    2    0    0 -0.53616161273E+01 -0.19502286759E+02 -0.67919044751E+03  0.68402724706E+03  0.78641748543E+02 0.  0.
         25    2    1    2    0    0 -0.92436795486E+02  0.15888264614E+02 -0.64092351511E+02  0.16896851011E+03  0.12508209214E+03 0.  0.
        -24    2    1    2    0    0  0.97798411614E+02  0.36140221443E+01  0.72093431245E+03  0.73209836551E+03  0.81511615379E+02 0.  0.
        -13    1    3    3    0    0  0.17529484490E+02 -0.42106135117E+02 -0.29655389266E+03  0.30004069839E+03  0.00000000000E+00 0.  1.
         14    1    3    3    0    0 -0.22891100618E+02  0.22603848358E+02 -0.38263655485E+03  0.38398654867E+03  0.00000000000E+00 0. -1.
         13    1    5    5    0    0  0.64187070938E+02  0.36574651817E+02  0.32037964305E+03  0.32878686244E+03  0.00000000000E+00 0. -1.
        -14    1    5    5    0    0  0.33611340676E+02 -0.32960629672E+02  0.40055466940E+03  0.40331150307E+03  0.00000000000E+00 0.  1.
          5    1    4    4  501    0 -0.72725917207E+02 -0.40332603081E+02 -0.26863663500E+01  0.83309464462E+02  0.41800000000E+01 0.  1.
         -5    1    4    4    0  501 -0.19710878280E+02  0.56220867696E+02 -0.61405985161E+02  0.85659045644E+02  0.41800000000E+01 0.  1.
</event>
<event>
11    1  0.8453735E-009  0.1408433E+03  0.7561462E-02  0.1106620E+00
         22   -1    0    0    0    0  0.00000000000E+00  0.00000000000E+00  0.17158473600E+04  0.17158473600E+04  0.00000000000E+00 0.  1.
         22   -1    0    0    0    0 -0.00000000000E+00 -0.00000000000E+00 -0.92017748908E+02  0.92017748908E+02  0.00000000000E+00 0. -1.
         24    2    1    2    0    0 -0.92096600384E+01  0.68204359657E+02 -0.38744366616E+02  0.11189651580E+03  0.79265703741E+02 0.  0.
         25    2    1    2    0    0  0.28627862550E+02  0.17759540456E+01  0.26783425129E+03  0.29699878606E+03  0.12510149572E+03 0.  0.
        -24    2    1    2    0    0 -0.19418202511E+02 -0.69980313702E+02  0.13947397264E+04  0.13989698070E+04  0.80890702087E+02 0.  0.
        -11    1    3    3    0    0  0.31834887383E+02  0.30878941356E+02 -0.21452035207E+00  0.44351043876E+02  0.00000000000E+00 0.  1.
         12    1    3    3    0    0 -0.41044547421E+02  0.37325418301E+02 -0.38529846264E+02  0.67545471924E+02  0.00000000000E+00 0. -1.
         11    1    5    5    0    0  0.20575276445E+02  0.48987004673E+01  0.17374214038E+03  0.17502477142E+03  0.00000000000E+00 0. -1.
        -12    1    5    5    0    0 -0.39993478956E+02 -0.74879014170E+02  0.12209975860E+04  0.12239450356E+04  0.00000000000E+00 0.  1.
          5    1    4    4  501    0 -0.26063391431E+01 -0.11649617201E+02  0.26193611603E+03  0.26224131610E+03  0.41800000000E+01 0.  1.
         -5    1    4    4    0  501  0.31234201693E+02  0.13425571246E+02  0.58981352525E+01  0.34757469962E+02  0.41800000000E+01 0.  1.
</event>
<event>
11    1  0.8453735E-009  0.1422395E+03  0.7561462E-02  0.1105083E+00
         22   -1    0    0    0    0  0.00000000000E+00  0.00000000000E+00  0.17872712431E+04  0.17872712431E+04  0.00000000000E+00 0.  1.
         22   -1    0    0    0    0 -0.00000000000E+00 -0.00000000000E+00 -0.52711847149E+03  0.52711847149E+03  0.00000000000E+00 0. -1.
        -24    2    1    2    0    0 -0.22885064705E+02 -0.59370659122E+02 -0.48206697080E+03  0.49266883318E+03  0.79280599791E+02 0.  0.
         25    2    1    2    0    0 -0.39735408076E+02  0.28803984226E+02  0.80604142626E+02  0.15669471722E+03  0.12509050497E+03 0.  0.
         24    2    1    2    0    0  0.62620472781E+02  0.30566674896E+02  0.16616155998E+04  0.16650261642E+04  0.80561037413E+02 0.  0.
        -13    1    5    5    0    0  0.69296487600E+02 -0.43111986548E+01  0.12266626598E+04  0.12286260092E+04  0.00000000000E+00 0.  1.
         14    1    5    5    0    0 -0.66760148190E+01  0.34877873551E+02  0.43495294002E+03  0.43640015498E+03  0.00000000000E+00 0. -1.
         11    1    3    3    0    0 -0.38302235769E+01  0.11081163045E+02 -0.22868541364E+03  0.22898576636E+03  0.00000000000E+00 0. -1.
        -12    1    3    3    0    0 -0.19054841128E+02 -0.70451822167E+02 -0.25338155716E+03  0.26368306682E+03  0.00000000000E+00 0.  1.
          5    1    4    4  501    0 -0.15293056753E+02 -0.44769073374E+02  0.40582778331E+01  0.47666440339E+02  0.41800000000E+01 0. -1.
         -5    1    4    4    0  501 -0.24442351323E+02  0.73573057600E+02  0.76545864793E+02  0.10902827688E+03  0.41800000000E+01 0. -1.
</event>
<event>
11    1  0.8453735E-009  0.1436379E+03  0.7561462E-02  0.1103563E+00
         22   -1    0    0    0    0  0.00000000000E+00  0.00000000000E+00  0.26135655967E+03  0.26135655967E+03  0.00000000000E+00 0.  1.
         22   -1    0    0    0    0 -0.00000000000E+00 -0.00000000000E+00 -0.43243066789E+03  0.43243066789E+03  0.00000000000E+00 0.  1.
         24    2    1    2    0    0 -0.18440089534E+02  0.78546918193E+01 -0.35703016712E+03  0.36631100621E+03  0.79444823331E+02 0.  0.
         25    2    1    2    0    0 -0.54082936533E+02  0.13550014781E+02  0.35843506436E+02  0.14157393049E+03  0.12509937616E+03 0.  0.
        -24    2    1    2    0    0  0.72523026067E+02 -0.21404706601E+02  0.15011255245E+03  0.18590229086E+03  0.79423753176E+02 0.  0.
        -13    1    3    3    0    0 -0.36358062127E+02 -0.32525944271E+01 -0.33009295290E+03  0.33210517251E+03  0.00000000000E+00 0.  1.
         14    1    3    3    0    0  0.17917972593E+02  0.11107286246E+02 -0.26937214219E+02  0.34205833705E+02  0.00000000000E+00 0. -1.
         11    1    5    5    0    0  0.32267307388E+02  0.79789843468E+01  0.12642314199E+03  0.13071975424E+03  0.00000000000E+00 0. -1.
        -12    1    5    5    0    0  0.40255718680E+02 -0.29383690947E+02  0.23689410464E+02  0.55182536624E+02  0.00000000000E+00 0.  1.
          5    1    4    4  501    0 -0.23367374705E+02  0.69190597050E+02  0.16215482871E+02  0.74925210747E+02  0.41800000000E+01 0.  1.
         -5    1    4    4    0  501 -0.30715561828E+02 -0.55640582269E+02  0.19628023565E+02  0.66648719738E+02  0.41800000000E+01 0.  1.
</event>
<event>
11    1  0.8453735E-009  0.1762109E+03  0.7561462E-02  0.1072750E+00
         22   -1    0    0    0    0  0.00000000000E+00  0.00000000000E+00  0.17694548071E+04  0.17694548071E+04  0.00000000000E+00 0.  1.
         22   -1    0    0    0    0 -0.00000000000E+00 -0.00000000000E+00 -0.67827293535E+02  0.67827293535E+02  0.00000000000E+00 0. -1.
        -24    2    1    2    0    0  0.72332787888E+02 -0.91364240576E+02  0.81511961052E+02  0.16290087039E+03  0.79454623013E+02 0.  0.
         25    2    1    2    0    0 -0.15848210017E+03  0.61523668290E+02  0.43968113433E+03  0.48771745247E+03  0.12508827173E+03 0.  0.
         24    2    1    2    0    0  0.86149312280E+02  0.29840572286E+02  0.11804344182E+04  0.11866637777E+04  0.80208117447E+02 0.  0.
        -13    1    5    5    0    0  0.91275188263E+02  0.32031546730E+01  0.10054125340E+04  0.10095522689E+04  0.00000000000E+00 0.  1.
         14    1    5    5    0    0 -0.51258759833E+01  0.26637417613E+02  0.17502188417E+03  0.17711150883E+03  0.00000000000E+00 0. -1.
         11    1    3    3    0    0  0.67592094483E+02 -0.10583382988E+03  0.75533575258E+02  0.14654286668E+03  0.00000000000E+00 0. -1.
        -12    1    3    3    0    0  0.47406934051E+01  0.14469589303E+02  0.59783857937E+01  0.16358003706E+02  0.00000000000E+00 0.  1.
          5    1    4    4  501    0 -0.17806593871E+03  0.50473358578E+02  0.35990172426E+03  0.40472430367E+03  0.41800000000E+01 0.  1.
         -5    1    4    4    0  501  0.19583838541E+02  0.11050309712E+02  0.79779410074E+02  0.82993148805E+02  0.41800000000E+01 0.  1.
</event>
<event>
11    1  0.8453735E-009  0.1661405E+03  0.7561462E-02  0.1081440E+00
         22   -1    0    0    0    0  0.00000000000E+00  0.00000000000E+00  0.15091262151E+03  0.15091262151E+03  0.00000000000E+00 0. -1.
         22   -1    0    0    0    0 -0.00000000000E+00 -0.00000000000E+00 -0.82979860240E+03  0.82979860240E+03  0.00000000000E+00 0.  1.
        -24    2    1    2    0    0  0.11483254823E+02  0.88544632242E+01 -0.66571277528E+03  0.67068234530E+03  0.80193780689E+02 0.  0.
         25    2    1    2    0    0  0.80092764930E+02 -0.70993777589E+02 -0.50352928602E+02  0.17215572911E+03  0.12508880924E+03 0.  0.
         24    2    1    2    0    0 -0.91576019752E+02  0.62139314365E+02  0.37179722995E+02  0.13787314949E+03  0.73343109876E+02 0.  0.
        -11    1    5    5    0    0 -0.74349787575E+02  0.70470962007E+01  0.15927360789E+02  0.76362512394E+02  0.00000000000E+00 0.  1.
         12    1    5    5    0    0 -0.17226232177E+02  0.55092218164E+02  0.21252362206E+02  0.61510637101E+02  0.00000000000E+00 0. -1.
         11    1    3    3    0    0 -0.20719855836E+01  0.24297764232E+02 -0.62049578404E+02  0.66669518155E+02  0.00000000000E+00 0. -1.
        -12    1    3    3    0    0  0.13555240406E+02 -0.15443301008E+02 -0.60366319688E+03  0.60401282714E+03  0.00000000000E+00 0.  1.
          5    1    4    4  501    0 -0.10421764005E+02 -0.12034461226E+02 -0.61325522923E+02  0.63495933600E+02  0.41800000000E+01 0. -1.
         -5    1    4    4    0  501  0.90514528935E+02 -0.58959316362E+02  0.10972594321E+02  0.10865979551E+03  0.41800000000E+01 0. -1.
</event>
<event>
11    1  0.8453735E-009  0.1666082E+03  0.7561462E-02  0.1081022E+00
         22   -1    0    0    0    0  0.00000000000E+00  0.00000000000E+00  0.47447338717E+03  0.47447338717E+03  0.00000000000E+00 0.  1.
         22   -1    0    0    0    0 -0.00000000000E+00 -0.00000000000E+00 -0.11013220936E+04  0.11013220936E+04  0.00000000000E+00 0. -1.
         24    2    1    2    0    0 -0.24208791834E+02 -0.22353383607E+02 -0.85043209349E+03  0.85491844047E+03  0.81025026113E+02 0.  0.
         25    2    1    2    0    0  0.11609502508E+03 -0.37575921150E+02 -0.20608980151E+03  0.27020370368E+03  0.12508809093E+03 0.  0.
        -24    2    1    2    0    0 -0.91886233251E+02  0.59929304757E+02  0.42967318859E+03  0.45067333660E+03  0.80329358893E+02 0.  0.
        -11    1    3    3    0    0 -0.43264457375E+02 -0.29876401678E+02 -0.33691641050E+03  0.34099425261E+03  0.00000000000E+00 0.  1.
         12    1    3    3    0    0  0.19055665541E+02  0.75230180714E+01 -0.51351568299E+03  0.51392418786E+03  0.00000000000E+00 0. -1.
         11    1    5    5    0    0 -0.63519926541E+02  0.68708920992E+01  0.12800411454E+03  0.14306307548E+03  0.00000000000E+00 0. -1.
        -12    1    5    5    0    0 -0.28366306710E+02  0.53058412657E+02  0.30166907405E+03  0.30761026112E+03  0.00000000000E+00 0.  1.
          5    1    4    4  501    0  0.75769223520E+02  0.37036654146E+02 -0.13607641340E+03  0.16014665674E+03  0.41800000000E+01 0. -1.
         -5    1    4    4    0  501  0.40325801564E+02 -0.74612575296E+02 -0.70013388117E+02  0.11005704693E+03  0.41800000000E+01 0. -1.
</event>
<event>
11    1  0.8453735E-009  0.1331309E+03  0.7561462E-02  0.1115481E+00
         22   -1    0    0    0    0  0.00000000000E+00  0.00000000000E+00  0.83850347132E+03  0.83850347132E+03  0.00000000000E+00 0. -1.
         22   -1    0    0    0    0 -0.00000000000E+00 -0.00000000000E+00 -0.14263929099E+03  0.14263929099E+03  0.00000000000E+00 0. -1.
        -24    2    1    2    0    0 -0.30287192988E+02  0.90006218081E+01 -0.96184041637E+02  0.12985569387E+03  0.81319162031E+02 0.  0.
         25    2    1    2    0    0 -0.99569620650E+01 -0.34830385362E+02  0.13511246833E+03  0.18765646221E+03  0.12508905577E+03 0.  0.
         24    2    1    2    0    0  0.40244155053E+02  0.25829763554E+02  0.65693575364E+03  0.66363060622E+03  0.80958189255E+02 0.  0.
        -13    1    5    5    0    0  0.39737922080E+02 -0.19908700021E+02  0.23028890821E+03  0.23453878151E+03  0.00000000000E+00 0.  1.
         14    1    5    5    0    0  0.50623297298E+00  0.45738463575E+02  0.42664684543E+03  0.42909182471E+03  0.00000000000E+00 0. -1.
         11    1    3    3    0    0 -0.32670175510E+02  0.41904697123E+02 -0.69128764638E+02  0.87190195029E+02  0.00000000000E+00 0. -1.
        -12    1    3    3    0    0  0.23829825224E+01 -0.32904075315E+02 -0.27055276999E+02  0.42665498844E+02  0.00000000000E+00 0.  1.
          5    1    4    4  501    0 -0.55860217745E+02 -0.45242048134E+02  0.42308913069E+02  0.83514809291E+02  0.41800000000E+01 0. -1.
         -5    1    4    4    0  501  0.45903255680E+02  0.10411662772E+02  0.92803555263E+02  0.10414165292E+03  0.41800000000E+01 0. -1.
</event>
<event>
11    1  0.8453735E-009  0.1707218E+03  0.7561462E-02  0.1077405E+00
         22   -1    0    0    0    0  0.00000000000E+00  0.00000000000E+00  0.31156308067E+04  0.31156308067E+04  0.00000000000E+00 0.  1.
         22   -1    0    0    0    0 -0.00000000000E+00 -0.00000000000E+00 -0.52478705917E+02  0.52478705917E+02  0.00000000000E+00 0. -1.
         24    2    1    2    0    0  0.27205759167E+00  0.25069147163E+02  0.16862877423E+02  0.86863751936E+02  0.81439662392E+02 0.  0.
         25    2    1    2    0    0  0.11023172907E+03 -0.58263200645E+02  0.48614718031E+03  0.51723544548E+03  0.12509112876E+03 0.  0.
        -24    2    1    2    0    0 -0.11050378667E+03  0.33194053482E+02  0.25601420431E+04  0.25640103152E+04  0.80676414217E+02 0.  0.
        -13    1    3    3    0    0  0.11128722816E+02  0.40017961989E+02  0.39721469267E+02  0.57472435776E+02  0.00000000000E+00 0.  1.
         14    1    3    3    0    0 -0.10856665225E+02 -0.14948814826E+02 -0.22858591844E+02  0.29391316160E+02  0.00000000000E+00 0. -1.
         11    1    5    5    0    0 -0.66164456939E+02  0.28968880135E+02  0.21911033750E+04  0.21922935322E+04  0.00000000000E+00 0. -1.
        -12    1    5    5    0    0 -0.44339329727E+02  0.42251733467E+01  0.36903866806E+03  0.37171678301E+03  0.00000000000E+00 0.  1.
          5    1    4    4  501    0  0.30103899896E+02 -0.26650730512E+02  0.37191445099E+03  0.37410471459E+03  0.41800000000E+01 0.  1.
         -5    1    4    4    0  501  0.80127829179E+02 -0.31612470133E+02  0.11423272933E+03  0.14313073089E+03  0.41800000000E+01 0.  1.
</event>
<event>
11    1  0.8453735E-009  0.1434435E+03  0.7561462E-02  0.1103773E+00
         22   -1    0    0    0    0  0.00000000000E+00  0.00000000000E+00  0.28641089419E+03  0.28641089419E+03  0.00000000000E+00 0. -1.
         22   -1    0    0    0    0 -0.00000000000E+00 -0.00000000000E+00 -0.80895293464E+03  0.80895293464E+03  0.00000000000E+00 0.  1.
        -24    2    1    2    0    0 -0.41523398271E+02  0.58908529600E+02 -0.70961328082E+03  0.71741030979E+03  0.77020366253E+02 0.  0.
         25    2    1    2    0    0  0.59221228960E+02 -0.10048421417E+02 -0.28895312635E+02  0.14174083317E+03  0.12508956776E+03 0.  0.
         24    2    1    2    0    0 -0.17697830689E+02 -0.48860108183E+02  0.21596655301E+03  0.23621268586E+03  0.80339016431E+02 0.  0.
        -13    1    5    5    0    0  0.21802329769E+02 -0.26309569631E+02  0.32375531721E+02  0.47071329828E+02  0.00000000000E+00 0.  1.
         14    1    5    5    0    0 -0.39500160458E+02 -0.22550538552E+02  0.18359102128E+03  0.18914135603E+03  0.00000000000E+00 0. -1.
         13    1    3    3    0    0 -0.25059249113E+02 -0.92539614546E+01 -0.35038955489E+03  0.35140637722E+03  0.00000000000E+00 0. -1.
        -14    1    3    3    0    0 -0.16464149158E+02  0.68162491055E+02 -0.35922372592E+03  0.36600393258E+03  0.00000000000E+00 0.  1.
          5    1    4    4  501    0  0.33483872178E+02  0.39862351657E+02 -0.58252132433E+02  0.78236565036E+02  0.41800000000E+01 0.  1.
         -5    1    4    4    0  501  0.25737356782E+02 -0.49910773074E+02  0.29356819797E+02  0.63504268136E+02  0.41800000000E+01 0.  1.
</event>
<event>
11    1  0.8453735E-009  0.2008670E+03  0.7561462E-02  0.1053912E+00
         22   -1    0    0    0    0  0.00000000000E+00  0.00000000000E+00  0.84538545235E+03  0.84538545235E+03  0.00000000000E+00 0.  1.
         22   -1    0    0    0    0 -0.00000000000E+00 -0.00000000000E+00 -0.12222256754E+04  0.12222256754E+04  0.00000000000E+00 0. -1.
         24    2    1    2    0    0 -0.91413234220E+01  0.10426998990E+02 -0.97207435807E+03  0.97546002688E+03  0.80008876420E+02 0.  0.
         25    2    1    2    0    0 -0.13654804828E+03  0.49799674267E+02 -0.20026532443E+03  0.27727074139E+03  0.12508991493E+03 0.  0.
        -24    2    1    2    0    0  0.14568937170E+03 -0.60226673257E+02  0.79549945940E+03  0.81488035954E+03  0.79736849977E+02 0.  0.
        -11    1    3    3    0    0  0.20523397888E+01  0.20782116010E+02 -0.65311224798E+02  0.68568684756E+02  0.00000000000E+00 0.  1.
         12    1    3    3    0    0 -0.11193663211E+02 -0.10355117021E+02 -0.90676313328E+03  0.90689134212E+03  0.00000000000E+00 0. -1.
         11    1    5    5    0    0  0.68307450620E+01 -0.34842038899E+02  0.15950690600E+03  0.16341077019E+03  0.00000000000E+00 0. -1.
        -12    1    5    5    0    0  0.13885862664E+03 -0.25384634358E+02  0.63599255340E+03  0.65146958934E+03  0.00000000000E+00 0.  1.
          5    1    4    4  501    0 -0.13328014338E+03  0.20882651704E+01 -0.18260574169E+03  0.22612007157E+03  0.41800000000E+01 0. -1.
         -5    1    4    4    0  501 -0.32679049030E+01  0.47711409096E+02 -0.17659582740E+02  0.51150669820E+02  0.41800000000E+01 0. -1.
</event>
<event>
11    1  0.8453735E-009  0.1436369E+03  0.7561462E-02  0.1103564E+00
         22   -1    0    0    0    0  0.00000000000E+00  0.00000000000E+00  0.20521843777E+03  0.20521843777E+03  0.00000000000E+00 0. -1.
         22   -1    0    0    0    0 -0.00000000000E+00 -0.00000000000E+00 -0.14324276092E+04  0.14324276092E+04  0.00000000000E+00 0. -1.
        -24    2    1    2    0    0 -0.11655169102E+02 -0.18825190655E+02 -0.84586023191E+03  0.85077188399E+03  0.88560916224E+02 0.  0.
         25    2    1    2    0    0  0.35394273058E+02  0.84701280724E+02 -0.55804951742E+03  0.57921839967E+03  0.12509048364E+03 0.  0.
         24    2    1    2    0    0 -0.23739103956E+02 -0.65876090069E+02  0.17670057787E+03  0.20765576335E+03  0.83633830078E+02 0.  0.
        -13    1    5    5    0    0  0.59437095981E+01  0.17583633967E+02  0.17712359713E+02  0.25656179643E+02  0.00000000000E+00 0.  1.
         14    1    5    5    0    0 -0.29682813554E+02 -0.83459724036E+02  0.15898821816E+03  0.18199958371E+03  0.00000000000E+00 0. -1.
         11    1    3    3    0    0 -0.47046942822E+02 -0.23491433861E+02 -0.60493822200E+03  0.60721949469E+03  0.00000000000E+00 0. -1.
        -12    1    3    3    0    0  0.35391773720E+02  0.46662432067E+01 -0.24092200991E+03  0.24355238930E+03  0.00000000000E+00 0.  1.
          5    1    4    4  501    0 -0.27561968870E+02 -0.17264589674E+02 -0.16736529217E+03  0.17054718294E+03  0.41800000000E+01 0. -1.
         -5    1    4    4    0  501  0.62956241928E+02  0.10196587040E+03 -0.39068422525E+03  0.40867121673E+03  0.41800000000E+01 0. -1.
</event>
<event>
11    1  0.8453735E-009  0.1502364E+03  0.7561462E-02  0.1096637E+00
         22   -1    0    0    0    0  0.00000000000E+00  0.00000000000E+00  0.43535334520E+03  0.43535334520E+03  0.00000000000E+00 0.  1.
         22   -1    0    0    0    0 -0.00000000000E+00 -0.00000000000E+00 -0.13421509590E+04  0.13421509590E+04  0.00000000000E+00 0.  1.
        -24    2    1    2    0    0 -0.63786550961E+02 -0.57897552196E+01 -0.12148352637E+04  0.12193184667E+04  0.82526116463E+02 0.  0.
         25    2    1    2    0    0  0.12197110251E+03  0.59939119331E+02 -0.42464523652E+02  0.18952670457E+03  0.12508992006E+03 0.  0.
         24    2    1    2    0    0 -0.58184551553E+02 -0.54149364112E+02  0.35050217356E+03  0.36865913295E+03  0.82098641668E+02 0.  0.
        -11    1    5    5    0    0 -0.78880230319E+02 -0.36014984236E+02  0.27022041420E+03  0.28379260398E+03  0.00000000000E+00 0.  1.
         12    1    5    5    0    0  0.20695678765E+02 -0.18134379875E+02  0.80281759367E+02  0.84866528974E+02  0.00000000000E+00 0. -1.
         11    1    3    3    0    0 -0.47833247131E+02  0.35129518501E+02 -0.60504551457E+03  0.60794915684E+03  0.00000000000E+00 0. -1.
        -12    1    3    3    0    0 -0.15953303830E+02 -0.40919273721E+02 -0.60978974918E+03  0.61136930988E+03  0.00000000000E+00 0.  1.
          5    1    4    4  501    0  0.12812362034E+02  0.41100803425E+02 -0.63366905641E+02  0.76722029389E+02  0.41800000000E+01 0. -1.
         -5    1    4    4    0  501  0.10915874048E+03  0.18838315906E+02  0.20902381989E+02  0.11280467518E+03  0.41800000000E+01 0. -1.
</event>
<event>
11    1  0.8453735E-009  0.1836277E+03  0.7561462E-02  0.1066746E+00
         22   -1    0    0    0    0  0.00000000000E+00  0.00000000000E+00  0.19702748313E+04  0.19702748313E+04  0.00000000000E+00 0. -1.
         22   -1    0    0    0    0 -0.00000000000E+00 -0.00000000000E+00 -0.30544566341E+03  0.30544566341E+03  0.00000000000E+00 0. -1.
         24    2    1    2    0    0 -0.81629661411E+02 -0.97331501407E+02 -0.15187145128E+03  0.21411860293E+03  0.81516965219E+02 0.  0.
         25    2    1    2    0    0  0.59730394103E+02  0.14854699705E+03 -0.36123984464E+02  0.20636539931E+03  0.12509118861E+03 0.  0.
        -24    2    1    2    0    0  0.21899267308E+02 -0.51215495647E+02  0.18528246036E+04  0.18552364925E+04  0.76425298365E+02 0.  0.
        -13    1    3    3    0    0 -0.69300644018E+02 -0.21289623931E+02 -0.88238877139E+02  0.11420125563E+03  0.00000000000E+00 0.  1.
         14    1    3    3    0    0 -0.12329017393E+02 -0.76041877476E+02 -0.63632574141E+02  0.99917347301E+02  0.00000000000E+00 0. -1.
         13    1    5    5    0    0  0.49862921039E+02 -0.37400315780E+02  0.13581814852E+04  0.13596109889E+04  0.00000000000E+00 0. -1.
        -14    1    5    5    0    0 -0.27963653731E+02 -0.13815179867E+02  0.49464311847E+03  0.49562550355E+03  0.00000000000E+00 0.  1.
          5    1    4    4  501    0  0.48307544460E+02  0.13189259057E+03 -0.77250926023E+02  0.16035726448E+03  0.41800000000E+01 0.  1.
         -5    1    4    4    0  501  0.11422849643E+02  0.16654406485E+02  0.41126941559E+02  0.46008134839E+02  0.41800000000E+01 0.  1.
</event>
<event>
11    1  0.8453735E-009  0.1441960E+03  0.7561462E-02  0.1102961E+00
         22   -1    0    0    0    0  0.00000000000E+00  0.00000000000E+00  0.16033402286E+03  0.16033402286E+03  0.00000000000E+00 0.  1.
         22   -1    0    0    0    0 -0.00000000000E+00 -0.00000000000E+00 -0.15101070528E+04  0.15101070528E+04  0.00000000000E+00 0. -1.
         24    2    1    2    0    0  0.57204679652E+02 -0.47867494540E+02 -0.12725976311E+04  0.12772951112E+04  0.80089937469E+02 0.  0.
         25    2    1    2    0    0 -0.33234189538E+02  0.33550613064E+02 -0.20005832641E+03  0.24062576250E+03  0.12508904277E+03 0.  0.
        -24    2    1    2    0    0 -0.23970490114E+02  0.14316881476E+02  0.12288292753E+03  0.15252020196E+03  0.85922294186E+02 0.  0.
        -13    1    3    3    0    0 -0.13963075596E+02  0.96924706108E+01 -0.26695493202E+03  0.26749550874E+03  0.00000000000E+00 0.  1.
         14    1    3    3    0    0  0.71167755247E+02 -0.57559965151E+02 -0.10056426991E+04  0.10097996025E+04  0.00000000000E+00 0. -1.
         13    1    5    5    0    0 -0.38287167790E+02 -0.25631908462E+02  0.79137776651E+02  0.91573411217E+02  0.00000000000E+00 0. -1.
        -14    1    5    5    0    0  0.14316677676E+02  0.39948789938E+02  0.43745150876E+02  0.60946790747E+02  0.00000000000E+00 0.  1.
          5    1    4    4  501    0 -0.13642321650E+02  0.35630609113E+02 -0.21316715070E+03  0.21659492095E+03  0.41800000000E+01 0. -1.
         -5    1    4    4    0  501 -0.19591867888E+02 -0.20799960495E+01  0.13108824293E+02  0.24030841543E+02  0.41800000000E+01 0. -1.
</event>
<event>
11    1  0.8453735E-009  0.1675674E+03  0.7561462E-02  0.1080168E+00
         22   -1    0    0    0    0  0.00000000000E+00  0.00000000000E+00  0.66702219443E+03  0.66702219443E+03  0.00000000000E+00 0. -1.
         22   -1    0    0    0    0 -0.00000000000E+00 -0.00000000000E+00 -0.10463209677E+04  0.10463209677E+04  0.00000000000E+00 0.  1.
        -24    2    1    2    0    0  0.32640133266E+02  0.29633395497E+02 -0.76024376945E+03  0.76564747652E+03  0.79384840361E+02 0.  0.
         25    2    1    2    0    0 -0.12355647251E+03 -0.92180425732E+02 -0.24027855893E+03  0.31168124554E+03  0.12509188683E+03 0.  0.
         24    2    1    2    0    0  0.90916339245E+02  0.62547030235E+02  0.62122355507E+03  0.63601444012E+03  0.80110866462E+02 0.  0.
        -11    1    5    5    0    0 -0.12667639420E+02  0.13931042430E+02  0.49666000868E+02  0.53115484314E+02  0.00000000000E+00 0.  1.
         12    1    5    5    0    0  0.10358397867E+03  0.48615987805E+02  0.57155755420E+03  0.58289895580E+03  0.00000000000E+00 0. -1.
         11    1    3    3    0    0  0.45104032904E+02 -0.70212155043E+01 -0.26587652347E+03  0.26976656016E+03  0.00000000000E+00 0. -1.
        -12    1    3    3    0    0 -0.12463899639E+02  0.36654611001E+02 -0.49436724598E+03  0.49588091635E+03  0.00000000000E+00 0.  1.
          5    1    4    4  501    0 -0.21629834064E+02  0.16693568208E+02  0.13813088412E+01  0.27674995126E+02  0.41800000000E+01 0. -1.
         -5    1    4    4    0  501 -0.10192663845E+03 -0.10887399394E+03 -0.24165986777E+03  0.28400625041E+03  0.41800000000E+01 0. -1.
</event>
<event>
11    1  0.8453735E-009  0.1796165E+03  0.7561462E-02  0.1069953E+00
         22   -1    0    0    0    0  0.00000000000E+00  0.00000000000E+00  0.44466300924E+03  0.44466300924E+03  0.00000000000E+00 0.  1.
         22   -1    0    0    0    0 -0.00000000000E+00 -0.00000000000E+00 -0.51444434735E+03  0.51444434735E+03  0.00000000000E+00 0. -1.
        -24    2    1    2    0    0 -0.53807780827E+02  0.11266835630E+03 -0.37189928278E+03  0.40049194659E+03  0.80593343152E+02 0.  0.
         25    2    1    2    0    0  0.38073598471E+02 -0.14925039733E+03 -0.41469625014E+02  0.20271946810E+03  0.12510065124E+03 0.  0.
         24    2    1    2    0    0  0.15734182356E+02  0.36582041032E+02  0.34358756969E+03  0.35589594191E+03  0.83807477021E+02 0.  0.
        -11    1    5    5    0    0 -0.24747941699E+02  0.17915062687E+01  0.21838196447E+03  0.21978706176E+03  0.00000000000E+00 0.  1.
         12    1    5    5    0    0  0.40482124055E+02  0.34790534763E+02  0.12520560522E+03  0.13610888015E+03  0.00000000000E+00 0. -1.
         11    1    3    3    0    0 -0.68284989511E+02  0.11399457493E+03 -0.34813815129E+03  0.37263625064E+03  0.00000000000E+00 0. -1.
        -12    1    3    3    0    0  0.14477208684E+02 -0.13262186286E+01 -0.23761131486E+02  0.27855695946E+02  0.00000000000E+00 0.  1.
          5    1    4    4  501    0 -0.10462081177E+00 -0.10235559426E+03 -0.80792452098E+02  0.13046674418E+03  0.41800000000E+01 0.  1.
         -5    1    4    4    0  501  0.38178219283E+02 -0.46894803073E+02  0.39322827085E+02  0.72252723913E+02  0.41800000000E+01 0.  1.
</event>
<event>
11    1  0.8453735E-009  0.1448156E+03  0.7561462E-02  0.1102297E+00
         22   -1    0    0    0    0  0.00000000000E+00  0.00000000000E+00  0.30909633026E+03  0.30909633026E+03  0.00000000000E+00 0. -1.
         22   -1    0    0    0    0 -0.00000000000E+00 -0.00000000000E+00 -0.23918226000E+03  0.23918226000E+03  0.00000000000E+00 0.  1.
         24    2    1    2    0    0 -0.35447439513E+01 -0.33256892080E+02 -0.15182205546E+03  0.17516064933E+03  0.80701489865E+02 0.  0.
         25    2    1    2    0    0 -0.70071742474E+02  0.26409483489E+02  0.24324604872E+02  0.14780595513E+03  0.12508958413E+03 0.  0.
        -24    2    1    2    0    0  0.73616486425E+02  0.68474085904E+01  0.19741152086E+03  0.22531198581E+03  0.79548150855E+02 0.  0.
        -13    1    3    3    0    0  0.19989300912E+02 -0.11927417655E+01 -0.12635545418E+03  0.12793238677E+03  0.00000000000E+00 0.  1.
         14    1    3    3    0    0 -0.23534044863E+02 -0.32064150314E+02 -0.25466601284E+02  0.47228262555E+02  0.00000000000E+00 0. -1.
         13    1    5    5    0    0  0.49287658544E+02  0.14467560801E+02  0.19264527915E+03  0.19937599449E+03  0.00000000000E+00 0. -1.
        -14    1    5    5    0    0  0.24328827881E+02 -0.76201522101E+01  0.47662417083E+01  0.25935991320E+02  0.00000000000E+00 0.  1.
          5    1    4    4  501    0  0.17141637200E+02  0.50458128906E+02 -0.20044435034E+01  0.53491575901E+02  0.41800000000E+01 0. -1.
         -5    1    4    4    0  501 -0.87213379674E+02 -0.24048645416E+02  0.26329048375E+02  0.94314379227E+02  0.41800000000E+01 0. -1.
</event>
<event>
11    1  0.8453735E-009  0.1641865E+03  0.7561462E-02  0.1083205E+00
         22   -1    0    0    0    0  0.00000000000E+00  0.00000000000E+00  0.50573730008E+03  0.50573730008E+03  0.00000000000E+00 0. -1.
         22   -1    0    0    0    0 -0.00000000000E+00 -0.00000000000E+00 -0.70764190121E+03  0.70764190121E+03  0.00000000000E+00 0. -1.
         24    2    1    2    0    0 -0.63815147673E+02  0.86382752042E+02 -0.66795204107E+03  0.68124064828E+03  0.79965860103E+02 0.  0.
         25    2    1    2    0    0  0.71357735789E+02 -0.36132990017E+02  0.19534234177E+03  0.24536241093E+03  0.12508622140E+03 0.  0.
        -24    2    1    2    0    0 -0.75425881161E+01 -0.50249762025E+02  0.27070509817E+03  0.28677614208E+03  0.79858476517E+02 0.  0.
        -11    1    3    3    0    0  0.15698375542E+02  0.18255769847E+02 -0.66107922716E+02  0.70356020163E+02  0.00000000000E+00 0.  1.
         12    1    3    3    0    0 -0.79513523216E+02  0.68126982195E+02 -0.60184411835E+03  0.61088462812E+03  0.00000000000E+00 0. -1.
         11    1    5    5    0    0  0.12043985157E+02 -0.41150810329E+02  0.25837258856E+03  0.26190616886E+03  0.00000000000E+00 0. -1.
        -12    1    5    5    0    0 -0.19586573273E+02 -0.90989516965E+01  0.12332509611E+02  0.24869973218E+02  0.00000000000E+00 0.  1.
          5    1    4    4  501    0 -0.65148278558E+01 -0.50923288870E+02  0.13840293408E+03  0.14767690711E+03  0.41800000000E+01 0.  1.
         -5    1    4    4    0  501  0.77872563645E+02  0.14790298854E+02  0.56939407690E+02  0.97685503822E+02  0.41800000000E+01 0.  1.
</event>
<event>
11    1  0.8453735E-009  0.2110813E+03  0.7561462E-02  0.1046953E+00
         22   -1    0    0    0    0  0.00000000000E+00  0.00000000000E+00  0.68730112924E+03  0.68730112924E+03  0.00000000000E+00 0. -1.
         22   -1    0    0    0    0 -0.00000000000E+00 -0.00000000000E+00 -0.36592209728E+03  0.36592209728E+03  0.00000000000E+00 0.  1.
        -24    2    1    2    0    0  0.15467239112E+03 -0.63270760567E+02 -0.27152003827E+03  0.32850208764E+03  0.79143873308E+02 0.  0.
         25    2    1    2    0    0 -0.17451965445E+03  0.79615366420E+02  0.15007343793E+03  0.27379626282E+03  0.12508653166E+03 0.  0.
         24    2    1    2    0    0  0.19847263328E+02 -0.16344605853E+02  0.44282563230E+03  0.45092487607E+03  0.81102670937E+02 0.  0.
        -13    1    5    5    0    0  0.40348136583E+02  0.15320712714E+02  0.16504841583E+03  0.17059799510E+03  0.00000000000E+00 0.  1.
         14    1    5    5    0    0 -0.20500873255E+02 -0.31665318567E+02  0.27777721647E+03  0.28032688097E+03  0.00000000000E+00 0. -1.
         13    1    3    3    0    0  0.89111788901E+02  0.13118442287E+01 -0.10072935625E+03  0.13449548344E+03  0.00000000000E+00 0. -1.
        -14    1    3    3    0    0  0.65560602219E+02 -0.64582604795E+02 -0.17079068202E+03  0.19400660419E+03  0.00000000000E+00 0.  1.
          5    1    4    4  501    0  0.14105810325E+02  0.14094658872E+01  0.38124627358E+02  0.40889119460E+02  0.41800000000E+01 0.  1.
         -5    1    4    4    0  501 -0.18862546477E+03  0.78205900533E+02  0.11194881057E+03  0.23290714336E+03  0.41800000000E+01 0.  1.
</event>
<event>
11    1  0.8453735E-009  0.2004801E+03  0.7561462E-02  0.1054185E+00
         22   -1    0    0    0    0  0.00000000000E+00  0.00000000000E+00  0.10423114098E+04  0.10423114098E+04  0.00000000000E+00 0.  1.
         22   -1    0    0    0    0 -0.00000000000E+00 -0.00000000000E+00 -0.13451392423E+03  0.13451392423E+03  0.00000000000E+00 0. -1.
        -24    2    1    2    0    0  0.11394227049E+03  0.10297576159E+03 -0.24426546411E+02  0.17432001725E+03  0.78765244646E+02 0.  0.
         25    2    1    2    0    0 -0.11906458651E+03 -0.12310642710E+03  0.31457910802E+03  0.37939375420E+03  0.12509211552E+03 0.  0.
         24    2    1    2    0    0  0.51223160167E+01  0.20130665509E+02  0.61764492392E+03  0.62311156253E+03  0.79694952840E+02 0.  0.
        -13    1    5    5    0    0 -0.29219408123E+02  0.23365327944E+01  0.45450833165E+03  0.45545258451E+03  0.00000000000E+00 0.  1.
         14    1    5    5    0    0  0.34341724140E+02  0.17794132714E+02  0.16313659226E+03  0.16765897802E+03  0.00000000000E+00 0. -1.
         11    1    3    3    0    0  0.10251354030E+03  0.50090361405E+02 -0.34679905129E+02  0.11925085354E+03  0.00000000000E+00 0. -1.
        -12    1    3    3    0    0  0.11428730196E+02  0.52885400189E+02  0.10253358718E+02  0.55069163713E+02  0.00000000000E+00 0.  1.
          5    1    4    4  501    0 -0.12933133807E+03 -0.83925152035E+02  0.17157993194E+03  0.23071014627E+03  0.41800000000E+01 0.  1.
         -5    1    4    4    0  501  0.10266751559E+02 -0.39181275068E+02  0.14299917609E+03  0.14868360792E+03  0.41800000000E+01 0.  1.
</event>
<event>
11    1  0.8453735E-009  0.1297483E+03  0.7561462E-02  0.1119579E+00
         22   -1    0    0    0    0  0.00000000000E+00  0.00000000000E+00  0.55514465164E+03  0.55514465164E+03  0.00000000000E+00 0.  1.
         22   -1    0    0    0    0 -0.00000000000E+00 -0.00000000000E+00 -0.44636135684E+03  0.44636135684E+03  0.00000000000E+00 0.  1.
        -24    2    1    2    0    0 -0.26757351264E+02  0.47472043281E+01 -0.39752317181E+03  0.40620847825E+03  0.79007365992E+02 0.  0.
         25    2    1    2    0    0  0.22783765406E+02  0.30247620713E+02  0.69277569781E+02  0.14792214600E+03  0.12509021176E+03 0.  0.
         24    2    1    2    0    0  0.39735858576E+01 -0.34994825041E+02  0.43702889682E+03  0.44737538424E+03  0.88938465224E+02 0.  0.
        -11    1    5    5    0    0  0.17550828044E+02  0.42010316292E+01  0.35496590473E+03  0.35542435729E+03  0.00000000000E+00 0.  1.
         12    1    5    5    0    0 -0.13577242186E+02 -0.39195856670E+02  0.82062992092E+02  0.91951026947E+02  0.00000000000E+00 0. -1.
         11    1    3    3    0    0 -0.42486545741E+02  0.16554274528E+02 -0.12640248380E+03  0.13437536413E+03  0.00000000000E+00 0. -1.
        -12    1    3    3    0    0  0.15729194477E+02 -0.11807070200E+02 -0.27112068801E+03  0.27183311412E+03  0.00000000000E+00 0.  1.
          5    1    4    4  501    0  0.12202081482E+02 -0.58585032988E+00  0.10125027635E+03  0.10207019581E+03  0.41800000000E+01 0.  1.
         -5    1    4    4    0  501  0.10581683924E+02  0.30833471043E+02 -0.31972706565E+02  0.45851950191E+02  0.41800000000E+01 0.  1.
</event>
<event>
11    1  0.8453735E-009  0.1357578E+03  0.7561462E-02  0.1112390E+00
         22   -1    0    0    0    0  0.00000000000E+00  0.00000000000E+00  0.46834458619E+03  0.46834458619E+03  0.00000000000E+00 0.  1.
         22   -1    0    0    0    0 -0.00000000000E+00 -0.00000000000E+00 -0.32657191996E+03  0.32657191996E+03  0.00000000000E+00 0. -1.
        -24    2    1    2    0    0  0.18110348476E+01  0.38294221752E+02 -0.26093345874E+03  0.27605501065E+03  0.81549811448E+02 0.  0.
         25    2    1    2    0    0 -0.52308835487E+02 -0.48595071395E+02  0.49020406229E+02  0.15214200485E+03  0.12508594717E+03 0.  0.
         24    2    1    2    0    0  0.50497800640E+02  0.10300849643E+02  0.35368571874E+03  0.36671949065E+03  0.82057673673E+02 0.  0.
        -11    1    5    5    0    0 -0.60522916915E+01  0.55165891857E+01  0.23520936923E+03  0.23535188625E+03  0.00000000000E+00 0.  1.
         12    1    5    5    0    0  0.56550092331E+02  0.47842604574E+01  0.11847634952E+03  0.13136760440E+03  0.00000000000E+00 0. -1.
         11    1    3    3    0    0  0.35184382573E+02  0.33808744647E+02 -0.20534499566E+03  0.21106287981E+03  0.00000000000E+00 0. -1.
        -12    1    3    3    0    0 -0.33373347725E+02  0.44854771047E+01 -0.55588463087E+02  0.64992130844E+02  0.00000000000E+00 0.  1.
          5    1    4    4  501    0  0.12597100358E+02  0.11444287815E+01  0.67000035535E+02  0.68311593572E+02  0.41800000000E+01 0.  1.
         -5    1    4    4    0  501 -0.64905935845E+02 -0.49739500177E+02 -0.17979629306E+02  0.83830411282E+02  0.41800000000E+01 0.  1.
</event>
<event>
11    1  0.8453735E-009  0.1406953E+03  0.7561462E-02  0.1106784E+00
         22   -1    0    0    0    0  0.00000000000E+00  0.00000000000E+00  0.94134397596E+03  0.94134397596E+03  0.00000000000E+00 0. -1.
         22   -1    0    0    0    0 -0.00000000000E+00 -0.00000000000E+00 -0.31635981600E+03  0.31635981600E+03  0.00000000000E+00 0. -1.
         24    2    1    2    0    0 -0.52464469560E+02  0.21799324333E+02 -0.19503264069E+03  0.21888881282E+03  0.81528218027E+02 0.  0.
         25    2    1    2    0    0  0.92134047547E+02 -0.48499562990E+02 -0.44870796784E+02  0.16882678251E+03  0.12509278061E+03 0.  0.
        -24    2    1    2    0    0 -0.39669577987E+02  0.26700238658E+02  0.86488759743E+03  0.86998819663E+03  0.81008196731E+02 0.  0.
        -11    1    3    3    0    0  0.91825301277E+01  0.28744632456E+02 -0.29868835047E+02  0.42458451003E+02  0.00000000000E+00 0.  1.
         12    1    3    3    0    0 -0.61646999688E+02 -0.69453081232E+01 -0.16516380564E+03  0.17643036181E+03  0.00000000000E+00 0. -1.
         11    1    5    5    0    0 -0.13739501308E+02  0.54233909353E+02  0.54955644541E+03  0.55239693836E+03  0.00000000000E+00 0. -1.
        -12    1    5    5    0    0 -0.25930076679E+02 -0.27533670695E+02  0.31533115202E+03  0.31759125828E+03  0.00000000000E+00 0.  1.
          5    1    4    4  501    0  0.57180098555E+02 -0.65648100106E+02 -0.78433233079E+02  0.11725391750E+03  0.41800000000E+01 0. -1.
         -5    1    4    4    0  501  0.34953948992E+02  0.17148537116E+02  0.33562436294E+02  0.51572865010E+02  0.41800000000E+01 0. -1.
</event>
<event>
11    1  0.8453735E-009  0.1430608E+03  0.7561462E-02  0.1104188E+00
         22   -1    0    0    0    0  0.00000000000E+00  0.00000000000E+00  0.19200148652E+03  0.19200148652E+03  0.00000000000E+00 0.  1.
         22   -1    0    0    0    0 -0.00000000000E+00 -0.00000000000E+00 -0.33549289099E+03  0.33549289099E+03  0.00000000000E+00 0. -1.
        -24    2    1    2    0    0  0.24676036369E+02  0.25103496916E+02 -0.21471667813E+03  0.23067045952E+03  0.76593189671E+02 0.  0.
         25    2    1    2    0    0 -0.66382738185E+02 -0.71406514271E+02 -0.20189701411E+02  0.15987839550E+03  0.12509164279E+03 0.  0.
         24    2    1    2    0    0  0.41706701816E+02  0.46303017355E+02  0.91414975059E+02  0.13694552248E+03  0.80709107725E+02 0.  0.
        -13    1    5    5    0    0  0.33001093201E+02  0.28456221686E+02  0.10446171596E+03  0.11318603627E+03  0.00000000000E+00 0.  1.
         14    1    5    5    0    0  0.87056086151E+01  0.17846795669E+02 -0.13046740899E+02  0.23759486213E+02  0.00000000000E+00 0. -1.
         13    1    3    3    0    0 -0.34674966325E+01  0.18658224466E+02 -0.59093024044E+01  0.19876436502E+02  0.00000000000E+00 0. -1.
        -14    1    3    3    0    0  0.28143533001E+02  0.64452724502E+01 -0.20880737572E+03  0.21079402302E+03  0.00000000000E+00 0.  1.
          5    1    4    4  501    0 -0.32776096665E+02  0.16598061011E+02  0.34752256065E+02  0.50744062151E+02  0.41800000000E+01 0. -1.
         -5    1    4    4    0  501 -0.33606641519E+02 -0.88004575282E+02 -0.54941957476E+02  0.10913433335E+03  0.41800000000E+01 0. -1.
</event>
<event>
11    1  0.8453735E-009  0.1429458E+03  0.7561462E-02  0.1104313E+00
         22   -1    0    0    0    0  0.00000000000E+00  0.00000000000E+00  0.10764614233E+04  0.10764614233E+04  0.00000000000E+00 0. -1.
         22   -1    0    0    0    0 -0.00000000000E+00 -0.00000000000E+00 -0.32506942541E+04  0.32506942541E+04  0.00000000000E+00 0.  1.
         24    2    1    2    0    0 -0.55969458833E+02 -0.24736129918E+01 -0.29889713419E+04  0.29904070082E+04  0.73794939158E+02 0.  0.
         25    2    1    2    0    0  0.95556126085E+01 -0.49373497797E+02 -0.24067598465E+03  0.27586568113E+03  0.12509153616E+03 0.  0.
        -24    2    1    2    0    0  0.46413846224E+02  0.51847110789E+02  0.10554144957E+04  0.10608829880E+04  0.82040164795E+02 0.  0.
        -13    1    3    3    0    0 -0.44862152782E+02 -0.14639521181E+02 -0.28598136991E+04  0.28602030211E+04  0.00000000000E+00 0.  1.
         14    1    3    3    0    0 -0.11107306051E+02  0.12165908189E+02 -0.12915764279E+03  0.13020398711E+03  0.00000000000E+00 0. -1.
         13    1    5    5    0    0  0.49487269196E+02  0.30598823967E+02  0.99618100509E+03  0.99787868638E+03  0.00000000000E+00 0. -1.
        -14    1    5    5    0    0 -0.30734229720E+01  0.21248286822E+02  0.59233490584E+02  0.63004301666E+02  0.00000000000E+00 0.  1.
          5    1    4    4  501    0  0.14499148079E+02 -0.88596550820E+02 -0.12814309555E+03  0.15651740941E+03  0.41800000000E+01 0.  1.
         -5    1    4    4    0  501 -0.49435354704E+01  0.39223053023E+02 -0.11253288911E+03  0.11934827172E+03  0.41800000000E+01 0.  1.
</event>
<event>
11    1  0.8453735E-009  0.1845058E+03  0.7561462E-02  0.1066055E+00
         22   -1    0    0    0    0  0.00000000000E+00  0.00000000000E+00  0.29395691572E+04  0.29395691572E+04  0.00000000000E+00 0.  1.
         22   -1    0    0    0    0 -0.00000000000E+00 -0.00000000000E+00 -0.66527495531E+03  0.66527495531E+03  0.00000000000E+00 0.  1.
         24    2    1    2    0    0  0.19585954509E+02  0.46546436523E+02 -0.56046784463E+03  0.56864200500E+03  0.81727257492E+02 0.  0.
         25    2    1    2    0    0 -0.58930892642E+02 -0.17518286085E+03  0.27920947103E+02  0.22492071180E+03  0.12509141645E+03 0.  0.
        -24    2    1    2    0    0  0.39344938132E+02  0.12863642432E+03  0.28068410994E+04  0.28112813957E+04  0.82769406092E+02 0.  0.
        -11    1    3    3    0    0 -0.12295661079E+02  0.14266941678E+02 -0.43178175997E+03  0.43219233814E+03  0.00000000000E+00 0.  1.
         12    1    3    3    0    0  0.31881615589E+02  0.32279494845E+02 -0.12868608467E+03  0.13644966686E+03  0.00000000000E+00 0. -1.
         11    1    5    5    0    0  0.44486781402E+02  0.19634422117E+02  0.93074248640E+03  0.93201188847E+03  0.00000000000E+00 0. -1.
        -12    1    5    5    0    0 -0.51418432699E+01  0.10900200221E+03  0.18760986130E+04  0.18792695072E+04  0.00000000000E+00 0.  1.
          5    1    4    4  501    0 -0.50506857314E+02 -0.17796385192E+02  0.39732594372E+02  0.66811716166E+02  0.41800000000E+01 0. -1.
         -5    1    4    4    0  501 -0.84240353284E+01 -0.15738647565E+03 -0.11811647269E+02  0.15810899564E+03  0.41800000000E+01 0. -1.
</event>
<event>
11    1  0.8453735E-009  0.3374997E+03  0.7561462E-02  0.9854614E-01
         22   -1    0    0    0    0  0.00000000000E+00  0.00000000000E+00  0.28905557846E+04  0.28905557846E+04  0.00000000000E+00 0. -1.
         22   -1    0    0    0    0 -0.00000000000E+00 -0.00000000000E+00 -0.35086729457E+03  0.35086729457E+03  0.00000000000E+00 0.  1.
         24    2    1    2    0    0 -0.31201969784E+03 -0.39226916808E+02 -0.24889490948E+03  0.40976604860E+03  0.84050554880E+02 0.  0.
         25    2    1    2    0    0  0.28664624734E+03  0.93676932046E+02  0.13374165398E+04  0.13766884620E+04  0.12508669732E+03 0.  0.
        -24    2    1    2    0    0  0.25373450497E+02 -0.54450015238E+02  0.14511668597E+04  0.14549685685E+04  0.86253490276E+02 0.  0.
        -13    1    3    3    0    0 -0.24806963254E+03 -0.42290310480E+02 -0.15315055372E+03  0.29458802599E+03  0.00000000000E+00 0.  1.
         14    1    3    3    0    0 -0.63950065294E+02  0.30633936717E+01 -0.95744355760E+02  0.11517802261E+03  0.00000000000E+00 0. -1.
         13    1    5    5    0    0  0.11639488687E+02 -0.60736678928E+02  0.14056756827E+04  0.14070353751E+04  0.00000000000E+00 0. -1.
        -14    1    5    5    0    0  0.13733961810E+02  0.62866636899E+01  0.45491176959E+02  0.47933193389E+02  0.00000000000E+00 0.  1.
          5    1    4    4  501    0  0.22772327234E+03  0.59119147507E+02  0.12036087300E+04  0.12263948833E+04  0.41800000000E+01 0.  1.
         -5    1    4    4    0  501  0.58922975000E+02  0.34557784539E+02  0.13380780982E+03  0.15029357879E+03  0.41800000000E+01 0.  1.
</event>
<event>
11    1  0.8453735E-009  0.3219890E+03  0.7561462E-02  0.9912918E-01
         22   -1    0    0    0    0  0.00000000000E+00  0.00000000000E+00  0.52278782683E+03  0.52278782683E+03  0.00000000000E+00 0.  1.
         22   -1    0    0    0    0 -0.00000000000E+00 -0.00000000000E+00 -0.11409674409E+04  0.11409674409E+04  0.00000000000E+00 0. -1.
        -24    2    1    2    0    0 -0.91497211198E+02 -0.18998375880E+03 -0.87536388967E+03  0.90437951983E+03  0.84704240031E+02 0.  0.
         25    2    1    2    0    0  0.42960777402E+02  0.42965647430E+03  0.10906985504E+03  0.46260029504E+03  0.12510989324E+03 0.  0.
         24    2    1    2    0    0  0.48536433795E+02 -0.23967271551E+03  0.14811442054E+03  0.29677545289E+03  0.79617786327E+02 0.  0.
        -11    1    5    5    0    0 -0.61203048198E+01 -0.15246635753E+03  0.10480648432E+03  0.18511576774E+03  0.00000000000E+00 0.  1.
         12    1    5    5    0    0  0.54656738615E+02 -0.87206357972E+02  0.43307936218E+02  0.11165968514E+03  0.00000000000E+00 0. -1.
         11    1    3    3    0    0 -0.10789069292E+03 -0.15940543268E+03 -0.73374454777E+03  0.75857204995E+03  0.00000000000E+00 0. -1.
        -12    1    3    3    0    0  0.16393481719E+02 -0.30578326114E+02 -0.14161934190E+03  0.14580746988E+03  0.00000000000E+00 0.  1.
          5    1    4    4  501    0 -0.37774450879E+01 -0.74019957947E+01 -0.12816542167E+01  0.93900836348E+01  0.41800000000E+01 0. -1.
         -5    1    4    4    0  501  0.46738222490E+02  0.43705847010E+03  0.11035150926E+03  0.45321021140E+03  0.41800000000E+01 0. -1.
</event>
<event>
11    1  0.8453735E-009  0.1316039E+03  0.7561462E-02  0.1117314E+00
         22   -1    0    0    0    0  0.00000000000E+00  0.00000000000E+00  0.89685153018E+03  0.89685153018E+03  0.00000000000E+00 0. -1.
         22   -1    0    0    0    0 -0.00000000000E+00 -0.00000000000E+00 -0.32080498486E+03  0.32080498486E+03  0.00000000000E+00 0.  1.
         24    2    1    2    0    0  0.32011770728E+02  0.15302710952E+01 -0.22205629360E+03  0.23800876348E+03  0.79448591985E+02 0.  0.
         25    2    1    2    0    0  0.82184812441E+01  0.95714057595E+01 -0.43541923188E+02  0.13305373830E+03  0.12509293729E+03 0.  0.
        -24    2    1    2    0    0 -0.40230251972E+02 -0.11101676855E+02  0.84164476212E+03  0.84659401326E+03  0.81325256138E+02 0.  0.
        -13    1    3    3    0    0  0.37649622931E+02 -0.26594655834E+02 -0.18757691514E+03  0.19315762714E+03  0.00000000000E+00 0.  1.
         14    1    3    3    0    0 -0.56378522024E+01  0.28124926929E+02 -0.34479378460E+02  0.44851136343E+02  0.00000000000E+00 0. -1.
         11    1    5    5    0    0 -0.44752825384E+02 -0.40515651911E+02  0.62629321449E+03  0.62919593447E+03  0.00000000000E+00 0. -1.
        -12    1    5    5    0    0  0.45225734114E+01  0.29413975057E+02  0.21535154762E+03  0.21739807879E+03  0.00000000000E+00 0.  1.
          5    1    4    4  501    0  0.19766584299E+00  0.28578123635E+02 -0.83246515367E+02  0.88114714679E+02  0.41800000000E+01 0.  1.
         -5    1    4    4    0  501  0.80208154011E+01 -0.19006717876E+02  0.39704592179E+02  0.44939023623E+02  0.41800000000E+01 0.  1.
</event>
<event>
11    1  0.8453735E-009  0.1666703E+03  0.7561462E-02  0.1080966E+00
         22   -1    0    0    0    0  0.00000000000E+00  0.00000000000E+00  0.77275871522E+03  0.77275871522E+03  0.00000000000E+00 0. -1.
         22   -1    0    0    0    0 -0.00000000000E+00 -0.00000000000E+00 -0.16644241933E+03  0.16644241933E+03  0.00000000000E+00 0.  1.
        -24    2    1    2    0    0  0.82726936553E+02  0.61302124598E+02 -0.77164609406E+02  0.15305832732E+03  0.82890156863E+02 0.  0.
         25    2    1    2    0    0 -0.15275732785E+03 -0.47547644814E+02  0.18035118591E+03  0.27160752036E+03  0.12509402510E+03 0.  0.
         24    2    1    2    0    0  0.70030391302E+02 -0.13754479784E+02  0.50312971939E+03  0.51453528687E+03  0.80706910995E+02 0.  0.
        -13    1    5    5    0    0 -0.15971314017E+02  0.13649090308E+01  0.14635122658E+03  0.14722644929E+03  0.00000000000E+00 0.  1.
         14    1    5    5    0    0  0.86001705319E+02 -0.15119388814E+02  0.35677849281E+03  0.36730883758E+03  0.00000000000E+00 0. -1.
         11    1    3    3    0    0  0.29828226844E+02 -0.18456680441E+02 -0.30945128395E+02  0.46775775151E+02  0.00000000000E+00 0. -1.
        -12    1    3    3    0    0  0.52898709708E+02  0.79758805039E+02 -0.46219481011E+02  0.10628255217E+03  0.00000000000E+00 0.  1.
          5    1    4    4  501    0 -0.51313930355E+02 -0.28119623225E+02 -0.55235120908E+01  0.58922103192E+02  0.41800000000E+01 0.  1.
         -5    1    4    4    0  501 -0.10144339750E+03 -0.19428021589E+02  0.18587469800E+03  0.21268541717E+03  0.41800000000E+01 0.  1.
</event>
<event>
11    1  0.8453735E-009  0.1990271E+03  0.7561462E-02  0.1055214E+00
         22   -1    0    0    0    0  0.00000000000E+00  0.00000000000E+00  0.33273972417E+03  0.33273972417E+03  0.00000000000E+00 0.  1.
         22   -1    0    0    0    0 -0.00000000000E+00 -0.00000000000E+00 -0.15702682982E+04  0.15702682982E+04  0.00000000000E+00 0. -1.
        -24    2    1    2    0    0 -0.63323925894E+01 -0.15471125653E+03 -0.14795108790E+04  0.14897314766E+04  0.79823299604E+02 0.  0.
         25    2    1    2    0    0  0.39017325691E+02  0.15221135309E+03  0.56669393156E+02  0.20868646103E+03  0.12509185098E+03 0.  0.
         24    2    1    2    0    0 -0.32684933101E+02  0.24999034411E+01  0.18531291183E+03  0.20459008473E+03  0.80260034324E+02 0.  0.
        -11    1    5    5    0    0  0.80059520607E+01  0.10819673290E+02  0.14844644103E+03  0.14905538049E+03  0.00000000000E+00 0.  1.
         12    1    5    5    0    0 -0.40690885162E+02 -0.83197698488E+01  0.36866470797E+02  0.55534704236E+02  0.00000000000E+00 0. -1.
         11    1    3    3    0    0  0.12321959741E+01 -0.14684812043E+03 -0.14600809466E+04  0.14674475321E+04  0.00000000000E+00 0. -1.
        -12    1    3    3    0    0 -0.75645885635E+01 -0.78631361059E+01 -0.19429932363E+02  0.22283944471E+02  0.00000000000E+00 0.  1.
          5    1    4    4  501    0  0.66823603382E+02  0.65648375017E+02  0.69573719137E+02  0.11676077212E+03  0.41800000000E+01 0.  1.
         -5    1    4    4    0  501 -0.27806277691E+02  0.86562978075E+02 -0.12904325981E+02  0.91925688908E+02  0.41800000000E+01 0.  1.
</event>
<event>
11    1  0.8453735E-009  0.1716133E+03  0.7561462E-02  0.1076636E+00
         22   -1    0    0    0    0  0.00000000000E+00  0.00000000000E+00  0.20450404667E+03  0.20450404667E+03  0.00000000000E+00 0. -1.
         22   -1    0    0    0    0 -0.00000000000E+00 -0.00000000000E+00 -0.41043315143E+03  0.41043315143E+03  0.00000000000E+00 0. -1.
         24    2    1    2    0    0  0.30618972771E+02 -0.12036402588E+03 -0.26121091288E+03  0.30080153733E+03  0.82616001084E+02 0.  0.
         25    2    1    2    0    0  0.70961997949E+02  0.10064986458E+03  0.65552528133E+01  0.17564577402E+03  0.12506984528E+03 0.  0.
        -24    2    1    2    0    0 -0.10158097072E+03  0.19714161292E+02  0.48726555308E+02  0.13848988675E+03  0.78088602054E+02 0.  0.
        -11    1    3    3    0    0  0.30988607734E+02 -0.43407979732E+02 -0.40235459169E+02  0.66808971615E+02  0.00000000000E+00 0.  1.
         12    1    3    3    0    0 -0.36963496335E+00 -0.76956046145E+02 -0.22097545371E+03  0.23399256572E+03  0.00000000000E+00 0. -1.
         13    1    5    5    0    0 -0.95401812953E+02  0.20067801280E+02  0.67595851330E+02  0.11863145316E+03  0.00000000000E+00 0. -1.
        -14    1    5    5    0    0 -0.61791577674E+01 -0.35363998730E+00 -0.18869296022E+02  0.19858433581E+02  0.00000000000E+00 0.  1.
          5    1    4    4  501    0  0.46367716470E+02 -0.10724614838E+02 -0.29260989593E+02  0.56023748589E+02  0.41800000000E+01 0. -1.
         -5    1    4    4    0  501  0.24594281480E+02  0.11137447942E+03  0.35816242406E+02  0.11962202543E+03  0.41800000000E+01 0. -1.
</event>
<event>
11    1  0.8453735E-009  0.1432434E+03  0.7561462E-02  0.1103990E+00
         22   -1    0    0    0    0  0.00000000000E+00  0.00000000000E+00  0.60868700593E+03  0.60868700593E+03  0.00000000000E+00 0. -1.
         22   -1    0    0    0    0 -0.00000000000E+00 -0.00000000000E+00 -0.20410660526E+03  0.20410660526E+03  0.00000000000E+00 0.  1.
         24    2    1    2    0    0 -0.90073876095E+01 -0.70115621564E+02 -0.15178103748E+03  0.18470295474E+03  0.77976693507E+02 0.  0.
         25    2    1    2    0    0  0.42652504049E+02  0.55029244320E+02  0.13289131213E+03  0.19533358167E+03  0.12509058101E+03 0.  0.
        -24    2    1    2    0    0 -0.33645116439E+02  0.15086377244E+02  0.42347012602E+03  0.43275707478E+03  0.81192028597E+02 0.  0.
        -13    1    3    3    0    0  0.13630493226E+02 -0.73995724007E+02 -0.13988680012E+03  0.15883788706E+03  0.00000000000E+00 0.  1.
         14    1    3    3    0    0 -0.22637880835E+02  0.38801024432E+01 -0.11894237365E+02  0.25865067681E+02  0.00000000000E+00 0. -1.
         13    1    5    5    0    0  0.15246233743E+02 -0.20185857964E+02  0.18789404800E+03  0.18958926599E+03  0.00000000000E+00 0. -1.
        -14    1    5    5    0    0 -0.48891350182E+02  0.35272235209E+02  0.23557607802E+03  0.24316780879E+03  0.00000000000E+00 0.  1.
          5    1    4    4  501    0  0.48131590388E+02  0.19512653649E+02  0.14741188139E+03  0.15634938062E+03  0.41800000000E+01 0.  1.
         -5    1    4    4    0  501 -0.54790863397E+01  0.35516590671E+02 -0.14520569260E+02  0.38984201052E+02  0.41800000000E+01 0.  1.
</event>
<event>
11    1  0.8453735E-009  0.3428187E+03  0.7561462E-02  0.9835390E-01
         22   -1    0    0    0    0  0.00000000000E+00  0.00000000000E+00  0.15212984990E+04  0.15212984990E+04  0.00000000000E+00 0. -1.
         22   -1    0    0    0    0 -0.00000000000E+00 -0.00000000000E+00 -0.22158324842E+03  0.22158324842E+03  0.00000000000E+00 0. -1.
        -24    2    1    2    0    0  0.16071549518E+01  0.33848779040E+02 -0.96830482017E+02  0.13123223797E+03  0.81837859487E+02 0.  0.
         25    2    1    2    0    0 -0.17544983576E+03  0.24106709203E+03  0.22828062798E+03  0.39581407734E+03  0.12514292221E+03 0.  0.
         24    2    1    2    0    0  0.17384268081E+03 -0.27491587107E+03  0.11682651046E+04  0.12158354321E+04  0.87249237675E+02 0.  0.
        -11    1    5    5    0    0  0.18663621004E+01  0.14070884038E+01  0.77803969706E+02  0.77839070571E+02  0.00000000000E+00 0.  1.
         12    1    5    5    0    0  0.17197631871E+03 -0.27632295947E+03  0.10904611349E+04  0.11379963615E+04  0.00000000000E+00 0. -1.
         13    1    3    3    0    0  0.21282823567E+02 -0.76723708183E+01 -0.78616015280E+02  0.81806489422E+02  0.00000000000E+00 0. -1.
        -14    1    3    3    0    0 -0.19675668615E+02  0.41521149858E+02 -0.18214466737E+02  0.49425748548E+02  0.00000000000E+00 0.  1.
          5    1    4    4  501    0 -0.17818771778E+03  0.22507372833E+03  0.24094718418E+03  0.37480937010E+03  0.41800000000E+01 0. -1.
         -5    1    4    4    0  501  0.27378820177E+01  0.15993363699E+02 -0.12666556196E+02  0.21004707239E+02  0.41800000000E+01 0. -1.
</event>
<event>
11    1  0.8453735E-009  0.1555024E+03  0.7561462E-02  0.1091385E+00
         22   -1    0    0    0    0  0.00000000000E+00  0.00000000000E+00  0.85933657759E+03  0.85933657759E+03  0.00000000000E+00 0. -1.
         22   -1    0    0    0    0 -0.00000000000E+00 -0.00000000000E+00 -0.23297862670E+03  0.23297862670E+03  0.00000000000E+00 0. -1.
        -24    2    1    2    0    0  0.49493415756E+02 -0.78899974350E+02 -0.12928706132E+03  0.17877855030E+03  0.81066772886E+02 0.  0.
         25    2    1    2    0    0 -0.19574697542E+02  0.92255536865E+02  0.38723644732E+01  0.15670695509E+03  0.12509125349E+03 0.  0.
         24    2    1    2    0    0 -0.29918718214E+02 -0.13355562515E+02  0.75177264774E+03  0.75682969890E+03  0.80966527012E+02 0.  0.
        -13    1    5    5    0    0  0.27721220221E+02  0.11647532549E+01  0.26094602498E+03  0.26241694048E+03  0.00000000000E+00 0.  1.
         14    1    5    5    0    0 -0.57639938435E+02 -0.14520315770E+02  0.49082662277E+03  0.49441275842E+03  0.00000000000E+00 0. -1.
         11    1    3    3    0    0  0.37665801929E+02 -0.80055641893E+02 -0.56383855710E+02  0.10491309555E+03  0.00000000000E+00 0. -1.
        -12    1    3    3    0    0  0.11827613827E+02  0.11556675424E+01 -0.72903205613E+02  0.73865454746E+02  0.00000000000E+00 0.  1.
          5    1    4    4  501    0  0.26323348973E+02  0.61670688591E+02  0.50753119135E+02  0.84199430131E+02  0.41800000000E+01 0.  1.
         -5    1    4    4    0  501 -0.45898046515E+02  0.30584848274E+02 -0.46880754661E+02  0.72507524958E+02  0.41800000000E+01 0.  1.
</event>
<event>
11    1  0.8453735E-009  0.1394760E+03  0.7561462E-02  0.1108145E+00
         22   -1    0    0    0    0  0.00000000000E+00  0.00000000000E+00  0.41512984192E+03  0.41512984192E+03  0.00000000000E+00 0. -1.
         22   -1    0    0    0    0 -0.00000000000E+00 -0.00000000000E+00 -0.10658125238E+04  0.10658125238E+04  0.00000000000E+00 0. -1.
         24    2    1    2    0    0  0.59032360779E+02 -0.17781041684E+02 -0.99974158057E+03  0.10048675331E+04  0.80464564641E+02 0.  0.
         25    2    1    2    0    0 -0.45123802641E+02  0.67734466055E+02  0.42583190048E+02  0.15519308959E+03  0.12508977386E+03 0.  0.
        -24    2    1    2    0    0 -0.13908558138E+02 -0.49953424372E+02  0.30647570864E+03  0.32088174300E+03  0.79680238514E+02 0.  0.
        -13    1    3    3    0    0  0.21357668281E+02 -0.42953131508E+02 -0.70853640150E+03  0.71015840046E+03  0.00000000000E+00 0.  1.
         14    1    3    3    0    0  0.37674692498E+02  0.25172089825E+02 -0.29120517908E+03  0.29470913267E+03  0.00000000000E+00 0. -1.
         13    1    5    5    0    0 -0.28282893121E+02 -0.31396315670E+02  0.28779966782E+03  0.29088537172E+03  0.00000000000E+00 0. -1.
        -14    1    5    5    0    0  0.14374334983E+02 -0.18557108701E+02  0.18676040816E+02  0.29996371283E+02  0.00000000000E+00 0.  1.
          5    1    4    4  501    0 -0.52853066850E+02  0.88367235531E+02  0.66311980266E+02  0.12254373145E+03  0.41800000000E+01 0.  1.
         -5    1    4    4    0  501  0.77292642093E+01 -0.20632769476E+02 -0.23728790218E+02  0.32649358136E+02  0.41800000000E+01 0.  1.
</event>
<event>
11    1  0.8453735E-009  0.1559306E+03  0.7561462E-02  0.1090968E+00
         22   -1    0    0    0    0  0.00000000000E+00  0.00000000000E+00  0.14698776781E+03  0.14698776781E+03  0.00000000000E+00 0. -1.
         22   -1    0    0    0    0 -0.00000000000E+00 -0.00000000000E+00 -0.62771931603E+03  0.62771931603E+03  0.00000000000E+00 0.  1.
        -24    2    1    2    0    0 -0.59254851350E+02  0.45829454698E+02 -0.23654499462E+03  0.26070945659E+03  0.80027557450E+02 0.  0.
         25    2    1    2    0    0  0.12897610862E+03 -0.36441086343E+02 -0.32955497801E+03  0.37711618395E+03  0.12508934127E+03 0.  0.
         24    2    1    2    0    0 -0.69721257268E+02 -0.93883683549E+01  0.85368424406E+02  0.13688144329E+03  0.80619888721E+02 0.  0.
        -13    1    5    5    0    0  0.22108422909E+01  0.24196495915E+02  0.35881289181E+02  0.43333879950E+02  0.00000000000E+00 0.  1.
         14    1    5    5    0    0 -0.71932099559E+02 -0.33584864270E+02  0.49487135225E+02  0.93547563345E+02  0.00000000000E+00 0. -1.
         13    1    3    3    0    0 -0.79564785757E+01 -0.92115184477E+01  0.32558327986E+00  0.12176355280E+02  0.00000000000E+00 0. -1.
        -14    1    3    3    0    0 -0.51298372774E+02  0.55040973145E+02 -0.23687057790E+03  0.24853310131E+03  0.00000000000E+00 0.  1.
          5    1    4    4  501    0  0.76229592251E+02 -0.72157493001E+02 -0.12741575642E+03  0.16513601035E+03  0.41800000000E+01 0. -1.
         -5    1    4    4    0  501  0.52746516367E+02  0.35716406658E+02 -0.20213922160E+03  0.21198017360E+03  0.41800000000E+01 0. -1.
</event>
<event>
11    1  0.8453735E-009  0.1518496E+03  0.7561462E-02  0.1095004E+00
         22   -1    0    0    0    0  0.00000000000E+00  0.00000000000E+00  0.11497366085E+04  0.11497366085E+04  0.00000000000E+00 0.  1.
         22   -1    0    0    0    0 -0.00000000000E+00 -0.00000000000E+00 -0.32561242792E+02  0.32561242792E+02  0.00000000000E+00 0. -1.
        -24    2    1    2    0    0  0.77137916653E+01 -0.56282079840E+01  0.11489935890E+03  0.14250517528E+03  0.83753704386E+02 0.  0.
         25    2    1    2    0    0 -0.69023645213E+02 -0.53868316648E+02  0.47375299791E+03  0.49775112224E+03  0.12509283565E+03 0.  0.
         24    2    1    2    0    0  0.61309853548E+02  0.59496524632E+02  0.52852300893E+03  0.54204155380E+03  0.84697936765E+02 0.  0.
        -11    1    5    5    0    0  0.30838240932E+02  0.76667233999E+02  0.31430401638E+03  0.32498596367E+03  0.00000000000E+00 0.  1.
         12    1    5    5    0    0  0.30471612616E+02 -0.17170709367E+02  0.21421899256E+03  0.21705559013E+03  0.00000000000E+00 0. -1.
         13    1    3    3    0    0  0.14965219820E+02 -0.19435289420E+02 -0.19620966257E+01  0.24607683805E+02  0.00000000000E+00 0. -1.
        -14    1    3    3    0    0 -0.72514281543E+01  0.13807081436E+02  0.11686145552E+03  0.11789749147E+03  0.00000000000E+00 0.  1.
          5    1    4    4  501    0  0.32549903232E+02 -0.30924133504E+02  0.99159234682E+02  0.10893036517E+03  0.41800000000E+01 0.  1.
         -5    1    4    4    0  501 -0.10157354844E+03 -0.22944183144E+02  0.37459376323E+03  0.38882075707E+03  0.41800000000E+01 0.  1.
</event>
<event>
11    1  0.8453735E-009  0.2151457E+03  0.7561462E-02  0.1044302E+00
         22   -1    0    0    0    0  0.00000000000E+00  0.00000000000E+00  0.14897742204E+04  0.14897742204E+04  0.00000000000E+00 0.  1.
         22   -1    0    0    0    0 -0.00000000000E+00 -0.00000000000E+00 -0.16570532484E+03  0.16570532484E+03  0.00000000000E+00 0.  1.
        -24    2    1    2    0    0  0.14035061100E+03 -0.39074497071E+02  0.16588984290E+02  0.16686237440E+03  0.79641366506E+02 0.  0.
         25    2    1    2    0    0 -0.22967824846E+03  0.86054163727E+02  0.13064403460E+03  0.30474776208E+03  0.12508364324E+03 0.  0.
         24    2    1    2    0    0  0.89327637452E+02 -0.46979666656E+02  0.11768358767E+04  0.11838694088E+04  0.80109802854E+02 0.  0.
        -13    1    5    5    0    0  0.28525260594E+02 -0.37427733574E+02  0.84918081997E+03  0.85048373925E+03  0.00000000000E+00 0.  1.
         14    1    5    5    0    0  0.60802376858E+02 -0.95519330824E+01  0.32765505669E+03  0.33338566951E+03  0.00000000000E+00 0. -1.
         13    1    3    3    0    0  0.12332323724E+03  0.47235447331E-01  0.10609261150E+02  0.12377875220E+03  0.00000000000E+00 0. -1.
        -14    1    3    3    0    0  0.17027373763E+02 -0.39121732518E+02  0.59797231398E+01  0.43083622193E+02  0.00000000000E+00 0.  1.
          5    1    4    4  501    0 -0.10236924290E+03  0.30832071145E+02  0.12673591187E+03  0.16586000802E+03  0.41800000000E+01 0. -1.
         -5    1    4    4    0  501 -0.12730900555E+03  0.55222092581E+02  0.39081227349E+01  0.13888775406E+03  0.41800000000E+01 0. -1.
</event>
<event>
11    1  0.8453735E-009  0.1459173E+03  0.7561462E-02  0.1101125E+00
         22   -1    0    0    0    0  0.00000000000E+00  0.00000000000E+00  0.17263459705E+04  0.17263459705E+04  0.00000000000E+00 0.  1.
         22   -1    0    0    0    0 -0.00000000000E+00 -0.00000000000E+00 -0.52265805577E+03  0.52265805577E+03  0.00000000000E+00 0.  1.
         24    2    1    2    0    0 -0.47184694617E+02 -0.57860186216E+02 -0.49233200705E+03  0.50456719047E+03  0.81382110942E+02 0.  0.
         25    2    1    2    0    0  0.65209812036E+02  0.70495897490E+02  0.24700729325E+03  0.29305622501E+03  0.12508939583E+03 0.  0.
        -24    2    1    2    0    0 -0.18025117419E+02 -0.12635711275E+02  0.14490126286E+04  0.14513806108E+04  0.79896893971E+02 0.  0.
        -11    1    3    3    0    0 -0.24523647259E+02 -0.74472055851E+02 -0.29486683125E+03  0.30511300291E+03  0.00000000000E+00 0.  1.
         12    1    3    3    0    0 -0.22661047359E+02  0.16611869635E+02 -0.19746517580E+03  0.19945418756E+03  0.00000000000E+00 0. -1.
         13    1    5    5    0    0 -0.99221581617E+00 -0.94320911818E+01  0.18742517798E+02  0.21005494750E+02  0.00000000000E+00 0. -1.
        -14    1    5    5    0    0 -0.17032901603E+02 -0.32036200928E+01  0.14302701108E+04  0.14303751161E+04  0.00000000000E+00 0.  1.
          5    1    4    4  501    0  0.61537992452E+02  0.90358472554E+02  0.11230869892E+03  0.15678741764E+03  0.41800000000E+01 0.  1.
         -5    1    4    4    0  501  0.36718195848E+01 -0.19862575064E+02  0.13469859433E+03  0.13626880737E+03  0.41800000000E+01 0.  1.
</event>
<event>
11    1  0.8453735E-009  0.1501601E+03  0.7561462E-02  0.1096715E+00
         22   -1    0    0    0    0  0.00000000000E+00  0.00000000000E+00  0.27755353361E+03  0.27755353361E+03  0.00000000000E+00 0. -1.
         22   -1    0    0    0    0 -0.00000000000E+00 -0.00000000000E+00 -0.27140985828E+03  0.27140985828E+03  0.00000000000E+00 0. -1.
         24    2    1    2    0    0 -0.75131255761E+02 -0.35121883787E+02 -0.17335237960E+03  0.20300207264E+03  0.65425848627E+02 0.  0.
         25    2    1    2    0    0  0.92499849227E+02 -0.36055116438E+01  0.13487346599E+02  0.15619700110E+03  0.12508546204E+03 0.  0.
        -24    2    1    2    0    0 -0.17368593466E+02  0.38727395431E+02  0.16600870833E+03  0.18976431815E+03  0.81548304742E+02 0.  0.
        -11    1    3    3    0    0 -0.24481211233E+02 -0.39614445381E+02 -0.44219391231E+02  0.64218288261E+02  0.00000000000E+00 0.  1.
         12    1    3    3    0    0 -0.50650044528E+02  0.44925615944E+01 -0.12913298837E+03  0.13878378438E+03  0.00000000000E+00 0. -1.
         11    1    5    5    0    0 -0.48791099927E+02  0.18499467674E+02  0.11720725144E+03  0.12829786252E+03  0.00000000000E+00 0. -1.
        -12    1    5    5    0    0  0.31422506462E+02  0.20227927756E+02  0.48801456890E+02  0.61466455634E+02  0.00000000000E+00 0.  1.
          5    1    4    4  501    0  0.22845194288E+02  0.50426046273E+02  0.34648420856E+02  0.65442146302E+02  0.41800000000E+01 0.  1.
         -5    1    4    4    0  501  0.69654654938E+02 -0.54031557917E+02 -0.21161074256E+02  0.90754854797E+02  0.41800000000E+01 0.  1.
</event>
<event>
11    1  0.8453735E-009  0.1303145E+03  0.7561462E-02  0.1118883E+00
         22   -1    0    0    0    0  0.00000000000E+00  0.00000000000E+00  0.11723465989E+04  0.11723465989E+04  0.00000000000E+00 0.  1.
         22   -1    0    0    0    0 -0.00000000000E+00 -0.00000000000E+00 -0.59979711815E+03  0.59979711815E+03  0.00000000000E+00 0. -1.
         24    2    1    2    0    0 -0.35875323227E+02 -0.49172009543E+01 -0.56226491974E+03  0.56923855174E+03  0.81113939225E+02 0.  0.
         25    2    1    2    0    0  0.53047160050E+02 -0.21730956742E+02  0.11501305404E+03  0.17933742245E+03  0.12509065842E+03 0.  0.
        -24    2    1    2    0    0 -0.17171836823E+02  0.26648157696E+02  0.10198013465E+04  0.10235677429E+04  0.81799399192E+02 0.  0.
        -13    1    3    3    0    0 -0.47150855571E+02  0.22823071625E+02 -0.24353917568E+03  0.24910926493E+03  0.00000000000E+00 0.  1.
         14    1    3    3    0    0  0.11275532344E+02 -0.27740272580E+02 -0.31872574405E+03  0.32012928681E+03  0.00000000000E+00 0. -1.
         11    1    5    5    0    0  0.32690348277E+02  0.12235165066E+02  0.48462539389E+03  0.48588077811E+03  0.00000000000E+00 0. -1.
        -12    1    5    5    0    0 -0.49862185101E+02  0.14412992629E+02  0.53517595256E+03  0.53768696475E+03  0.00000000000E+00 0.  1.
          5    1    4    4  501    0  0.42535153947E+02 -0.48056926060E+02  0.37262459594E+01  0.64420996364E+02  0.41800000000E+01 0.  1.
         -5    1    4    4    0  501  0.10512006102E+02  0.26325969318E+02  0.11128680808E+03  0.11491642609E+03  0.41800000000E+01 0.  1.
</event>
<event>
11    1  0.8453735E-009  0.1367136E+03  0.7561462E-02  0.1111285E+00
         22   -1    0    0    0    0  0.00000000000E+00  0.00000000000E+00  0.27247717309E+03  0.27247717309E+03  0.00000000000E+00 0. -1.
         22   -1    0    0    0    0 -0.00000000000E+00 -0.00000000000E+00 -0.25457148737E+03  0.25457148737E+03  0.00000000000E+00 0.  1.
         24    2    1    2    0    0 -0.54246204435E+02  0.17078420432E+02 -0.18763876227E+03  0.21180655729E+03  0.80121092494E+02 0.  0.
         25    2    1    2    0    0  0.47568729397E+02  0.36941492598E+02  0.99618563887E+02  0.17087545964E+03  0.12508839492E+03 0.  0.
        -24    2    1    2    0    0  0.66774750384E+01 -0.54019913030E+02  0.10592588410E+03  0.14436664353E+03  0.81600828218E+02 0.  0.
        -11    1    3    3    0    0 -0.65482005098E+02  0.79452398491E+01 -0.82274117871E+02  0.10545164911E+03  0.00000000000E+00 0.  1.
         12    1    3    3    0    0  0.11235800663E+02  0.91331805830E+01 -0.10536464440E+03  0.10635490818E+03  0.00000000000E+00 0. -1.
         11    1    5    5    0    0 -0.85299976844E+01 -0.61005535042E+01  0.91450230462E+02  0.92049564177E+02  0.00000000000E+00 0. -1.
        -12    1    5    5    0    0  0.15207472723E+02 -0.47919359526E+02  0.14475653636E+02  0.52317079355E+02  0.00000000000E+00 0.  1.
          5    1    4    4  501    0 -0.31477731217E+02 -0.14750370049E+02  0.57625595814E+02  0.67428500444E+02  0.41800000000E+01 0. -1.
         -5    1    4    4    0  501  0.79046460614E+02  0.51691862648E+02  0.41992968073E+02  0.10344695920E+03  0.41800000000E+01 0. -1.
</event>
<event>
11    1  0.8453735E-009  0.3195740E+03  0.7561462E-02  0.9922313E-01
         22   -1    0    0    0    0  0.00000000000E+00  0.00000000000E+00  0.53922399227E+03  0.53922399227E+03  0.00000000000E+00 0. -1.
         22   -1    0    0    0    0 -0.00000000000E+00 -0.00000000000E+00 -0.49987164627E+03  0.49987164627E+03  0.00000000000E+00 0. -1.
         24    2    1    2    0    0 -0.16428795211E+03 -0.23208439626E+03 -0.28494180010E+03  0.41094389257E+03  0.82639912877E+02 0.  0.
         25    2    1    2    0    0  0.26020412066E+03  0.25208971789E+03  0.31834999922E+03  0.49824719986E+03  0.12509252530E+03 0.  0.
        -24    2    1    2    0    0 -0.95916168552E+02 -0.20005321630E+02  0.59441468811E+01  0.12990454612E+03  0.85086626071E+02 0.  0.
        -11    1    3    3    0    0 -0.82165637897E+02 -0.12262414047E+03 -0.20451090138E+03  0.25221534581E+03  0.00000000000E+00 0.  1.
         12    1    3    3    0    0 -0.82122314209E+02 -0.10946025578E+03 -0.80430898724E+02  0.15872854676E+03  0.00000000000E+00 0. -1.
         11    1    5    5    0    0 -0.22197458917E+01  0.14460232344E+01 -0.27880539839E+02  0.28006119987E+02  0.00000000000E+00 0. -1.
        -12    1    5    5    0    0 -0.93696422660E+02 -0.21451344864E+02  0.33824686720E+02  0.10189842613E+03  0.00000000000E+00 0.  1.
          5    1    4    4  501    0  0.18611609225E+03  0.16689799200E+03  0.28775078480E+03  0.38119827660E+03  0.41800000000E+01 0. -1.
         -5    1    4    4    0  501  0.74088028404E+02  0.85191725883E+02  0.30599214424E+02  0.11704892325E+03  0.41800000000E+01 0. -1.
</event>
<event>
11    1  0.8453735E-009  0.1677245E+03  0.7561462E-02  0.1080029E+00
         22   -1    0    0    0    0  0.00000000000E+00  0.00000000000E+00  0.16438742052E+04  0.16438742052E+04  0.00000000000E+00 0.  1.
         22   -1    0    0    0    0 -0.00000000000E+00 -0.00000000000E+00 -0.59206414210E+03  0.59206414210E+03  0.00000000000E+00 0.  1.
         24    2    1    2    0    0  0.10909639148E+03  0.22557203366E+02 -0.57079308257E+03  0.58703200196E+03  0.79943593592E+02 0.  0.
         25    2    1    2    0    0 -0.14851616698E+03 -0.17408218801E+02  0.90349961921E+03  0.92429351731E+03  0.12508735465E+03 0.  0.
        -24    2    1    2    0    0  0.39419775497E+02 -0.51489845656E+01  0.71910352651E+03  0.72461282807E+03  0.79833815046E+02 0.  0.
        -11    1    3    3    0    0  0.93873499489E+02  0.17955441510E+02 -0.55930781021E+03  0.56741506708E+03  0.00000000000E+00 0.  1.
         12    1    3    3    0    0  0.15222891995E+02  0.46017618560E+01 -0.11485272356E+02  0.19616934877E+02  0.00000000000E+00 0. -1.
         11    1    5    5    0    0  0.21056317565E+02 -0.34210140175E+02  0.18062445994E+03  0.18503755762E+03  0.00000000000E+00 0. -1.
        -12    1    5    5    0    0  0.18363457932E+02  0.29061155609E+02  0.53847906656E+03  0.53957527045E+03  0.00000000000E+00 0.  1.
          5    1    4    4  501    0 -0.15729117468E+03 -0.41680064831E+02  0.67715862772E+03  0.69644742870E+03  0.41800000000E+01 0.  1.
         -5    1    4    4    0  501  0.87750076994E+01  0.24271846030E+02  0.22634099149E+03  0.22784608861E+03  0.41800000000E+01 0.  1.
</event>
<event>
11    1  0.8453735E-009  0.1793043E+03  0.7561462E-02  0.1070207E+00
         22   -1    0    0    0    0  0.00000000000E+00  0.00000000000E+00  0.14633012500E+03  0.14633012500E+03  0.00000000000E+00 0.  1.
         22   -1    0    0    0    0 -0.00000000000E+00 -0.00000000000E+00 -0.63904700965E+03  0.63904700965E+03  0.00000000000E+00 0.  1.
         24    2    1    2    0    0  0.59036175092E+02  0.12126251720E+03 -0.51455377681E+03  0.53756061309E+03  0.77562590631E+02 0.  0.
         25    2    1    2    0    0 -0.39855300965E+02 -0.75629662425E+02  0.29126428086E+01  0.15153935213E+03  0.12508957151E+03 0.  0.
        -24    2    1    2    0    0 -0.19180874127E+02 -0.45632854775E+02  0.18924249359E+02  0.96277169431E+02  0.80379741059E+02 0.  0.
        -13    1    3    3    0    0 -0.13449341109E+02  0.45840191576E+02 -0.21573144070E+03  0.22095760328E+03  0.00000000000E+00 0.  1.
         14    1    3    3    0    0  0.72485516200E+02  0.75422325624E+02 -0.29882233611E+03  0.31660300981E+03  0.00000000000E+00 0. -1.
         11    1    5    5    0    0 -0.36444710805E+02 -0.46004498595E+02 -0.12879913198E+02  0.60087627684E+02  0.00000000000E+00 0. -1.
        -12    1    5    5    0    0  0.17263836678E+02  0.37164381998E+00  0.31804162557E+02  0.36189541748E+02  0.00000000000E+00 0.  1.
          5    1    4    4  501    0 -0.79568148861E+02 -0.19661581691E+02  0.87798686542E+01  0.82536213879E+02  0.41800000000E+01 0. -1.
         -5    1    4    4    0  501  0.39712847897E+02 -0.55968080733E+02 -0.58672258456E+01  0.69003138249E+02  0.41800000000E+01 0. -1.
</event>
<event>
11    1  0.8453735E-009  0.1302723E+03  0.7561462E-02  0.1118935E+00
         22   -1    0    0    0    0  0.00000000000E+00  0.00000000000E+00  0.19404997434E+03  0.19404997434E+03  0.00000000000E+00 0. -1.
         22   -1    0    0    0    0 -0.00000000000E+00 -0.00000000000E+00 -0.12833260115E+04  0.12833260115E+04  0.00000000000E+00 0.  1.
         24    2    1    2    0    0 -0.18688138541E+02 -0.18022470468E+02 -0.12134648975E+04  0.12164155982E+04  0.80596488658E+02 0.  0.
         25    2    1    2    0    0 -0.18163668740E+02  0.30868733811E+02  0.35647775403E+02  0.13491257473E+03  0.12509133199E+03 0.  0.
        -24    2    1    2    0    0  0.36851807282E+02 -0.12846263343E+02  0.88541085002E+02  0.12604781290E+03  0.80780227913E+02 0.  0.
        -11    1    3    3    0    0  0.23387056510E+02 -0.32070895174E+02 -0.64712889963E+03  0.64834505433E+03  0.00000000000E+00 0.  1.
         12    1    3    3    0    0 -0.42075195051E+02  0.14048424706E+02 -0.56633599790E+03  0.56807054385E+03  0.00000000000E+00 0. -1.
         11    1    5    5    0    0  0.62309865562E+02 -0.88074706134E+01  0.70972962685E+02  0.94853847140E+02  0.00000000000E+00 0. -1.
        -12    1    5    5    0    0 -0.25458058280E+02 -0.40387927296E+01  0.17568122317E+02  0.31193965760E+02  0.00000000000E+00 0.  1.
          5    1    4    4  501    0  0.27381813801E+02 -0.33759406392E+02 -0.81628554585E+01  0.44424833778E+02  0.41800000000E+01 0. -1.
         -5    1    4    4    0  501 -0.45545482542E+02  0.64628140203E+02  0.43810630862E+02  0.90487740952E+02  0.41800000000E+01 0. -1.
</event>
<event>
11    1  0.8453735E-009  0.1519663E+03  0.7561462E-02  0.1094886E+00
         22   -1    0    0    0    0  0.00000000000E+00  0.00000000000E+00  0.20106642490E+04  0.20106642490E+04  0.00000000000E+00 0. -1.
         22   -1    0    0    0    0 -0.00000000000E+00 -0.00000000000E+00 -0.29496553922E+03  0.29496553922E+03  0.00000000000E+00 0. -1.
         24    2    1    2    0    0 -0.82623312833E+02  0.23837898864E+01 -0.20654529147E+03  0.23661712104E+03  0.80587903954E+02 0.  0.
         25    2    1    2    0    0  0.11038364854E+03  0.31010025069E+02  0.27357039448E+02  0.17188046903E+03  0.12509323126E+03 0.  0.
        -24    2    1    2    0    0 -0.27760335707E+02 -0.33393814955E+02  0.18948869618E+04  0.18971321981E+04  0.81413734460E+02 0.  0.
        -13    1    3    3    0    0 -0.73144800631E+02 -0.22358074548E+02 -0.94974252353E+02  0.12194324076E+03  0.00000000000E+00 0.  1.
         14    1    3    3    0    0 -0.94785122016E+01  0.24741864434E+02 -0.11157103912E+03  0.11467388028E+03  0.00000000000E+00 0. -1.
         13    1    5    5    0    0 -0.55483840323E+02 -0.18801568204E+02  0.14237395028E+04  0.14249442541E+04  0.00000000000E+00 0. -1.
        -14    1    5    5    0    0  0.27723504616E+02 -0.14592246751E+02  0.47114745899E+03  0.47218794403E+03  0.00000000000E+00 0.  1.
          5    1    4    4  501    0 -0.21391246549E+02  0.22868584333E+02 -0.12395093922E+02  0.33936239209E+02  0.41800000000E+01 0.  1.
         -5    1    4    4    0  501  0.13177489509E+03  0.81414407357E+01  0.39752133369E+02  0.13794422982E+03  0.41800000000E+01 0.  1.
</event>
<event>
11    1  0.8453735E-009  0.2477012E+03  0.7561462E-02  0.1025131E+00
         22   -1    0    0    0    0  0.00000000000E+00  0.00000000000E+00  0.21607407495E+04  0.21607407495E+04  0.00000000000E+00 0.  1.
         22   -1    0    0    0    0 -0.00000000000E+00 -0.00000000000E+00 -0.34459815349E+03  0.34459815349E+03  0.00000000000E+00 0.  1.
        -24    2    1    2    0    0 -0.14773494749E+02  0.21451891766E+03 -0.26525846437E+03  0.35120307540E+03  0.82127492777E+02 0.  0.
         25    2    1    2    0    0 -0.17742350585E+03 -0.19993270289E+03  0.73811375915E+03  0.79492914490E+03  0.12509291690E+03 0.  0.
         24    2    1    2    0    0  0.19219700060E+03 -0.14586214772E+02  0.13432873013E+04  0.13592066827E+04  0.76613235774E+02 0.  0.
        -13    1    5    5    0    0 -0.34195069154E+01  0.37657160672E+01  0.75930286305E+01  0.91393505692E+01  0.00000000000E+00 0.  1.
         14    1    5    5    0    0  0.19561650752E+03 -0.18351930839E+02  0.13356942726E+04  0.13500673321E+04  0.00000000000E+00 0. -1.
         11    1    3    3    0    0 -0.48952123226E+01  0.20875947804E+02  0.14176973722E+01  0.21489024320E+02  0.00000000000E+00 0. -1.
        -12    1    3    3    0    0 -0.98782824265E+01  0.19364296986E+03 -0.26667616174E+03  0.32971405108E+03  0.00000000000E+00 0.  1.
          5    1    4    4  501    0  0.35345114334E+01 -0.42659375025E+02  0.21799680268E+03  0.22219899510E+03  0.41800000000E+01 0.  1.
         -5    1    4    4    0  501 -0.18095801729E+03 -0.15727332786E+03  0.52011695647E+03  0.57273014980E+03  0.41800000000E+01 0.  1.
</event>
<event>
11    1  0.8453735E-009  0.1642963E+03  0.7561462E-02  0.1083105E+00
         22   -1    0    0    0    0  0.00000000000E+00  0.00000000000E+00  0.31802575976E+03  0.31802575976E+03  0.00000000000E+00 0. -1.
         22   -1    0    0    0    0 -0.00000000000E+00 -0.00000000000E+00 -0.58638098536E+03  0.58638098536E+03  0.00000000000E+00 0.  1.
        -24    2    1    2    0    0  0.11401087295E+03  0.95352178362E+01 -0.39422598806E+03  0.41838955164E+03  0.80909132522E+02 0.  0.
         25    2    1    2    0    0 -0.83656449907E+02 -0.16362453646E+02 -0.14051473739E+03  0.20655311966E+03  0.12511462071E+03 0.  0.
         24    2    1    2    0    0 -0.30354423046E+02  0.68272358100E+01  0.26638549985E+03  0.27946407382E+03  0.78555279140E+02 0.  0.
        -13    1    5    5    0    0  0.15502688880E+02 -0.13463963614E+02  0.22434479862E+02  0.30412457404E+02  0.00000000000E+00 0.  1.
         14    1    5    5    0    0 -0.45857111925E+02  0.20291199424E+02  0.24395101999E+03  0.24905161642E+03  0.00000000000E+00 0. -1.
         11    1    3    3    0    0  0.78557814160E+02 -0.32263823768E+02 -0.25464282904E+03  0.26843109893E+03  0.00000000000E+00 0. -1.
        -12    1    3    3    0    0  0.35453058793E+02  0.41799041604E+02 -0.13958315902E+03  0.14995845271E+03  0.00000000000E+00 0.  1.
          5    1    4    4  501    0  0.17995395967E+01  0.24408129816E+02 -0.10076555656E+03  0.10377940515E+03  0.41800000000E+01 0.  1.
         -5    1    4    4    0  501 -0.85455989504E+02 -0.40770583462E+02 -0.39749180834E+02  0.10277371451E+03  0.41800000000E+01 0.  1.
</event>
<event>
11    1  0.8453735E-009  0.1494378E+03  0.7561462E-02  0.1097455E+00
         22   -1    0    0    0    0  0.00000000000E+00  0.00000000000E+00  0.14909687520E+04  0.14909687520E+04  0.00000000000E+00 0.  1.
         22   -1    0    0    0    0 -0.00000000000E+00 -0.00000000000E+00 -0.26280471403E+03  0.26280471403E+03  0.00000000000E+00 0.  1.
        -24    2    1    2    0    0  0.78882689318E+02 -0.18680496502E+02 -0.22387818009E+03  0.25397774317E+03  0.88384471941E+02 0.  0.
         25    2    1    2    0    0 -0.10455282708E+03 -0.27214488545E+02  0.28998059236E+03  0.33377767614E+03  0.12508745383E+03 0.  0.
         24    2    1    2    0    0  0.25670137764E+02  0.45894985047E+02  0.11620616257E+04  0.11660180467E+04  0.80284230953E+02 0.  0.
        -13    1    5    5    0    0  0.32676100319E+02  0.30781470467E+02  0.11181817123E+04  0.11190824671E+04  0.00000000000E+00 0.  1.
         14    1    5    5    0    0 -0.70059625548E+01  0.15113514580E+02  0.43879913372E+02  0.46935579594E+02  0.00000000000E+00 0. -1.
         13    1    3    3    0    0  0.23314669695E+02  0.33774168738E+02 -0.10412624239E+03  0.11192203827E+03  0.00000000000E+00 0. -1.
        -14    1    3    3    0    0  0.55568019623E+02 -0.52454665240E+02 -0.11975193771E+03  0.14205570490E+03  0.00000000000E+00 0.  1.
          5    1    4    4  501    0 -0.14442971572E+02 -0.49342227035E+02  0.34811490244E+02  0.62229952994E+02  0.41800000000E+01 0.  1.
         -5    1    4    4    0  501 -0.90109855510E+02  0.22127738490E+02  0.25516910211E+03  0.27154772314E+03  0.41800000000E+01 0.  1.
</event>
<event>
11    1  0.8453735E-009  0.1262368E+03  0.7561462E-02  0.1123981E+00
         22   -1    0    0    0    0  0.00000000000E+00  0.00000000000E+00  0.23986967277E+03  0.23986967277E+03  0.00000000000E+00 0. -1.
         22   -1    0    0    0    0 -0.00000000000E+00 -0.00000000000E+00 -0.15228949245E+03  0.15228949245E+03  0.00000000000E+00 0.  1.
        -24    2    1    2    0    0 -0.22611274127E+02 -0.70721287730E+01 -0.67686953764E+02  0.11208858732E+03  0.86145475642E+02 0.  0.
         25    2    1    2    0    0 -0.14633071484E+02  0.12324167119E+02  0.36931895048E+02  0.13182715576E+03  0.12509365391E+03 0.  0.
         24    2    1    2    0    0  0.37244345612E+02 -0.52520383457E+01  0.11833523903E+03  0.14824342214E+03  0.80982456278E+02 0.  0.
        -13    1    5    5    0    0  0.16207439841E+01  0.31445787453E+02  0.19715548940E+02  0.37150602009E+02  0.00000000000E+00 0.  1.
         14    1    5    5    0    0  0.35623601628E+02 -0.36697825799E+02  0.98619690090E+02  0.11109282013E+03  0.00000000000E+00 0. -1.
         13    1    3    3    0    0 -0.33996569969E+02 -0.36106947144E+02 -0.16718139577E+02  0.52335213696E+02  0.00000000000E+00 0. -1.
        -14    1    3    3    0    0  0.11385295842E+02  0.29034818371E+02 -0.50968814187E+02  0.59753373619E+02  0.00000000000E+00 0.  1.
          5    1    4    4  501    0 -0.50934803654E+02  0.50970021863E+02  0.30101327910E+02  0.78203962137E+02  0.41800000000E+01 0. -1.
         -5    1    4    4    0  501  0.36301732169E+02 -0.38645854745E+02  0.68305671383E+01  0.53623193628E+02  0.41800000000E+01 0. -1.
</event>
<event>
11    1  0.8453735E-009  0.3601564E+03  0.7561462E-02  0.9775234E-01
         22   -1    0    0    0    0  0.00000000000E+00  0.00000000000E+00  0.57870627709E+03  0.57870627709E+03  0.00000000000E+00 0.  1.
         22   -1    0    0    0    0 -0.00000000000E+00 -0.00000000000E+00 -0.42785882495E+03  0.42785882495E+03  0.00000000000E+00 0. -1.
         24    2    1    2    0    0 -0.34638637529E+03 -0.94305886623E+02  0.21803784452E+03  0.42859987221E+03  0.85324249672E+02 0.  0.
         25    2    1    2    0    0  0.33459959399E+03 -0.20028159510E+02 -0.17759153394E+03  0.39943012238E+03  0.12509058426E+03 0.  0.
        -24    2    1    2    0    0  0.11786781299E+02  0.11433404613E+03  0.11040114156E+03  0.17853510744E+03  0.80468442337E+02 0.  0.
        -11    1    3    3    0    0 -0.10652454683E+03  0.48094124889E+01  0.88294514708E+02  0.13844324055E+03  0.00000000000E+00 0.  1.
         12    1    3    3    0    0 -0.23986182845E+03 -0.99115299112E+02  0.12974332981E+03  0.29015663166E+03  0.00000000000E+00 0. -1.
         11    1    5    5    0    0 -0.15313771443E+01 -0.45054920328E+01 -0.86006562163E+01  0.98293367918E+01  0.00000000000E+00 0. -1.
        -12    1    5    5    0    0  0.13318158444E+02  0.11883953817E+03  0.11900179778E+03  0.16870577065E+03  0.00000000000E+00 0.  1.
          5    1    4    4  501    0  0.29083006468E+02 -0.40310680189E+02 -0.38956885477E+02  0.63292049490E+02  0.41800000000E+01 0. -1.
         -5    1    4    4    0  501  0.30551658752E+03  0.20282520678E+02 -0.13863464846E+03  0.33613807289E+03  0.41800000000E+01 0. -1.
</event>
<event>
11    1  0.8453735E-009  0.1352484E+03  0.7561462E-02  0.1112983E+00
         22   -1    0    0    0    0  0.00000000000E+00  0.00000000000E+00  0.78584260099E+03  0.78584260099E+03  0.00000000000E+00 0. -1.
         22   -1    0    0    0    0 -0.00000000000E+00 -0.00000000000E+00 -0.13486628078E+03  0.13486628078E+03  0.00000000000E+00 0.  1.
        -24    2    1    2    0    0 -0.32284929584E+02  0.39656547599E+02 -0.96946491018E+02  0.13679004595E+03  0.81840919505E+02 0.  0.
         25    2    1    2    0    0  0.41037859350E+02 -0.39143327156E+02  0.31236035767E+03  0.34122144897E+03  0.12508708258E+03 0.  0.
         24    2    1    2    0    0 -0.87529297654E+01 -0.51322044279E+00  0.43556245355E+03  0.44269738686E+03  0.78673046269E+02 0.  0.
        -11    1    5    5    0    0 -0.45926599467E+01  0.20728143298E+02  0.31097739339E+02  0.37653922000E+02  0.00000000000E+00 0.  1.
         12    1    5    5    0    0 -0.41602698187E+01 -0.21241363741E+02  0.40446471421E+03  0.40504346486E+03  0.00000000000E+00 0. -1.
         11    1    3    3    0    0 -0.46148197828E+02  0.39234938665E+02 -0.28481900175E+02  0.66934708578E+02  0.00000000000E+00 0. -1.
        -12    1    3    3    0    0  0.13863268244E+02  0.42160893345E+00 -0.68464590843E+02  0.69855337375E+02  0.00000000000E+00 0.  1.
          5    1    4    4  501    0 -0.10268660656E+02 -0.61203884208E+01 -0.80635098639E+01  0.15013232078E+02  0.41800000000E+01 0.  1.
         -5    1    4    4    0  501  0.51306520006E+02 -0.33022938735E+02  0.32042386754E+03  0.32620821689E+03  0.41800000000E+01 0.  1.
</event>
<event>
11    1  0.8453735E-009  0.1803041E+03  0.7561462E-02  0.1069397E+00
         22   -1    0    0    0    0  0.00000000000E+00  0.00000000000E+00  0.53693101540E+03  0.53693101540E+03  0.00000000000E+00 0.  1.
         22   -1    0    0    0    0 -0.00000000000E+00 -0.00000000000E+00 -0.11944451782E+03  0.11944451782E+03  0.00000000000E+00 0.  1.
        -24    2    1    2    0    0  0.94278345263E+01 -0.32326124226E+02  0.69459716304E+01  0.88362748597E+02  0.81399425345E+02 0.  0.
         25    2    1    2    0    0 -0.24551114618E+01  0.15536511810E+03  0.97132428032E+02  0.22186965044E+03  0.12508831167E+03 0.  0.
         24    2    1    2    0    0 -0.69727230645E+01 -0.12303899388E+03  0.31340809792E+03  0.34614313419E+03  0.80020126353E+02 0.  0.
        -13    1    5    5    0    0 -0.30482037834E+02 -0.11237174339E+03  0.21612118218E+03  0.24548916215E+03  0.00000000000E+00 0.  1.
         14    1    5    5    0    0  0.23509314769E+02 -0.10667250487E+02  0.97286915738E+02  0.10065397204E+03  0.00000000000E+00 0. -1.
         11    1    3    3    0    0 -0.23436068565E+02 -0.10632714806E+01 -0.23915185978E+02  0.33500984708E+02  0.00000000000E+00 0. -1.
        -12    1    3    3    0    0  0.32863903091E+02 -0.31262852745E+02  0.30861157609E+02  0.54861763890E+02  0.00000000000E+00 0.  1.
          5    1    4    4  501    0 -0.65528250499E+00  0.10107017309E+03  0.12489177757E+03  0.16072037141E+03  0.41800000000E+01 0.  1.
         -5    1    4    4    0  501 -0.17998289568E+01  0.54294945019E+02 -0.27759349539E+02  0.61149279028E+02  0.41800000000E+01 0.  1.
</event>
<event>
11    1  0.8453735E-009  0.1355588E+03  0.7561462E-02  0.1112622E+00
         22   -1    0    0    0    0  0.00000000000E+00  0.00000000000E+00  0.49113619476E+02  0.49113619476E+02  0.00000000000E+00 0. -1.
         22   -1    0    0    0    0 -0.00000000000E+00 -0.00000000000E+00 -0.15880647342E+04  0.15880647342E+04  0.00000000000E+00 0. -1.
        -24    2    1    2    0    0  0.29020910022E+02  0.38470343661E+02 -0.12943101003E+04  0.12976163403E+04  0.79040181481E+02 0.  0.
         25    2    1    2    0    0  0.24819876478E+02  0.68341153011E+01 -0.15545580895E+03  0.20118843115E+03  0.12509014707E+03 0.  0.
         24    2    1    2    0    0 -0.53840786500E+02 -0.45304458962E+02 -0.89185205411E+02  0.13837358217E+03  0.79005842097E+02 0.  0.
        -11    1    5    5    0    0  0.20443816961E+02 -0.15854769150E+02 -0.22905619845E+02  0.34554171633E+02  0.00000000000E+00 0.  1.
         12    1    5    5    0    0 -0.74284603461E+02 -0.29449689811E+02 -0.66279585566E+02  0.10381941054E+03  0.00000000000E+00 0. -1.
         13    1    3    3    0    0  0.24475272486E+01 -0.51735472559E+01 -0.89891675878E+03  0.89893497829E+03  0.00000000000E+00 0. -1.
        -14    1    3    3    0    0  0.26573382773E+02  0.43643890917E+02 -0.39539334154E+03  0.39868136202E+03  0.00000000000E+00 0.  1.
          5    1    4    4  501    0  0.40166005612E+02  0.17517087781E+02 -0.17096332275E+03  0.17653919253E+03  0.41800000000E+01 0. -1.
         -5    1    4    4    0  501 -0.15346129134E+02 -0.10682972480E+02  0.15507513804E+02  0.24649238625E+02  0.41800000000E+01 0. -1.
</event>
<event>
11    1  0.8453735E-009  0.1420326E+03  0.7561462E-02  0.1105310E+00
         22   -1    0    0    0    0  0.00000000000E+00  0.00000000000E+00  0.26493724363E+03  0.26493724363E+03  0.00000000000E+00 0.  1.
         22   -1    0    0    0    0 -0.00000000000E+00 -0.00000000000E+00 -0.19647249077E+04  0.19647249077E+04  0.00000000000E+00 0.  1.
        -24    2    1    2    0    0 -0.37545262967E+02 -0.22105095883E+01 -0.17871563367E+04  0.17894090967E+04  0.81502211603E+02 0.  0.
         25    2    1    2    0    0  0.10278463606E+02  0.64689124160E+02 -0.13322806724E+03  0.19413131667E+03  0.12508765171E+03 0.  0.
         24    2    1    2    0    0  0.27266799362E+02 -0.62478614571E+02  0.22059673981E+03  0.24612173800E+03  0.85240440384E+02 0.  0.
        -13    1    5    5    0    0 -0.15935271935E+02 -0.63800299755E+01  0.13004796579E+03  0.13117587842E+03  0.00000000000E+00 0.  1.
         14    1    5    5    0    0  0.43202071296E+02 -0.56098584596E+02  0.90548774018E+02  0.11494585958E+03  0.00000000000E+00 0. -1.
         13    1    3    3    0    0 -0.17745663157E+02 -0.41562526786E+02 -0.10007342619E+04  0.10017541690E+04  0.00000000000E+00 0. -1.
        -14    1    3    3    0    0 -0.19799599810E+02  0.39352017198E+02 -0.78642207481E+03  0.78765492772E+03  0.00000000000E+00 0.  1.
          5    1    4    4  501    0  0.51060969863E+02  0.19460061299E+02 -0.11963840039E+03  0.13159306926E+03  0.41800000000E+01 0.  1.
         -5    1    4    4    0  501 -0.40782506257E+02  0.45229062860E+02 -0.13589666856E+02  0.62538247409E+02  0.41800000000E+01 0.  1.
</event>
<event>
11    1  0.8453735E-009  0.1532647E+03  0.7561462E-02  0.1093589E+00
         22   -1    0    0    0    0  0.00000000000E+00  0.00000000000E+00  0.20205551135E+03  0.20205551135E+03  0.00000000000E+00 0.  1.
         22   -1    0    0    0    0 -0.00000000000E+00 -0.00000000000E+00 -0.98078394380E+03  0.98078394380E+03  0.00000000000E+00 0.  1.
        -24    2    1    2    0    0 -0.48152732067E+02 -0.24383616967E+02 -0.87473071700E+03  0.88038720150E+03  0.83752915844E+02 0.  0.
         25    2    1    2    0    0  0.41167597897E+02  0.10453735656E+03  0.32284609831E+02  0.17120620137E+03  0.12508571989E+03 0.  0.
         24    2    1    2    0    0  0.69851341705E+01 -0.80153739596E+02  0.63717674721E+02  0.13124605229E+03  0.81805685009E+02 0.  0.
        -13    1    5    5    0    0  0.24876481412E+02 -0.90597193654E+02  0.50358427946E+02  0.10659578833E+03  0.00000000000E+00 0.  1.
         14    1    5    5    0    0 -0.17891347242E+02  0.10443454058E+02  0.13359246775E+02  0.24650263958E+02  0.00000000000E+00 0. -1.
         11    1    3    3    0    0 -0.13050154327E+02  0.18094206203E+02 -0.63831507487E+02  0.67617809593E+02  0.00000000000E+00 0. -1.
        -12    1    3    3    0    0 -0.35102577740E+02 -0.42477823170E+02 -0.81089920951E+03  0.81276939190E+03  0.00000000000E+00 0.  1.
          5    1    4    4  501    0  0.71140250126E+02  0.30952216171E+02  0.46259144174E+02  0.90423203292E+02  0.41800000000E+01 0.  1.
         -5    1    4    4    0  501 -0.29972652229E+02  0.73585140391E+02 -0.13974534342E+02  0.80782998076E+02  0.41800000000E+01 0.  1.
</event>
<event>
11    1  0.8453735E-009  0.2119398E+03  0.7561462E-02  0.1046387E+00
         22   -1    0    0    0    0  0.00000000000E+00  0.00000000000E+00  0.67437997640E+03  0.67437997640E+03  0.00000000000E+00 0. -1.
         22   -1    0    0    0    0 -0.00000000000E+00 -0.00000000000E+00 -0.18646200905E+03  0.18646200905E+03  0.00000000000E+00 0. -1.
        -24    2    1    2    0    0 -0.12409190479E+03 -0.47452201397E+02  0.32985648538E+01  0.15699165644E+03  0.83576237114E+02 0.  0.
         25    2    1    2    0    0  0.26070000540E+03 -0.18226442010E+02  0.15227579648E+03  0.32731014991E+03  0.12508924829E+03 0.  0.
         24    2    1    2    0    0 -0.13660810060E+03  0.65678643407E+02  0.33234360600E+03  0.37654017910E+03  0.91404467472E+02 0.  0.
        -11    1    5    5    0    0 -0.12984101759E+02  0.50858302998E+02  0.99820819706E+02  0.11278009545E+03  0.00000000000E+00 0.  1.
         12    1    5    5    0    0 -0.12362399885E+03  0.14820340409E+02  0.23252278630E+03  0.26376008365E+03  0.00000000000E+00 0. -1.
         11    1    3    3    0    0 -0.11020504364E+03 -0.68845542636E+02  0.10844555719E+02  0.13039349974E+03  0.00000000000E+00 0. -1.
        -12    1    3    3    0    0 -0.13886861148E+02  0.21393341239E+02 -0.75459908649E+01  0.26598156704E+02  0.00000000000E+00 0.  1.
          5    1    4    4  501    0  0.19930844567E+03 -0.84763893245E+01  0.47019402279E+02  0.20499756653E+03  0.41800000000E+01 0.  1.
         -5    1    4    4    0  501  0.61391559728E+02 -0.97500526855E+01  0.10525639421E+03  0.12231258338E+03  0.41800000000E+01 0.  1.
</event>
<event>
11    1  0.8453735E-009  0.1695484E+03  0.7561462E-02  0.1078425E+00
         22   -1    0    0    0    0  0.00000000000E+00  0.00000000000E+00  0.88616648854E+03  0.88616648854E+03  0.00000000000E+00 0. -1.
         22   -1    0    0    0    0 -0.00000000000E+00 -0.00000000000E+00 -0.61994405047E+03  0.61994405047E+03  0.00000000000E+00 0. -1.
         24    2    1    2    0    0 -0.72760640873E+02  0.86667048724E+02 -0.57463622542E+03  0.59144412359E+03  0.82426158279E+02 0.  0.
         25    2    1    2    0    0  0.13374133313E+03 -0.11024488055E+03  0.33175092520E+03  0.39464592970E+03  0.12508419400E+03 0.  0.
        -24    2    1    2    0    0 -0.60980692254E+02  0.23577831826E+02  0.50910773830E+03  0.52002048572E+03  0.83402981921E+02 0.  0.
        -13    1    3    3    0    0  0.12195716611E+02  0.41310700784E+02 -0.15286546971E+03  0.15881801325E+03  0.00000000000E+00 0.  1.
         14    1    3    3    0    0 -0.84956357484E+02  0.45356347940E+02 -0.42177075571E+03  0.43262611034E+03  0.00000000000E+00 0. -1.
         11    1    5    5    0    0 -0.78442672899E+02  0.32549171874E+02  0.44265868700E+03  0.45073208749E+03  0.00000000000E+00 0. -1.
        -12    1    5    5    0    0  0.17461980645E+02 -0.89713400485E+01  0.66449051303E+02  0.69288398230E+02  0.00000000000E+00 0.  1.
          5    1    4    4  501    0  0.78565287337E+02  0.63035838391E+01  0.17243916198E+03  0.18964434220E+03  0.41800000000E+01 0. -1.
         -5    1    4    4    0  501  0.55176045790E+02 -0.11654846439E+03  0.15931176322E+03  0.20500158751E+03  0.41800000000E+01 0. -1.
</event>
<event>
11    1  0.8453735E-009  0.1260090E+03  0.7561462E-02  0.1124272E+00
         22   -1    0    0    0    0  0.00000000000E+00  0.00000000000E+00  0.59355358455E+03  0.59355358455E+03  0.00000000000E+00 0.  1.
         22   -1    0    0    0    0 -0.00000000000E+00 -0.00000000000E+00 -0.31190148495E+03  0.31190148495E+03  0.00000000000E+00 0.  1.
        -24    2    1    2    0    0 -0.11233152676E+02  0.14404970591E+02 -0.24769875769E+03  0.26076554502E+03  0.79437447179E+02 0.  0.
         25    2    1    2    0    0  0.47821220810E+01 -0.27310395958E+02  0.24874454398E+02  0.13052256605E+03  0.12509466555E+03 0.  0.
         24    2    1    2    0    0  0.64510305952E+01  0.12905425366E+02  0.50447640288E+03  0.51416695842E+03  0.98300835543E+02 0.  0.
        -13    1    5    5    0    0  0.37928439445E+02  0.17067529696E+02  0.44325154253E+03  0.44519860405E+03  0.00000000000E+00 0.  1.
         14    1    5    5    0    0 -0.31477408849E+02 -0.41621043300E+01  0.61224860353E+02  0.68968354378E+02  0.00000000000E+00 0. -1.
         13    1    3    3    0    0  0.32342056831E+02  0.18343461848E+02 -0.98513315534E+02  0.10529655536E+03  0.00000000000E+00 0. -1.
        -14    1    3    3    0    0 -0.43575209508E+02 -0.39384912570E+01 -0.14918544216E+03  0.15546898967E+03  0.00000000000E+00 0.  1.
          5    1    4    4  501    0 -0.44414765680E+02 -0.32434015161E+02  0.50391448777E+02  0.74708816479E+02  0.41800000000E+01 0. -1.
         -5    1    4    4    0  501  0.49196887761E+02  0.51236192037E+01 -0.25516994378E+02  0.55813749571E+02  0.41800000000E+01 0. -1.
</event>
<event>
11    1  0.8453735E-009  0.1851642E+03  0.7561462E-02  0.1065540E+00
         22   -1    0    0    0    0  0.00000000000E+00  0.00000000000E+00  0.26836177549E+03  0.26836177549E+03  0.00000000000E+00 0. -1.
         22   -1    0    0    0    0 -0.00000000000E+00 -0.00000000000E+00 -0.42565529904E+03  0.42565529904E+03  0.00000000000E+00 0.  1.
         24    2    1    2    0    0 -0.62108722733E+02  0.98359124934E+02 -0.19360313883E+03  0.23983165466E+03  0.80653805352E+02 0.  0.
         25    2    1    2    0    0  0.12115396422E+03 -0.16215134859E+03 -0.11386531839E+03  0.26378908226E+03  0.12509207126E+03 0.  0.
        -24    2    1    2    0    0 -0.59045241490E+02  0.63792223653E+02  0.15017493366E+03  0.19039633761E+03  0.78373888095E+02 0.  0.
        -11    1    3    3    0    0 -0.35859449957E+01  0.79295460696E+02 -0.12011689712E+03  0.14397464382E+03  0.00000000000E+00 0.  1.
         12    1    3    3    0    0 -0.58522777738E+02  0.19063664239E+02 -0.73486241708E+02  0.95857010848E+02  0.00000000000E+00 0. -1.
         13    1    5    5    0    0 -0.25501125771E+02  0.74085248192E+02  0.80218393041E+02  0.11213350078E+03  0.00000000000E+00 0. -1.
        -14    1    5    5    0    0 -0.33544115719E+02 -0.10293024539E+02  0.69956540619E+02  0.78262836831E+02  0.00000000000E+00 0.  1.
          5    1    4    4  501    0  0.26430464787E+02 -0.53457225640E+02  0.23852367695E+02  0.64363439053E+02  0.41800000000E+01 0. -1.
         -5    1    4    4    0  501  0.94723499436E+02 -0.10869412295E+03 -0.13771768608E+03  0.19942564321E+03  0.41800000000E+01 0. -1.
</event>
<event>
11    1  0.8453735E-009  0.1425478E+03  0.7561462E-02  0.1104746E+00
         22   -1    0    0    0    0  0.00000000000E+00  0.00000000000E+00  0.16846731681E+04  0.16846731681E+04  0.00000000000E+00 0.  1.
         22   -1    0    0    0    0 -0.00000000000E+00 -0.00000000000E+00 -0.94450945099E+02  0.94450945099E+02  0.00000000000E+00 0.  1.
        -24    2    1    2    0    0 -0.62423509131E+02  0.27573493882E+02 -0.50029356856E+02  0.11382127015E+03  0.76127215468E+02 0.  0.
         25    2    1    2    0    0  0.41876532909E+02 -0.76762822378E+02  0.56359154870E+03  0.58389111777E+03  0.12508888331E+03 0.  0.
         24    2    1    2    0    0  0.20546976222E+02  0.49189328496E+02  0.10766600312E+04  0.10814117253E+04  0.86097204464E+02 0.  0.
        -11    1    5    5    0    0 -0.33308522062E+02  0.23269253160E+02  0.36822950412E+03  0.37046441596E+03  0.00000000000E+00 0.  1.
         12    1    5    5    0    0  0.53855498284E+02  0.25920075335E+02  0.70843052704E+03  0.71094730933E+03  0.00000000000E+00 0. -1.
         13    1    3    3    0    0 -0.43812094188E+01  0.36148205003E+02 -0.40358873114E+02  0.54357394713E+02  0.00000000000E+00 0. -1.
        -14    1    3    3    0    0 -0.58042299712E+02 -0.85747111210E+01 -0.96704837423E+01  0.59463875441E+02  0.00000000000E+00 0.  1.
          5    1    4    4  501    0  0.17442140993E+02 -0.24686227815E+01  0.41949198295E+03  0.41988250563E+03  0.41800000000E+01 0. -1.
         -5    1    4    4    0  501  0.24434391916E+02 -0.74294199597E+02  0.14409956576E+03  0.16400861213E+03  0.41800000000E+01 0. -1.
</event>
<event>
11    1  0.8453735E-009  0.1838042E+03  0.7561462E-02  0.1066607E+00
         22   -1    0    0    0    0  0.00000000000E+00  0.00000000000E+00  0.17499233064E+04  0.17499233064E+04  0.00000000000E+00 0. -1.
         22   -1    0    0    0    0 -0.00000000000E+00 -0.00000000000E+00 -0.16573167543E+04  0.16573167543E+04  0.00000000000E+00 0. -1.
        -24    2    1    2    0    0  0.47550343018E+02  0.12170959649E+03 -0.14399779246E+04  0.14481262756E+04  0.80368062915E+02 0.  0.
         25    2    1    2    0    0 -0.12285892898E+03 -0.17124150910E+03 -0.13992282015E+03  0.28220778271E+03  0.12507943938E+03 0.  0.
         24    2    1    2    0    0  0.75308585961E+02  0.49531912606E+02  0.16725072970E+04  0.16769060024E+04  0.81291383656E+02 0.  0.
        -11    1    5    5    0    0 -0.37434104148E+01 -0.54776030733E+01  0.61167602902E+03  0.61171200882E+03  0.00000000000E+00 0.  1.
         12    1    5    5    0    0  0.79051996376E+02  0.55009515679E+02  0.10608312680E+04  0.10651939936E+04  0.00000000000E+00 0. -1.
         13    1    3    3    0    0  0.50039734879E+02  0.12097518386E+03 -0.14395561572E+04  0.14454967658E+04  0.00000000000E+00 0. -1.
        -14    1    3    3    0    0 -0.24893918615E+01  0.73441263930E+00 -0.42176741019E+00  0.26295097477E+01  0.00000000000E+00 0.  1.
          5    1    4    4  501    0 -0.82027024733E+02 -0.11404826658E+03 -0.15602521665E+03  0.20999233445E+03  0.41800000000E+01 0. -1.
         -5    1    4    4    0  501 -0.40831904246E+02 -0.57193242525E+02  0.16102396505E+02  0.72215448265E+02  0.41800000000E+01 0. -1.
</event>
<event>
11    1  0.8453735E-009  0.1628336E+03  0.7561462E-02  0.1084442E+00
         22   -1    0    0    0    0  0.00000000000E+00  0.00000000000E+00  0.82261347479E+03  0.82261347479E+03  0.00000000000E+00 0. -1.
         22   -1    0    0    0    0 -0.00000000000E+00 -0.00000000000E+00 -0.33255053602E+03  0.33255053602E+03  0.00000000000E+00 0. -1.
        -24    2    1    2    0    0  0.95482199668E+02  0.86540604727E+02 -0.21806416491E+03  0.26585782267E+03  0.80760603876E+02 0.  0.
         25    2    1    2    0    0 -0.41860803911E+02 -0.28139420053E+02 -0.33656019446E+02  0.13900885308E+03  0.12508628912E+03 0.  0.
         24    2    1    2    0    0 -0.53621395757E+02 -0.58401184674E+02  0.74178312312E+03  0.75029733506E+03  0.80112026485E+02 0.  0.
        -13    1    5    5    0    0  0.98961393694E+01 -0.39349637334E+02  0.17469232300E+03  0.17934250820E+03  0.00000000000E+00 0.  1.
         14    1    5    5    0    0 -0.63517535127E+02 -0.19051547340E+02  0.56709080012E+03  0.57095482685E+03  0.00000000000E+00 0. -1.
         11    1    3    3    0    0  0.74265593670E+02  0.97937197365E+02 -0.15160560102E+03  0.19517000613E+03  0.00000000000E+00 0. -1.
        -12    1    3    3    0    0  0.21216605998E+02 -0.11396592638E+02 -0.66458563886E+02  0.70687816543E+02  0.00000000000E+00 0.  1.
          5    1    4    4  501    0  0.17008967299E+02 -0.47508674664E+02 -0.53634545793E+02  0.73759853845E+02  0.41800000000E+01 0. -1.
         -5    1    4    4    0  501 -0.58869771210E+02  0.19369254610E+02  0.19978526347E+02  0.65248999237E+02  0.41800000000E+01 0. -1.
</event>
<event>
11    1  0.8453735E-009  0.1218212E+04  0.7561462E-02  0.8495317E-01
         22   -1    0    0    0    0  0.00000000000E+00  0.00000000000E+00  0.13615516944E+04  0.13615516944E+04  0.00000000000E+00 0. -1.
         22   -1    0    0    0    0 -0.00000000000E+00 -0.00000000000E+00 -0.27249044108E+03  0.27249044108E+03  0.00000000000E+00 0. -1.
        -24    2    1    2    0    0 -0.32832093318E+03  0.26315848122E+03  0.24305713895E+03  0.49236021790E+03  0.79339712495E+02 0.  0.
         25    2    1    2    0    0  0.39816901522E+03 -0.41001900044E+03  0.65390252265E+03  0.87743484023E+03  0.12509693968E+03 0.  0.
         24    2    1    2    0    0 -0.69848082036E+02  0.14686051922E+03  0.19210159168E+03  0.26424707730E+03  0.80478131606E+02 0.  0.
        -13    1    5    5    0    0 -0.48041362447E+02  0.19453467291E+02  0.47642069639E+02  0.70400118571E+02  0.00000000000E+00 0.  1.
         14    1    5    5    0    0 -0.21806719590E+02  0.12740705193E+03  0.14445952204E+03  0.19384695873E+03  0.00000000000E+00 0. -1.
         13    1    3    3    0    0 -0.32067951325E+03  0.26529406092E+03  0.22610964726E+03  0.47364740215E+03  0.00000000000E+00 0. -1.
        -14    1    3    3    0    0 -0.76414199362E+01 -0.21355796973E+01  0.16947491684E+02  0.18712815760E+02  0.00000000000E+00 0.  1.
          5    1    4    4  501    0  0.24102580466E+03 -0.28964101160E+03  0.34733594367E+03  0.51248910650E+03  0.41800000000E+01 0. -1.
         -5    1    4    4    0  501  0.15714321056E+03 -0.12037798884E+03  0.30656657898E+03  0.36494573373E+03  0.41800000000E+01 0. -1.
</event>
<event>
11    1  0.8453735E-009  0.1020430E+04  0.7561462E-02  0.8659822E-01
         22   -1    0    0    0    0  0.00000000000E+00  0.00000000000E+00  0.96962558830E+03  0.96962558830E+03  0.00000000000E+00 0. -1.
         22   -1    0    0    0    0 -0.00000000000E+00 -0.00000000000E+00 -0.26847399822E+03  0.26847399822E+03  0.00000000000E+00 0. -1.
        -24    2    1    2    0    0  0.93293176018E+02 -0.36876645597E+01  0.66645556589E+02  0.14007832165E+03  0.80393348119E+02 0.  0.
         25    2    1    2    0    0 -0.45994012942E+03 -0.19335812848E+02  0.18449189127E+03  0.51147196014E+03  0.12509001462E+03 0.  0.
         24    2    1    2    0    0  0.36664695340E+03  0.23023477408E+02  0.45001414222E+03  0.58654930472E+03  0.81038816169E+02 0.  0.
        -11    1    5    5    0    0  0.27629270544E+03  0.51468883390E+02  0.34848784346E+03  0.44769463039E+03  0.00000000000E+00 0.  1.
         12    1    5    5    0    0  0.90354247959E+02 -0.28445405983E+02  0.10152629875E+03  0.13885467433E+03  0.00000000000E+00 0. -1.
         13    1    3    3    0    0  0.75410034521E+02  0.33038850088E+02  0.43101084593E+02  0.92929771412E+02  0.00000000000E+00 0. -1.
        -14    1    3    3    0    0  0.17883141497E+02 -0.36726514648E+02  0.23544471996E+02  0.47148550238E+02  0.00000000000E+00 0.  1.
          5    1    4    4  501    0 -0.31085845814E+03 -0.65179111830E+02  0.94743253412E+02  0.33147406246E+03  0.41800000000E+01 0.  1.
         -5    1    4    4    0  501 -0.14908167128E+03  0.45843298981E+02  0.89748637859E+02  0.17999789769E+03  0.41800000000E+01 0.  1.
</event>
<event>
11    1  0.8453735E-009  0.1725136E+03  0.7561462E-02  0.1075865E+00
         22   -1    0    0    0    0  0.00000000000E+00  0.00000000000E+00  0.18119781739E+04  0.18119781739E+04  0.00000000000E+00 0.  1.
         22   -1    0    0    0    0 -0.00000000000E+00 -0.00000000000E+00 -0.61377604286E+02  0.61377604286E+02  0.00000000000E+00 0.  1.
        -24    2    1    2    0    0 -0.63348071030E+02 -0.57465714316E+02  0.51113833562E+02  0.12908640665E+03  0.82069421685E+02 0.  0.
         25    2    1    2    0    0 -0.26117257684E+02  0.13668038926E+03  0.45375297435E+03  0.49082025222E+03  0.12509643597E+03 0.  0.
         24    2    1    2    0    0  0.89465328714E+02 -0.79214674948E+02  0.12457337617E+04  0.12534491193E+04  0.70732453047E+02 0.  0.
        -13    1    5    5    0    0  0.26609314498E+02 -0.68570796535E+02  0.57300486312E+03  0.57770631199E+03  0.00000000000E+00 0.  1.
         14    1    5    5    0    0  0.62856014216E+02 -0.10643878413E+02  0.67272889855E+03  0.67574280729E+03  0.00000000000E+00 0. -1.
         13    1    3    3    0    0 -0.35212438099E+02 -0.76546246137E+02  0.40406211768E+02  0.93444665680E+02  0.00000000000E+00 0. -1.
        -14    1    3    3    0    0 -0.28135632931E+02  0.19080531821E+02  0.10707621795E+02  0.35641740972E+02  0.00000000000E+00 0.  1.
          5    1    4    4  501    0 -0.15693128129E+02  0.10572728014E+03  0.14431487619E+03  0.17963515225E+03  0.41800000000E+01 0. -1.
         -5    1    4    4    0  501 -0.10424129555E+02  0.30953109122E+02  0.30943809817E+03  0.31118509996E+03  0.41800000000E+01 0. -1.
</event>
<event>
11    1  0.8453735E-009  0.1628114E+03  0.7561462E-02  0.1084462E+00
         22   -1    0    0    0    0  0.00000000000E+00  0.00000000000E+00  0.73088898931E+03  0.73088898931E+03  0.00000000000E+00 0.  1.
         22   -1    0    0    0    0 -0.00000000000E+00 -0.00000000000E+00 -0.19872280984E+04  0.19872280984E+04  0.00000000000E+00 0.  1.
         24    2    1    2    0    0 -0.86299264403E+02  0.57761458607E+02 -0.19368290139E+04  0.19411130271E+04  0.76349235925E+02 0.  0.
         25    2    1    2    0    0  0.11531409683E+03 -0.74172214793E+02  0.14730469118E+03  0.23694913230E+03  0.12508941153E+03 0.  0.
        -24    2    1    2    0    0 -0.29014832428E+02  0.16410756186E+02  0.53318521366E+03  0.54005492826E+03  0.79130778168E+02 0.  0.
        -13    1    3    3    0    0 -0.62462003574E+01  0.47246416999E+02 -0.80283407875E+03  0.80424734811E+03  0.00000000000E+00 0.  1.
         14    1    3    3    0    0 -0.80053064046E+02  0.10515041608E+02 -0.11339949352E+04  0.11368656790E+04  0.00000000000E+00 0. -1.
         13    1    5    5    0    0 -0.61395263907E+01  0.11206862077E+02  0.96966570008E+01  0.16040969388E+02  0.00000000000E+00 0. -1.
        -14    1    5    5    0    0 -0.22875306037E+02  0.52038941095E+01  0.52348855666E+03  0.52401395888E+03  0.00000000000E+00 0.  1.
          5    1    4    4  501    0  0.49021501191E+02 -0.10213483116E+03  0.94818395289E+02  0.14779252958E+03  0.41800000000E+01 0. -1.
         -5    1    4    4    0  501  0.66292595640E+02  0.27962616370E+02  0.52486295890E+02  0.89156602713E+02  0.41800000000E+01 0. -1.
</event>
<event>
11    1  0.8453735E-009  0.1517014E+03  0.7561462E-02  0.1095153E+00
         22   -1    0    0    0    0  0.00000000000E+00  0.00000000000E+00  0.53435932183E+03  0.53435932183E+03  0.00000000000E+00 0.  1.
         22   -1    0    0    0    0 -0.00000000000E+00 -0.00000000000E+00 -0.79071302139E+03  0.79071302139E+03  0.00000000000E+00 0.  1.
         24    2    1    2    0    0 -0.19535166134E+02 -0.64460500373E+02 -0.71910656811E+03  0.72609525746E+03  0.74587450615E+02 0.  0.
         25    2    1    2    0    0  0.59047773144E+02  0.13159455772E+03  0.92256643724E+02  0.21204644889E+03  0.12509452842E+03 0.  0.
        -24    2    1    2    0    0 -0.39512607009E+02 -0.67134057350E+02  0.37049622482E+03  0.38693063687E+03  0.79872632156E+02 0.  0.
        -11    1    3    3    0    0 -0.18588178923E+01 -0.76969062845E+02 -0.61180926217E+03  0.61663462854E+03  0.00000000000E+00 0.  1.
         12    1    3    3    0    0 -0.17676348242E+02  0.12508562472E+02 -0.10729730594E+03  0.10946062892E+03  0.00000000000E+00 0. -1.
         11    1    5    5    0    0  0.23958790195E+01 -0.56817132821E+01 -0.24530130617E+01  0.66362169326E+01  0.00000000000E+00 0. -1.
        -12    1    5    5    0    0 -0.41908486029E+02 -0.61452344068E+02  0.37294923789E+03  0.38029441993E+03  0.00000000000E+00 0.  1.
          5    1    4    4  501    0  0.80823715601E+02  0.50603006962E+02  0.84914665795E+02  0.12775410046E+03  0.41800000000E+01 0.  1.
         -5    1    4    4    0  501 -0.21775942457E+02  0.80991550762E+02  0.73419779290E+01  0.84292348434E+02  0.41800000000E+01 0.  1.
</event>
<event>
11    1  0.8453735E-009  0.2214961E+03  0.7561462E-02  0.1040284E+00
         22   -1    0    0    0    0  0.00000000000E+00  0.00000000000E+00  0.33205350235E+03  0.33205350235E+03  0.00000000000E+00 0. -1.
         22   -1    0    0    0    0 -0.00000000000E+00 -0.00000000000E+00 -0.85204749645E+03  0.85204749645E+03  0.00000000000E+00 0. -1.
        -24    2    1    2    0    0 -0.18679763236E+03 -0.72948721805E+02 -0.44025151617E+03  0.49091202889E+03  0.83416731811E+02 0.  0.
         25    2    1    2    0    0  0.77321879654E+02  0.17595830982E+03 -0.32289889910E+03  0.39604547207E+03  0.12509323337E+03 0.  0.
         24    2    1    2    0    0  0.10947575270E+03 -0.10300958802E+03  0.24315642118E+03  0.29714349784E+03  0.81075874924E+02 0.  0.
        -11    1    5    5    0    0  0.41680286857E+02 -0.80718886936E+02  0.18094084613E+03  0.20246573740E+03  0.00000000000E+00 0.  1.
         12    1    5    5    0    0  0.67795465847E+02 -0.22290701084E+02  0.62215575043E+02  0.94677760441E+02  0.00000000000E+00 0. -1.
         11    1    3    3    0    0 -0.10639101476E+03 -0.42046109335E+02 -0.15310451797E+03  0.19112277927E+03  0.00000000000E+00 0. -1.
        -12    1    3    3    0    0 -0.80406617599E+02 -0.30902612469E+02 -0.28714699820E+03  0.29978924962E+03  0.00000000000E+00 0.  1.
          5    1    4    4  501    0 -0.15694763342E+02  0.11914420485E+03 -0.16937769513E+03  0.20772082985E+03  0.41800000000E+01 0. -1.
         -5    1    4    4    0  501  0.93016642996E+02  0.56814104976E+02 -0.15352120397E+03  0.18832464222E+03  0.41800000000E+01 0. -1.
</event>
<event>
11    1  0.8453735E-009  0.1519581E+03  0.7561462E-02  0.1094895E+00
         22   -1    0    0    0    0  0.00000000000E+00  0.00000000000E+00  0.28441076550E+04  0.28441076550E+04  0.00000000000E+00 0.  1.
         22   -1    0    0    0    0 -0.00000000000E+00 -0.00000000000E+00 -0.57820922953E+03  0.57820922953E+03  0.00000000000E+00 0. -1.
        -24    2    1    2    0    0 -0.38322609770E+02 -0.12548624969E+02 -0.54820597283E+03  0.55548327583E+03  0.80036183551E+02 0.  0.
         25    2    1    2    0    0  0.11668083900E+03  0.43511721728E+02  0.28604667289E+03  0.33612093502E+03  0.12508755241E+03 0.  0.
         24    2    1    2    0    0 -0.78358229231E+02 -0.30963096759E+02  0.25280577254E+04  0.25307126736E+04  0.79574168616E+02 0.  0.
        -11    1    5    5    0    0 -0.78358085250E+02 -0.97965903280E+01  0.23608806153E+04  0.23622009318E+04  0.00000000000E+00 0.  1.
         12    1    5    5    0    0 -0.14398128934E-03 -0.21166506431E+02  0.16717711010E+03  0.16851174183E+03  0.00000000000E+00 0. -1.
         13    1    3    3    0    0  0.23973245658E+02 -0.74556289112E+01 -0.21546197662E+03  0.21691972312E+03  0.00000000000E+00 0. -1.
        -14    1    3    3    0    0 -0.62295855428E+02 -0.50929960575E+01 -0.33274399621E+03  0.33856355271E+03  0.00000000000E+00 0.  1.
          5    1    4    4  501    0  0.77727590578E+02  0.70319633669E+02  0.10297891575E+03  0.14699849899E+03  0.41800000000E+01 0.  1.
         -5    1    4    4    0  501  0.38953248423E+02 -0.26807911941E+02  0.18306775714E+03  0.18912243603E+03  0.41800000000E+01 0.  1.
</event>
<event>
11    1  0.8453735E-009  0.1286466E+03  0.7561462E-02  0.1120943E+00
         22   -1    0    0    0    0  0.00000000000E+00  0.00000000000E+00  0.50520350832E+03  0.50520350832E+03  0.00000000000E+00 0.  1.
         22   -1    0    0    0    0 -0.00000000000E+00 -0.00000000000E+00 -0.43812224462E+03  0.43812224462E+03  0.00000000000E+00 0. -1.
        -24    2    1    2    0    0  0.18135621291E+02 -0.25221127501E+02 -0.30142091557E+03  0.31338286144E+03  0.79932743409E+02 0.  0.
         25    2    1    2    0    0 -0.22620890530E+01  0.27693730315E+02 -0.94883460703E+02  0.15944927439E+03  0.12509652371E+03 0.  0.
         24    2    1    2    0    0 -0.15873532238E+02 -0.24726028134E+01  0.46338563997E+03  0.47049361711E+03  0.79874336440E+02 0.  0.
        -11    1    5    5    0    0 -0.26679195726E+02  0.27476499787E+02  0.36683563883E+03  0.36882939612E+03  0.00000000000E+00 0.  1.
         12    1    5    5    0    0  0.10805663487E+02 -0.29949102601E+02  0.96550001138E+02  0.10166422099E+03  0.00000000000E+00 0. -1.
         13    1    3    3    0    0  0.28519549938E+02  0.81640653590E+01 -0.24649279106E+03  0.24827144970E+03  0.00000000000E+00 0. -1.
        -14    1    3    3    0    0 -0.10383928647E+02 -0.33385192860E+02 -0.54928124509E+02  0.65111411738E+02  0.00000000000E+00 0.  1.
          5    1    4    4  501    0  0.15403741149E+02  0.73259347012E+02 -0.76367910319E+02  0.10702213459E+03  0.41800000000E+01 0.  1.
         -5    1    4    4    0  501 -0.17665830202E+02 -0.45565616697E+02 -0.18515550384E+02  0.52427139801E+02  0.41800000000E+01 0.  1.
</event>
<event>
11    1  0.8453735E-009  0.1266332E+03  0.7561462E-02  0.1123476E+00
         22   -1    0    0    0    0  0.00000000000E+00  0.00000000000E+00  0.98803939945E+02  0.98803939945E+02  0.00000000000E+00 0. -1.
         22   -1    0    0    0    0 -0.00000000000E+00 -0.00000000000E+00 -0.54707406971E+03  0.54707406971E+03  0.00000000000E+00 0. -1.
        -24    2    1    2    0    0 -0.12443756581E+02  0.96252320078E+01 -0.30700640875E+03  0.31923532670E+03  0.86085809692E+02 0.  0.
         25    2    1    2    0    0  0.37969319005E+02  0.56186008456E+00 -0.18774872125E+03  0.22877802064E+03  0.12509122881E+03 0.  0.
         24    2    1    2    0    0 -0.25525562424E+02 -0.10187092092E+02  0.46485000237E+02  0.97864662312E+02  0.81616822408E+02 0.  0.
        -11    1    5    5    0    0  0.13956149519E+02 -0.33692008225E+02  0.66857036037E+01  0.37075924268E+02  0.00000000000E+00 0.  1.
         12    1    5    5    0    0 -0.39481711943E+02  0.23504916133E+02  0.39799296634E+02  0.60788738043E+02  0.00000000000E+00 0. -1.
         13    1    3    3    0    0  0.19746354046E+02 -0.22530364958E+02 -0.20955280213E+03  0.21168352020E+03  0.00000000000E+00 0. -1.
        -14    1    3    3    0    0 -0.32190110626E+02  0.32155596966E+02 -0.97453606623E+02  0.10755180650E+03  0.00000000000E+00 0.  1.
          5    1    4    4  501    0  0.67564290411E+02  0.19803264982E+02 -0.17867432944E+03  0.19209136119E+03  0.41800000000E+01 0. -1.
         -5    1    4    4    0  501 -0.29594971406E+02 -0.19241404897E+02 -0.90743918082E+01  0.36686659450E+02  0.41800000000E+01 0. -1.
</event>
<event>
11    1  0.8453735E-009  0.1440758E+03  0.7561462E-02  0.1103091E+00
         22   -1    0    0    0    0  0.00000000000E+00  0.00000000000E+00  0.18418956808E+03  0.18418956808E+03  0.00000000000E+00 0.  1.
         22   -1    0    0    0    0 -0.00000000000E+00 -0.00000000000E+00 -0.84167109836E+03  0.84167109836E+03  0.00000000000E+00 0. -1.
        -24    2    1    2    0    0 -0.11959487680E+02  0.71094140458E+02 -0.72619100177E+03  0.73410021582E+03  0.79701629003E+02 0.  0.
         25    2    1    2    0    0  0.50224984644E+02  0.42842999045E+01 -0.31562919456E+02  0.13850630032E+03  0.12508746155E+03 0.  0.
         24    2    1    2    0    0 -0.38265496964E+02 -0.75378440362E+02  0.10027239094E+03  0.15325415029E+03  0.79285084761E+02 0.  0.
        -13    1    5    5    0    0 -0.62085748641E+02 -0.60420078178E+02  0.84441355602E+02  0.12097755398E+03  0.00000000000E+00 0.  1.
         14    1    5    5    0    0  0.23820251677E+02 -0.14958362185E+02  0.15831035342E+02  0.32276596307E+02  0.00000000000E+00 0. -1.
         11    1    3    3    0    0  0.98598290126E+01  0.78725126949E+02 -0.63862838693E+03  0.64353793861E+03  0.00000000000E+00 0. -1.
        -12    1    3    3    0    0 -0.21819316692E+02 -0.76309864912E+01 -0.87562614843E+02  0.90562277212E+02  0.00000000000E+00 0.  1.
          5    1    4    4  501    0  0.82492798463E+02 -0.15470011015E+02 -0.48297775166E+02  0.96925386381E+02  0.41800000000E+01 0.  1.
         -5    1    4    4    0  501 -0.32267813819E+02  0.19754310920E+02  0.16734855709E+02  0.41580913942E+02  0.41800000000E+01 0.  1.
</event>
<event>
11    1  0.8453735E-009  0.1280975E+03  0.7561462E-02  0.1121629E+00
         22   -1    0    0    0    0  0.00000000000E+00  0.00000000000E+00  0.16434505584E+04  0.16434505584E+04  0.00000000000E+00 0.  1.
         22   -1    0    0    0    0 -0.00000000000E+00 -0.00000000000E+00 -0.10349631270E+03  0.10349631270E+03  0.00000000000E+00 0. -1.
         24    2    1    2    0    0 -0.26222165378E+01 -0.30332804847E+02 -0.68015205474E+01  0.89479150432E+02  0.83864787669E+02 0.  0.
         25    2    1    2    0    0  0.12216386662E+02  0.21318575583E+02  0.20581757890E+02  0.12908946301E+03  0.12504702689E+03 0.  0.
        -24    2    1    2    0    0 -0.95941701244E+01  0.90142292640E+01  0.15261740084E+04  0.15283782577E+04  0.80991914867E+02 0.  0.
        -11    1    3    3    0    0 -0.37225523360E+01  0.11679449401E+02  0.30760442048E+02  0.33113014499E+02  0.00000000000E+00 0.  1.
         12    1    3    3    0    0  0.11003357982E+01 -0.42012254248E+02 -0.37561962596E+02  0.56366135932E+02  0.00000000000E+00 0. -1.
         13    1    5    5    0    0  0.71247678099E+01 -0.63218475206E+01  0.21294555828E+02  0.23327798446E+02  0.00000000000E+00 0. -1.
        -14    1    5    5    0    0 -0.16718937934E+02  0.15336076785E+02  0.15048794525E+04  0.15050504592E+04  0.00000000000E+00 0.  1.
          5    1    4    4  501    0  0.28560509509E+02  0.63160537786E+02  0.39812786233E+02  0.80046777477E+02  0.41800000000E+01 0. -1.
         -5    1    4    4    0  501 -0.16344122847E+02 -0.41841962204E+02 -0.19231028343E+02  0.49042685528E+02  0.41800000000E+01 0. -1.
</event>
<event>
11    1  0.8453735E-009  0.1755137E+03  0.7561462E-02  0.1073331E+00
         22   -1    0    0    0    0  0.00000000000E+00  0.00000000000E+00  0.26922626657E+03  0.26922626657E+03  0.00000000000E+00 0.  1.
         22   -1    0    0    0    0 -0.00000000000E+00 -0.00000000000E+00 -0.16166874153E+04  0.16166874153E+04  0.00000000000E+00 0. -1.
        -24    2    1    2    0    0  0.91181510511E+02  0.83073770966E+02 -0.14534995703E+04  0.14608992968E+04  0.79689618818E+02 0.  0.
         25    2    1    2    0    0 -0.10078055593E+03 -0.67304259931E+02 -0.10124239419E+03  0.20145602987E+03  0.12509166932E+03 0.  0.
         24    2    1    2    0    0  0.95990454195E+01 -0.15769511035E+02  0.20728081570E+03  0.22355835522E+03  0.81683428434E+02 0.  0.
        -13    1    5    5    0    0 -0.21773553130E+02  0.68310609800E+01  0.16376061928E+03  0.16534295098E+03  0.00000000000E+00 0.  1.
         14    1    5    5    0    0  0.31372598550E+02 -0.22600572015E+02  0.43520196421E+02  0.58215404247E+02  0.00000000000E+00 0. -1.
         11    1    3    3    0    0  0.93424719800E+02  0.50803865840E+02 -0.12799936750E+04  0.12844037601E+04  0.00000000000E+00 0. -1.
        -12    1    3    3    0    0 -0.22432092886E+01  0.32269905127E+02 -0.17350589530E+03  0.17649553668E+03  0.00000000000E+00 0.  1.
          5    1    4    4  501    0 -0.27151279818E+02 -0.69376872579E+02  0.19019361540E+01  0.74642027074E+02  0.41800000000E+01 0.  1.
         -5    1    4    4    0  501 -0.73629276113E+02  0.20726126479E+01 -0.10314433034E+03  0.12681400280E+03  0.41800000000E+01 0.  1.
</event>
<event>
11    1  0.8453735E-009  0.1462441E+03  0.7561462E-02  0.1100780E+00
         22   -1    0    0    0    0  0.00000000000E+00  0.00000000000E+00  0.12313783133E+04  0.12313783133E+04  0.00000000000E+00 0. -1.
         22   -1    0    0    0    0 -0.00000000000E+00 -0.00000000000E+00 -0.87753188522E+03  0.87753188522E+03  0.00000000000E+00 0. -1.
        -24    2    1    2    0    0 -0.70424266074E+02  0.21963884852E+02 -0.75047767437E+03  0.75838986552E+03  0.80600613535E+02 0.  0.
         25    2    1    2    0    0  0.84010639381E+02 -0.86729994316E+02 -0.58163624089E+02  0.18332982637E+03  0.12508772372E+03 0.  0.
         24    2    1    2    0    0 -0.13586373307E+02  0.64766109465E+02  0.11624877266E+04  0.11671905067E+04  0.81097015722E+02 0.  0.
        -11    1    5    5    0    0 -0.36103930756E+02  0.12823952825E+02  0.24698879401E+03  0.24994281736E+03  0.00000000000E+00 0.  1.
         12    1    5    5    0    0  0.22517557449E+02  0.51942156640E+02  0.91549893257E+03  0.91724768932E+03  0.00000000000E+00 0. -1.
         11    1    3    3    0    0 -0.10895750664E+02 -0.23791361526E+02 -0.34704456010E+03  0.34802970126E+03  0.00000000000E+00 0. -1.
        -12    1    3    3    0    0 -0.59528515409E+02  0.45755246378E+02 -0.40343311427E+03  0.41036016426E+03  0.00000000000E+00 0.  1.
          5    1    4    4  501    0  0.11065030388E+03 -0.55598177671E+02 -0.67501823719E+02  0.14109789408E+03  0.41800000000E+01 0. -1.
         -5    1    4    4    0  501 -0.26639664500E+02 -0.31131816645E+02  0.93381996293E+01  0.42231932286E+02  0.41800000000E+01 0. -1.
</event>
<event>
11    1  0.8453735E-009  0.1611943E+03  0.7561462E-02  0.1085959E+00
         22   -1    0    0    0    0  0.00000000000E+00  0.00000000000E+00  0.50838072395E+03  0.50838072395E+03  0.00000000000E+00 0.  1.
         22   -1    0    0    0    0 -0.00000000000E+00 -0.00000000000E+00 -0.16568159678E+03  0.16568159678E+03  0.00000000000E+00 0. -1.
         24    2    1    2    0    0  0.42543624808E+02  0.82919934737E+01 -0.92008116780E+02  0.14040161370E+03  0.96790507849E+02 0.  0.
         25    2    1    2    0    0 -0.12928287009E+03  0.16713593101E+02  0.19765884420E+03  0.26778399767E+03  0.12508335631E+03 0.  0.
        -24    2    1    2    0    0  0.86739245279E+02 -0.25005586574E+02  0.23704839975E+03  0.26587670936E+03  0.79683779549E+02 0.  0.
        -13    1    3    3    0    0  0.25401071010E+01  0.54772383292E+01  0.20284018665E+02  0.21163499167E+02  0.00000000000E+00 0.  1.
         14    1    3    3    0    0  0.40003517707E+02  0.28147551444E+01 -0.11229213544E+03  0.11923811454E+03  0.00000000000E+00 0. -1.
         13    1    5    5    0    0 -0.97394944022E+01 -0.20531687225E+02  0.32312546251E+02  0.39503272988E+02  0.00000000000E+00 0. -1.
        -14    1    5    5    0    0  0.96478739681E+02 -0.44738993493E+01  0.20473585350E+03  0.22637343637E+03  0.00000000000E+00 0.  1.
          5    1    4    4  501    0 -0.95937418499E+02  0.17398939795E+02  0.38169014687E+02  0.10479054087E+03  0.41800000000E+01 0.  1.
         -5    1    4    4    0  501 -0.33345451588E+02 -0.68534669451E+00  0.15948982951E+03  0.16299345680E+03  0.41800000000E+01 0.  1.
</event>
<event>
11    1  0.8453735E-009  0.1753452E+03  0.7561462E-02  0.1073471E+00
         22   -1    0    0    0    0  0.00000000000E+00  0.00000000000E+00  0.38569802097E+03  0.38569802097E+03  0.00000000000E+00 0. -1.
         22   -1    0    0    0    0 -0.00000000000E+00 -0.00000000000E+00 -0.98161332198E+03  0.98161332198E+03  0.00000000000E+00 0.  1.
         24    2    1    2    0    0 -0.53457188963E+02 -0.22805256194E+02 -0.87881210010E+03  0.88418985671E+03  0.78123265800E+02 0.  0.
         25    2    1    2    0    0 -0.36496873713E+02  0.11220661255E+03  0.12856928088E+02  0.17243724837E+03  0.12508780251E+03 0.  0.
        -24    2    1    2    0    0  0.89954062676E+02 -0.89401356355E+02  0.27003987101E+03  0.31068423787E+03  0.86711174681E+02 0.  0.
        -11    1    3    3    0    0 -0.13167077905E+02  0.97231678028E+01 -0.62168536209E+03  0.62190079705E+03  0.00000000000E+00 0.  1.
         12    1    3    3    0    0 -0.40290111058E+02 -0.32528423997E+02 -0.25712673801E+03  0.26228905966E+03  0.00000000000E+00 0. -1.
         13    1    5    5    0    0  0.80283136458E+02 -0.10627252959E+03  0.24621615924E+03  0.27993147307E+03  0.00000000000E+00 0. -1.
        -14    1    5    5    0    0  0.96709262183E+01  0.16871173234E+02  0.23823711775E+02  0.30752764802E+02  0.00000000000E+00 0.  1.
          5    1    4    4  501    0 -0.80245363710E+02  0.78186423629E+02  0.26511893756E+02  0.11520758720E+03  0.41800000000E+01 0. -1.
         -5    1    4    4    0  501  0.43748489997E+02  0.34020188920E+02 -0.13654965668E+02  0.57229661178E+02  0.41800000000E+01 0. -1.
</event>
<event>
11    1  0.8453735E-009  0.1339459E+03  0.7561462E-02  0.1114514E+00
         22   -1    0    0    0    0  0.00000000000E+00  0.00000000000E+00  0.10652725883E+04  0.10652725883E+04  0.00000000000E+00 0.  1.
         22   -1    0    0    0    0 -0.00000000000E+00 -0.00000000000E+00 -0.64437662674E+02  0.64437662674E+02  0.00000000000E+00 0.  1.
         24    2    1    2    0    0 -0.63279366050E+00  0.30745781898E+02  0.21870273622E+02  0.91946657769E+02  0.83846141678E+02 0.  0.
         25    2    1    2    0    0  0.24418753397E+01 -0.75813919053E+02  0.17350916781E+03  0.22694834505E+03  0.12508559841E+03 0.  0.
        -24    2    1    2    0    0 -0.18090816792E+01  0.45068137155E+02  0.80545548423E+03  0.81081524819E+03  0.81415108312E+02 0.  0.
        -11    1    3    3    0    0 -0.26755919645E+02  0.45508680431E+02  0.30182787977E+02  0.60810524753E+02  0.00000000000E+00 0.  1.
         12    1    3    3    0    0  0.26123125984E+02 -0.14762898534E+02 -0.83125143552E+01  0.31136133016E+02  0.00000000000E+00 0. -1.
         13    1    5    5    0    0  0.34623857134E+02  0.36231510799E+02  0.31848314326E+03  0.32240199503E+03  0.00000000000E+00 0. -1.
        -14    1    5    5    0    0 -0.36432938813E+02  0.88366263563E+01  0.48697234097E+03  0.48841325316E+03  0.00000000000E+00 0.  1.
          5    1    4    4  501    0  0.21093357840E+02  0.25811171044E+02  0.82943241405E+02  0.89488546700E+02  0.41800000000E+01 0.  1.
         -5    1    4    4    0  501 -0.18651482500E+02 -0.10162509010E+03  0.90565926405E+02  0.13745979835E+03  0.41800000000E+01 0.  1.
</event>
<event>
11    1  0.8453735E-009  0.1383008E+03  0.7561462E-02  0.1109471E+00
         22   -1    0    0    0    0  0.00000000000E+00  0.00000000000E+00  0.22026842145E+03  0.22026842145E+03  0.00000000000E+00 0.  1.
         22   -1    0    0    0    0 -0.00000000000E+00 -0.00000000000E+00 -0.46831509764E+03  0.46831509764E+03  0.00000000000E+00 0. -1.
        -24    2    1    2    0    0 -0.49431985215E+02  0.40195191607E+02 -0.29693065942E+03  0.31404310678E+03  0.79975507628E+02 0.  0.
         25    2    1    2    0    0  0.39423119101E+02  0.22194378976E+02 -0.11810318134E+03  0.17788479059E+03  0.12509142457E+03 0.  0.
         24    2    1    2    0    0  0.10008866114E+02 -0.62389570583E+02  0.16698716457E+03  0.19665562173E+03  0.82438367938E+02 0.  0.
        -13    1    5    5    0    0  0.32032249886E+02 -0.72737240743E+02  0.13056800540E+03  0.15285540637E+03  0.00000000000E+00 0.  1.
         14    1    5    5    0    0 -0.22023383772E+02  0.10347670160E+02  0.36419159170E+02  0.43800215356E+02  0.00000000000E+00 0. -1.
         11    1    3    3    0    0 -0.12298962843E+02  0.13721529075E+02 -0.24177385188E+03  0.24247503026E+03  0.00000000000E+00 0. -1.
        -12    1    3    3    0    0 -0.37133022371E+02  0.26473662532E+02 -0.55156807541E+02  0.71568076517E+02  0.00000000000E+00 0.  1.
          5    1    4    4  501    0 -0.25353632985E+02 -0.25723780723E+02 -0.81590104533E+02  0.89324896630E+02  0.41800000000E+01 0.  1.
         -5    1    4    4    0  501  0.64776752086E+02  0.47918159699E+02 -0.36513076804E+02  0.88559893956E+02  0.41800000000E+01 0.  1.
</event>
<event>
11    1  0.8453735E-009  0.1856362E+03  0.7561462E-02  0.1065173E+00
         22   -1    0    0    0    0  0.00000000000E+00  0.00000000000E+00  0.86676722712E+03  0.86676722712E+03  0.00000000000E+00 0.  1.
         22   -1    0    0    0    0 -0.00000000000E+00 -0.00000000000E+00 -0.17988701018E+04  0.17988701018E+04  0.00000000000E+00 0.  1.
         24    2    1    2    0    0 -0.54549465959E+01  0.19170892085E+02 -0.17478805028E+04  0.17498158919E+04  0.79825583044E+02 0.  0.
         25    2    1    2    0    0 -0.88332553626E+02 -0.11650947107E+03  0.18950502597E+03  0.27006779293E+03  0.12508941215E+03 0.  0.
        -24    2    1    2    0    0  0.93787500221E+02  0.97338578985E+02  0.62627260222E+03  0.64575364408E+03  0.80681487291E+02 0.  0.
        -13    1    3    3    0    0 -0.27001540504E+02  0.87079874488E+01 -0.15780057447E+04  0.15782607650E+04  0.00000000000E+00 0.  1.
         14    1    3    3    0    0  0.21546593908E+02  0.10462904636E+02 -0.16987475818E+03  0.17155512685E+03  0.00000000000E+00 0. -1.
         11    1    5    5    0    0  0.11787605477E+02  0.41108789626E+01  0.73213112130E+01  0.14472337980E+02  0.00000000000E+00 0. -1.
        -12    1    5    5    0    0  0.81999894745E+02  0.93227700022E+02  0.61895129100E+03  0.63128130610E+03  0.00000000000E+00 0.  1.
          5    1    4    4  501    0 -0.10819340873E+01 -0.41594889066E+02 -0.69486296712E+01  0.42391759012E+02  0.41800000000E+01 0.  1.
         -5    1    4    4    0  501 -0.87250619538E+02 -0.74914582003E+02  0.19645365564E+03  0.22767603392E+03  0.41800000000E+01 0.  1.
</event>
<event>
11    1  0.1024381E-008  0.1549450E+03  0.7561462E-02  0.1091930E+00
         22   -1    0    0    0    0  0.00000000000E+00  0.00000000000E+00  0.14502517785E+03  0.14502517785E+03  0.00000000000E+00 0.  1.
         22   -1    0    0    0    0 -0.00000000000E+00 -0.00000000000E+00 -0.16623385991E+04  0.16623385991E+04  0.00000000000E+00 0.  1.
        -24    2    1    2    0    0  0.47086796725E+01 -0.11618560226E+02 -0.10453031486E+04  0.10484192301E+04  0.79793776607E+02 0.  0.
         25    2    1    2    0    0 -0.70367787189E+02 -0.52316128487E+02 -0.57751670350E+03  0.59737969816E+03  0.12509339782E+03 0.  0.
         24    2    1    2    0    0  0.65659107516E+02  0.63934688712E+02  0.10550643088E+03  0.16156484874E+03  0.81072995328E+02 0.  0.
        -13    1    5    5    0    0  0.49724574089E+01  0.40037949162E+02  0.83489601812E+02  0.92726891010E+02  0.00000000000E+00 0.  1.
         14    1    5    5    0    0  0.60686650108E+02  0.23896739550E+02  0.22016829067E+02  0.68837957731E+02  0.00000000000E+00 0. -1.
         11    1    3    3    0    0 -0.21038890758E+02 -0.45985552673E+01 -0.83071702760E+02  0.85817768757E+02  0.00000000000E+00 0. -1.
        -12    1    3    3    0    0  0.25747570431E+02 -0.70200049584E+01 -0.96223144589E+03  0.96260146131E+03  0.00000000000E+00 0.  1.
          5    1    4    4  501    0  0.12404005553E+02 -0.66842570902E+02 -0.28285104306E+03  0.29093637380E+03  0.41800000000E+01 0. -1.
         -5    1    4    4    0  501 -0.82771792742E+02  0.14526442415E+02 -0.29466566044E+03  0.30644332436E+03  0.41800000000E+01 0. -1.
</event>
<event>
11    1  0.8453735E-009  0.6952897E+03  0.7561462E-02  0.9039275E-01
         22   -1    0    0    0    0  0.00000000000E+00  0.00000000000E+00  0.32913919442E+03  0.32913919442E+03  0.00000000000E+00 0. -1.
         22   -1    0    0    0    0 -0.00000000000E+00 -0.00000000000E+00 -0.20483856704E+04  0.20483856704E+04  0.00000000000E+00 0. -1.
        -24    2    1    2    0    0  0.50888015430E+03  0.36638363666E+03 -0.79088316788E+03  0.10125203089E+04  0.80654882523E+02 0.  0.
         25    2    1    2    0    0 -0.65942211786E+03 -0.37429904712E+03 -0.91164416654E+03  0.11923423772E+04  0.12509177389E+03 0.  0.
         24    2    1    2    0    0  0.15054196356E+03  0.79154104574E+01 -0.16719141525E+02  0.17266217867E+03  0.82505525479E+02 0.  0.
        -11    1    5    5    0    0  0.36271029135E+02  0.39167809427E+02 -0.54102282009E+01  0.53656084641E+02  0.00000000000E+00 0.  1.
         12    1    5    5    0    0  0.11427093442E+03 -0.31252398969E+02 -0.11308913324E+02  0.11900609402E+03  0.00000000000E+00 0. -1.
         13    1    3    3    0    0  0.27666002759E+03  0.24478063082E+03 -0.48566692080E+03  0.61018905763E+03  0.00000000000E+00 0. -1.
        -14    1    3    3    0    0  0.23222012672E+03  0.12160300584E+03 -0.30521624708E+03  0.40233125128E+03  0.00000000000E+00 0.  1.
          5    1    4    4  501    0 -0.12854429683E+03 -0.66444688326E+02 -0.10522563338E+03  0.17896491046E+03  0.41800000000E+01 0.  1.
         -5    1    4    4    0  501 -0.53087782103E+03 -0.30785435879E+03 -0.80641853316E+03  0.10133774667E+04  0.41800000000E+01 0.  1.
</event>
<event>
11    1  0.8453735E-009  0.6421890E+03  0.7561462E-02  0.9122122E-01
         22   -1    0    0    0    0  0.00000000000E+00  0.00000000000E+00  0.73989486319E+03  0.73989486319E+03  0.00000000000E+00 0. -1.
         22   -1    0    0    0    0 -0.00000000000E+00 -0.00000000000E+00 -0.96905696612E+03  0.96905696612E+03  0.00000000000E+00 0. -1.
         24    2    1    2    0    0  0.55549089797E+03 -0.25992034765E+03 -0.49668670004E+03  0.79313215661E+03  0.78944379159E+02 0.  0.
         25    2    1    2    0    0 -0.65525615364E+03  0.18746959343E+03  0.11147846861E+03  0.70183997600E+03  0.12508568107E+03 0.  0.
        -24    2    1    2    0    0  0.99765255668E+02  0.72450754223E+02  0.15604612850E+03  0.21397969671E+03  0.78960106100E+02 0.  0.
        -13    1    3    3    0    0  0.25564456827E+03 -0.13456689887E+03 -0.28141664392E+03  0.40330847132E+03  0.00000000000E+00 0.  1.
         14    1    3    3    0    0  0.29984632970E+03 -0.12535344878E+03 -0.21527005611E+03  0.38982368529E+03  0.00000000000E+00 0. -1.
         13    1    5    5    0    0  0.11101379119E+01 -0.14304900855E+02  0.22191709145E+02  0.26426020311E+02  0.00000000000E+00 0. -1.
        -14    1    5    5    0    0  0.98655117757E+02  0.86755655078E+02  0.13385441936E+03  0.18755367639E+03  0.00000000000E+00 0.  1.
          5    1    4    4  501    0 -0.38133805467E+03  0.50872702939E+02  0.35087517295E+02  0.38633579968E+03  0.41800000000E+01 0.  1.
         -5    1    4    4    0  501 -0.27391809896E+03  0.13659689049E+03  0.76390951313E+02  0.31550417632E+03  0.41800000000E+01 0.  1.
</event>
<event>
11    1  0.8453735E-009  0.1301881E+03  0.7561462E-02  0.1119038E+00
         22   -1    0    0    0    0  0.00000000000E+00  0.00000000000E+00  0.65980902035E+03  0.65980902035E+03  0.00000000000E+00 0. -1.
         22   -1    0    0    0    0 -0.00000000000E+00 -0.00000000000E+00 -0.14732633345E+04  0.14732633345E+04  0.00000000000E+00 0.  1.
        -24    2    1    2    0    0 -0.16770684920E+02  0.28636406156E+02 -0.10645512687E+04  0.10681180078E+04  0.80655906377E+02 0.  0.
         25    2    1    2    0    0  0.22084387660E+02 -0.50457715401E+02 -0.39279009558E+03  0.41589108824E+03  0.12509051472E+03 0.  0.
         24    2    1    2    0    0 -0.53137027404E+01  0.21821309244E+02  0.64388705007E+03  0.64906325889E+03  0.78664959296E+02 0.  0.
        -13    1    5    5    0    0 -0.33385938831E+02 -0.13118498419E+02  0.34033762359E+03  0.34222275486E+03  0.00000000000E+00 0.  1.
         14    1    5    5    0    0  0.28072236090E+02  0.34939807663E+02  0.30354942648E+03  0.30684050403E+03  0.00000000000E+00 0. -1.
         13    1    3    3    0    0 -0.42905260989E+02  0.17502679332E+02 -0.35673676205E+03  0.35973368288E+03  0.00000000000E+00 0. -1.
        -14    1    3    3    0    0  0.26134576069E+02  0.11133726825E+02 -0.70781450663E+03  0.70838432488E+03  0.00000000000E+00 0.  1.
          5    1    4    4  501    0  0.22778171796E+02 -0.73095937599E+02 -0.12181027453E+03  0.14393427870E+03  0.41800000000E+01 0. -1.
         -5    1    4    4    0  501 -0.69378413653E+00  0.22638222199E+02 -0.27097982104E+03  0.27195680954E+03  0.41800000000E+01 0. -1.
</event>
<event>
11    1  0.8453735E-009  0.1331292E+03  0.7561462E-02  0.1115483E+00
         22   -1    0    0    0    0  0.00000000000E+00  0.00000000000E+00  0.69981129717E+03  0.69981129717E+03  0.00000000000E+00 0. -1.
         22   -1    0    0    0    0 -0.00000000000E+00 -0.00000000000E+00 -0.53506101865E+02  0.53506101865E+02  0.00000000000E+00 0. -1.
         24    2    1    2    0    0 -0.18976260155E+02 -0.45977589085E+02  0.50779795122E+02  0.10780980136E+03  0.81057563058E+02 0.  0.
         25    2    1    2    0    0  0.47453922274E+01  0.35410912295E+02  0.18254243365E+03  0.22415824531E+03  0.12509487360E+03 0.  0.
        -24    2    1    2    0    0  0.14230867928E+02  0.10566676790E+02  0.41298296653E+03  0.42134935236E+03  0.81646640050E+02 0.  0.
        -13    1    3    3    0    0  0.30915144297E+02 -0.21303565227E+02  0.31169867346E+02  0.48797014957E+02  0.00000000000E+00 0.  1.
         14    1    3    3    0    0 -0.49891404452E+02 -0.24674023858E+02  0.19609927776E+02  0.59012786402E+02  0.00000000000E+00 0. -1.
         11    1    5    5    0    0  0.44232501486E+02 -0.97538060694E+01  0.27409030681E+03  0.27780775225E+03  0.00000000000E+00 0. -1.
        -12    1    5    5    0    0 -0.30001633559E+02  0.20320482859E+02  0.13889265972E+03  0.14354160012E+03  0.00000000000E+00 0.  1.
          5    1    4    4  501    0 -0.84767661967E+01  0.53424110089E+02  0.19201385459E+03  0.19953141070E+03  0.41800000000E+01 0.  1.
         -5    1    4    4    0  501  0.13222158424E+02 -0.18013197794E+02 -0.94714209379E+01  0.24626834606E+02  0.41800000000E+01 0.  1.
</event>
<event>
11    1  0.8453735E-009  0.1447005E+03  0.7561462E-02  0.1102420E+00
         22   -1    0    0    0    0  0.00000000000E+00  0.00000000000E+00  0.28954570468E+03  0.28954570468E+03  0.00000000000E+00 0. -1.
         22   -1    0    0    0    0 -0.00000000000E+00 -0.00000000000E+00 -0.22127545271E+04  0.22127545271E+04  0.00000000000E+00 0.  1.
        -24    2    1    2    0    0 -0.57893347274E+02 -0.88648034032E+01 -0.20644651174E+04  0.20669139772E+04  0.81773735111E+02 0.  0.
         25    2    1    2    0    0  0.31092424585E+02 -0.60918797634E+02 -0.99129415307E+02  0.17364260264E+03  0.12508906308E+03 0.  0.
         24    2    1    2    0    0  0.26800922688E+02  0.69783601037E+02  0.24038571024E+03  0.26174365198E+03  0.71668746576E+02 0.  0.
        -11    1    5    5    0    0  0.30567277391E+02 -0.28943376301E+01  0.76084754061E+02  0.82046483398E+02  0.00000000000E+00 0.  1.
         12    1    5    5    0    0 -0.37663547023E+01  0.72677938667E+02  0.16430095618E+03  0.17969716859E+03  0.00000000000E+00 0. -1.
         13    1    3    3    0    0 -0.19053096841E+02 -0.21141992587E+02 -0.20112887902E+03  0.20313254374E+03  0.00000000000E+00 0. -1.
        -14    1    3    3    0    0 -0.38840250433E+02  0.12277189183E+02 -0.18633362384E+04  0.18637814334E+04  0.00000000000E+00 0.  1.
          5    1    4    4  501    0  0.63040634128E+02 -0.15306274952E+02 -0.98227730888E+02  0.11779033543E+03  0.41800000000E+01 0. -1.
         -5    1    4    4    0  501 -0.31948209543E+02 -0.45612522682E+02 -0.90168441873E+00  0.55852267216E+02  0.41800000000E+01 0. -1.
</event>
<event>
11    1  0.8453735E-009  0.1676631E+03  0.7561462E-02  0.1080083E+00
         22   -1    0    0    0    0  0.00000000000E+00  0.00000000000E+00  0.68061299081E+03  0.68061299081E+03  0.00000000000E+00 0.  1.
         22   -1    0    0    0    0 -0.00000000000E+00 -0.00000000000E+00 -0.76946854440E+03  0.76946854440E+03  0.00000000000E+00 0.  1.
         24    2    1    2    0    0  0.86341176263E+02 -0.47419655598E+02 -0.68467367859E+03  0.69646677891E+03  0.81144966065E+02 0.  0.
         25    2    1    2    0    0 -0.17577132323E+03  0.94105701976E+02  0.12677635377E+03  0.26734194588E+03  0.12509208983E+03 0.  0.
        -24    2    1    2    0    0  0.89430146966E+02 -0.46686046378E+02  0.46904177123E+03  0.48627281042E+03  0.79269949448E+02 0.  0.
        -13    1    3    3    0    0  0.82422064476E+02 -0.28106173721E+02 -0.65550932114E+03  0.66126834479E+03  0.00000000000E+00 0.  1.
         14    1    3    3    0    0  0.39191117867E+01 -0.19313481877E+02 -0.29164357446E+02  0.35198434122E+02  0.00000000000E+00 0. -1.
         13    1    5    5    0    0  0.46589363197E+02  0.10722157171E+02  0.28123177981E+03  0.28526627454E+03  0.00000000000E+00 0. -1.
        -14    1    5    5    0    0  0.42840783769E+02 -0.57408203550E+02  0.18780999142E+03  0.20100653588E+03  0.00000000000E+00 0.  1.
          5    1    4    4  501    0 -0.31606708889E+02  0.48316284815E+02  0.97241239991E+02  0.11316703840E+03  0.41800000000E+01 0. -1.
         -5    1    4    4    0  501 -0.14416461434E+03  0.45789417161E+02  0.29535113781E+02  0.15417490748E+03  0.41800000000E+01 0. -1.
</event>
<event>
11    1  0.8453735E-009  0.1485137E+03  0.7561462E-02  0.1098407E+00
         22   -1    0    0    0    0  0.00000000000E+00  0.00000000000E+00  0.66532596736E+03  0.66532596736E+03  0.00000000000E+00 0. -1.
         22   -1    0    0    0    0 -0.00000000000E+00 -0.00000000000E+00 -0.14381640641E+04  0.14381640641E+04  0.00000000000E+00 0.  1.
        -24    2    1    2    0    0 -0.50988229129E+02 -0.27894289168E+02 -0.11376125237E+04  0.11417637377E+04  0.78001845001E+02 0.  0.
         25    2    1    2    0    0 -0.37959777031E+01  0.86585574001E+02 -0.27379560921E+03  0.31324639377E+03  0.12509115283E+03 0.  0.
         24    2    1    2    0    0  0.54784206832E+02 -0.58691284833E+02  0.63857003611E+03  0.64847990003E+03  0.79426151188E+02 0.  0.
        -13    1    5    5    0    0  0.25887791622E+02 -0.56969750220E+02  0.21498437471E+03  0.22390625620E+03  0.00000000000E+00 0.  1.
         14    1    5    5    0    0  0.28896415210E+02 -0.17215346127E+01  0.42358566140E+03  0.42457364383E+03  0.00000000000E+00 0. -1.
         11    1    3    3    0    0 -0.14015003355E+02  0.17421537886E+02 -0.98466607835E+02  0.10097327943E+03  0.00000000000E+00 0. -1.
        -12    1    3    3    0    0 -0.36973225774E+02 -0.45315827054E+02 -0.10391459158E+04  0.10407904582E+04  0.00000000000E+00 0.  1.
          5    1    4    4  501    0 -0.22199986755E+02 -0.16237824911E+02 -0.10121846756E+02  0.29604569775E+02  0.41800000000E+01 0.  1.
         -5    1    4    4    0  501  0.18404009052E+02  0.10282339891E+03 -0.26367376246E+03  0.28364182400E+03  0.41800000000E+01 0.  1.
</event>
<event>
11    1  0.8453735E-009  0.1345310E+03  0.7561462E-02  0.1113824E+00
         22   -1    0    0    0    0  0.00000000000E+00  0.00000000000E+00  0.22196449088E+04  0.22196449088E+04  0.00000000000E+00 0. -1.
         22   -1    0    0    0    0 -0.00000000000E+00 -0.00000000000E+00 -0.31335920716E+03  0.31335920716E+03  0.00000000000E+00 0.  1.
        -24    2    1    2    0    0 -0.48869649429E+02  0.16616498698E+01 -0.24701741767E+03  0.26457963801E+03  0.81202072032E+02 0.  0.
         25    2    1    2    0    0  0.97064501573E+02  0.15079870504E+01  0.55539505913E+02  0.16779693580E+03  0.12508950178E+03 0.  0.
         24    2    1    2    0    0 -0.48194852144E+02 -0.31696369202E+01  0.20977636134E+04  0.21006275422E+04  0.98443398815E+02 0.  0.
        -11    1    5    5    0    0  0.78834628368E+01  0.38788592549E+02  0.78287126695E+03  0.78387124231E+03  0.00000000000E+00 0.  1.
         12    1    5    5    0    0 -0.56078314981E+02 -0.41958229469E+02  0.13148923465E+04  0.13167562999E+04  0.00000000000E+00 0. -1.
         11    1    3    3    0    0 -0.17321227035E+02 -0.33996816157E+01 -0.23183328419E+01  0.17803297679E+02  0.00000000000E+00 0. -1.
        -12    1    3    3    0    0 -0.31548422394E+02  0.50613314855E+01 -0.24469908483E+03  0.24677634033E+03  0.00000000000E+00 0.  1.
          5    1    4    4  501    0  0.12037251237E+03  0.26134694502E+02  0.50794222537E+02  0.13330449892E+03  0.41800000000E+01 0.  1.
         -5    1    4    4    0  501 -0.23308010795E+02 -0.24626707451E+02  0.47452833756E+01  0.34492436872E+02  0.41800000000E+01 0.  1.
</event>
<event>
11    1  0.8453735E-009  0.1558986E+03  0.7561462E-02  0.1091000E+00
         22   -1    0    0    0    0  0.00000000000E+00  0.00000000000E+00  0.84344624118E+03  0.84344624118E+03  0.00000000000E+00 0. -1.
         22   -1    0    0    0    0 -0.00000000000E+00 -0.00000000000E+00 -0.34831472456E+04  0.34831472456E+04  0.00000000000E+00 0. -1.
         24    2    1    2    0    0  0.73447654712E+01  0.92730788825E+02 -0.34543741692E+04  0.34565651244E+04  0.80551935108E+02 0.  0.
         25    2    1    2    0    0 -0.48478425121E+01 -0.95120314999E+02  0.22312622320E+03  0.27295845642E+03  0.12509848740E+03 0.  0.
        -24    2    1    2    0    0 -0.24969229591E+01  0.23895261748E+01  0.59154694152E+03  0.59706990591E+03  0.80949021377E+02 0.  0.
        -13    1    3    3    0    0  0.39426753120E+01 -0.13578799831E+02 -0.22788433831E+03  0.22832257913E+03  0.00000000000E+00 0.  1.
         14    1    3    3    0    0  0.34020901591E+01  0.10630958866E+03 -0.32264898308E+04  0.32282425453E+04  0.00000000000E+00 0. -1.
         13    1    5    5    0    0  0.23675278172E+02 -0.27000880946E+02  0.17366580111E+03  0.17733972156E+03  0.00000000000E+00 0. -1.
        -14    1    5    5    0    0 -0.26172201131E+02  0.29390407121E+02  0.41788114041E+03  0.41973018435E+03  0.00000000000E+00 0.  1.
          5    1    4    4  501    0 -0.91329176489E+01 -0.12279184091E+03  0.20552014633E+03  0.23961896696E+03  0.41800000000E+01 0.  1.
         -5    1    4    4    0  501  0.42850751368E+01  0.27671525908E+02  0.17606076875E+02  0.33339489467E+02  0.41800000000E+01 0.  1.
</event>
<event>
11    1  0.8453735E-009  0.1577867E+03  0.7561462E-02  0.1089178E+00
         22   -1    0    0    0    0  0.00000000000E+00  0.00000000000E+00  0.24016393316E+04  0.24016393316E+04  0.00000000000E+00 0.  1.
         22   -1    0    0    0    0 -0.00000000000E+00 -0.00000000000E+00 -0.25027285304E+02  0.25027285304E+02  0.00000000000E+00 0. -1.
         24    2    1    2    0    0 -0.76617445869E+02 -0.50894758630E+02  0.22896794096E+03  0.26002797199E+03  0.82022672248E+02 0.  0.
         25    2    1    2    0    0  0.10583906595E+03  0.40426845948E+02  0.87030068474E+03  0.88651396006E+03  0.12508989470E+03 0.  0.
        -24    2    1    2    0    0 -0.29221620078E+02  0.10467912682E+02  0.12773434206E+04  0.12801246849E+04  0.78418839409E+02 0.  0.
        -13    1    3    3    0    0 -0.19394651349E+02 -0.37468232590E+02  0.17573356463E+03  0.18072716092E+03  0.00000000000E+00 0.  1.
         14    1    3    3    0    0 -0.57222794520E+02 -0.13426526040E+02  0.53234376329E+02  0.79300811076E+02  0.00000000000E+00 0. -1.
         13    1    5    5    0    0 -0.32783242125E+02  0.41524606359E+02  0.84178974718E+03  0.84345065792E+03  0.00000000000E+00 0. -1.
        -14    1    5    5    0    0  0.35616220470E+01 -0.31056693677E+02  0.43555367341E+03  0.43667402693E+03  0.00000000000E+00 0.  1.
          5    1    4    4  501    0  0.32796529903E+00  0.11872124578E+02  0.38222034232E+01  0.13158135971E+02  0.41800000000E+01 0. -1.
         -5    1    4    4    0  501  0.10551110065E+03  0.28554721370E+02  0.86647848132E+03  0.87335582409E+03  0.41800000000E+01 0. -1.
</event>
<event>
11    1  0.8453735E-009  0.1327056E+03  0.7561462E-02  0.1115989E+00
         22   -1    0    0    0    0  0.00000000000E+00  0.00000000000E+00  0.28479356582E+04  0.28479356582E+04  0.00000000000E+00 0.  1.
         22   -1    0    0    0    0 -0.00000000000E+00 -0.00000000000E+00 -0.59419541743E+03  0.59419541743E+03  0.00000000000E+00 0. -1.
         24    2    1    2    0    0  0.40085996943E+02 -0.18595275511E+02 -0.57945464975E+03  0.58716498329E+03  0.83918740804E+02 0.  0.
         25    2    1    2    0    0 -0.68760627236E+02 -0.63876394070E+01  0.50269533590E+03  0.52260808821E+03  0.12509111609E+03 0.  0.
        -24    2    1    2    0    0  0.28674630293E+02  0.24982914918E+02  0.23304995546E+04  0.23323580041E+04  0.84966493230E+02 0.  0.
        -13    1    3    3    0    0  0.40465139832E+02 -0.81997681734E+01 -0.10841787478E+03  0.11601335833E+03  0.00000000000E+00 0.  1.
         14    1    3    3    0    0 -0.37914288967E+00 -0.10395507338E+02 -0.47103677497E+03  0.47115162496E+03  0.00000000000E+00 0. -1.
         11    1    5    5    0    0 -0.30223542525E+02  0.69318913294E+01  0.67265536680E+03  0.67336970241E+03  0.00000000000E+00 0. -1.
        -12    1    5    5    0    0  0.58898172818E+02  0.18051023589E+02  0.16578441878E+04  0.16589883017E+04  0.00000000000E+00 0.  1.
          5    1    4    4  501    0  0.14047968207E+02  0.93587340187E+01  0.32935746962E+03  0.32981623142E+03  0.41800000000E+01 0. -1.
         -5    1    4    4    0  501 -0.82808595443E+02 -0.15746373426E+02  0.17333786628E+03  0.19279185678E+03  0.41800000000E+01 0. -1.
</event>
<event>
11    1  0.8453735E-009  0.2098078E+03  0.7561462E-02  0.1047797E+00
         22   -1    0    0    0    0  0.00000000000E+00  0.00000000000E+00  0.17130752537E+04  0.17130752537E+04  0.00000000000E+00 0. -1.
         22   -1    0    0    0    0 -0.00000000000E+00 -0.00000000000E+00 -0.23273647742E+03  0.23273647742E+03  0.00000000000E+00 0. -1.
         24    2    1    2    0    0 -0.15402474973E+03 -0.69420255670E+02 -0.17446310623E+03  0.25574432112E+03  0.80156016143E+02 0.  0.
         25    2    1    2    0    0  0.15719589744E+03  0.39319712499E+02  0.64575352445E+03  0.67743117418E+03  0.12513509278E+03 0.  0.
        -24    2    1    2    0    0 -0.31711477123E+01  0.30100543171E+02  0.10090483580E+04  0.10126362358E+04  0.79608155011E+02 0.  0.
        -13    1    3    3    0    0 -0.92955347783E+02 -0.66093053015E+02 -0.67509544019E+02  0.13253877498E+03  0.00000000000E+00 0.  1.
         14    1    3    3    0    0 -0.61069401944E+02 -0.33272026547E+01 -0.10695356221E+03  0.12320554614E+03  0.00000000000E+00 0. -1.
         11    1    5    5    0    0 -0.63507460815E+01  0.55960549300E+02  0.79814480123E+03  0.80012938878E+03  0.00000000000E+00 0. -1.
        -12    1    5    5    0    0  0.31795983692E+01 -0.25860006129E+02  0.21090355681E+03  0.21250684704E+03  0.00000000000E+00 0.  1.
          5    1    4    4  501    0  0.30025202748E+02  0.42627283464E+02  0.67824246432E+02  0.85651613527E+02  0.41800000000E+01 0. -1.
         -5    1    4    4    0  501  0.12717069469E+03 -0.33075709652E+01  0.57792927802E+03  0.59177956065E+03  0.41800000000E+01 0. -1.
</event>
<event>
11    1  0.8453735E-009  0.2221833E+03  0.7561462E-02  0.1039858E+00
         22   -1    0    0    0    0  0.00000000000E+00  0.00000000000E+00  0.82427933682E+03  0.82427933682E+03  0.00000000000E+00 0. -1.
         22   -1    0    0    0    0 -0.00000000000E+00 -0.00000000000E+00 -0.12050083292E+04  0.12050083292E+04  0.00000000000E+00 0.  1.
         24    2    1    2    0    0 -0.35951845489E+02 -0.26036904482E+02 -0.10725792343E+04  0.10765578343E+04  0.81117822227E+02 0.  0.
         25    2    1    2    0    0  0.29012876113E+02  0.20672882909E+03  0.11923799653E+02  0.24365614515E+03  0.12509030464E+03 0.  0.
        -24    2    1    2    0    0  0.69389693755E+01 -0.18069192461E+03  0.67992644227E+03  0.70907368661E+03  0.88248542383E+02 0.  0.
        -11    1    3    3    0    0 -0.43733270323E+02 -0.11321298073E+02 -0.10276751973E+04  0.10286676246E+04  0.00000000000E+00 0.  1.
         12    1    3    3    0    0  0.77814248339E+01 -0.14715606410E+02 -0.44904036975E+02  0.47890209658E+02  0.00000000000E+00 0. -1.
         13    1    5    5    0    0 -0.27288051194E+02 -0.15314373505E+03  0.56541028419E+03  0.58641830701E+03  0.00000000000E+00 0. -1.
        -14    1    5    5    0    0  0.34227020569E+02 -0.27548189555E+02  0.11451615808E+03  0.12265537960E+03  0.00000000000E+00 0.  1.
          5    1    4    4  501    0 -0.17378740261E+02  0.16895282089E+03 -0.27187717580E+02  0.17205731803E+03  0.41800000000E+01 0. -1.
         -5    1    4    4    0  501  0.46391616374E+02  0.37776008204E+02  0.39111517234E+02  0.71598827127E+02  0.41800000000E+01 0. -1.
</event>
<event>
11    1  0.8453735E-009  0.1724408E+03  0.7561462E-02  0.1075927E+00
         22   -1    0    0    0    0  0.00000000000E+00  0.00000000000E+00  0.14970444542E+03  0.14970444542E+03  0.00000000000E+00 0. -1.
         22   -1    0    0    0    0 -0.00000000000E+00 -0.00000000000E+00 -0.81650100771E+03  0.81650100771E+03  0.00000000000E+00 0. -1.
        -24    2    1    2    0    0  0.57998339665E+02  0.28066447170E+02 -0.34376277685E+03  0.35894456898E+03  0.80726848002E+02 0.  0.
         25    2    1    2    0    0 -0.16296087152E+03  0.18402604708E+02 -0.39735241088E+03  0.44769594575E+03  0.12509124631E+03 0.  0.
         24    2    1    2    0    0  0.10496253185E+03 -0.46469051877E+02  0.74318625445E+02  0.15956493841E+03  0.82226550487E+02 0.  0.
        -13    1    5    5    0    0  0.55644487521E+01 -0.30730780942E+02 -0.47406031264E+01  0.31588246315E+02  0.00000000000E+00 0.  1.
         14    1    5    5    0    0  0.99398083102E+02 -0.15738270935E+02  0.79059228572E+02  0.12797669209E+03  0.00000000000E+00 0. -1.
         13    1    3    3    0    0  0.62008748761E+02  0.41586880817E+02 -0.18415437286E+03  0.19871433422E+03  0.00000000000E+00 0. -1.
        -14    1    3    3    0    0 -0.40104090965E+01 -0.13520433647E+02 -0.15960840399E+03  0.16023023476E+03  0.00000000000E+00 0.  1.
          5    1    4    4  501    0 -0.12253823303E+03 -0.44105990724E+02 -0.22693585560E+03  0.26168361036E+03  0.41800000000E+01 0.  1.
         -5    1    4    4    0  501 -0.40422638489E+02  0.62508595432E+02 -0.17041655528E+03  0.18601233539E+03  0.41800000000E+01 0.  1.
</event>
<event>
11    1  0.8453735E-009  0.1435121E+03  0.7561462E-02  0.1103699E+00
         22   -1    0    0    0    0  0.00000000000E+00  0.00000000000E+00  0.15246139187E+03  0.15246139187E+03  0.00000000000E+00 0.  1.
         22   -1    0    0    0    0 -0.00000000000E+00 -0.00000000000E+00 -0.13937839171E+04  0.13937839171E+04  0.00000000000E+00 0. -1.
        -24    2    1    2    0    0 -0.68725242968E+02 -0.17559326791E+02 -0.94366200812E+03  0.94982687138E+03  0.81496080009E+02 0.  0.
         25    2    1    2    0    0  0.62526213708E+02  0.29378565737E+02 -0.42341819589E+03  0.44688145163E+03  0.12508971051E+03 0.  0.
         24    2    1    2    0    0  0.61990292596E+01 -0.11819238946E+02  0.12575767878E+03  0.14953698597E+03  0.79800965078E+02 0.  0.
        -11    1    5    5    0    0 -0.20950915013E+01  0.29925881790E+02  0.86801406694E+02  0.91839163832E+02  0.00000000000E+00 0.  1.
         12    1    5    5    0    0  0.82941207609E+01 -0.41745120735E+02  0.38956272083E+02  0.57697822134E+02  0.00000000000E+00 0. -1.
         11    1    3    3    0    0 -0.39982998739E+02  0.30513549535E+02 -0.53194957158E+03  0.53432205981E+03  0.00000000000E+00 0. -1.
        -12    1    3    3    0    0 -0.28742244229E+02 -0.48072876326E+02 -0.41171243654E+03  0.41550481157E+03  0.00000000000E+00 0.  1.
          5    1    4    4  501    0  0.44257102470E+02  0.16508729096E+02 -0.42139738542E+03  0.42405714013E+03  0.41800000000E+01 0.  1.
         -5    1    4    4    0  501  0.18269111239E+02  0.12869836641E+02 -0.20208104713E+01  0.22824311503E+02  0.41800000000E+01 0.  1.
</event>
<event>
11    1  0.8453735E-009  0.2726835E+03  0.7561462E-02  0.1012464E+00
         22   -1    0    0    0    0  0.00000000000E+00  0.00000000000E+00  0.64709336094E+03  0.64709336094E+03  0.00000000000E+00 0. -1.
         22   -1    0    0    0    0 -0.00000000000E+00 -0.00000000000E+00 -0.81641813490E+03  0.81641813490E+03  0.00000000000E+00 0. -1.
        -24    2    1    2    0    0 -0.92927973584E+01 -0.11969869873E+02 -0.11471099525E+03  0.14196853432E+03  0.82260673710E+02 0.  0.
         25    2    1    2    0    0  0.21653766878E+03  0.13642807252E+03 -0.63036716752E+03  0.69174512698E+03  0.12508946338E+03 0.  0.
         24    2    1    2    0    0 -0.20724487142E+03 -0.12445820265E+03  0.57575338881E+03  0.62979783453E+03  0.81933306495E+02 0.  0.
        -13    1    5    5    0    0 -0.82588414806E+02 -0.91398658765E+02  0.33035771631E+03  0.35257734160E+03  0.00000000000E+00 0.  1.
         14    1    5    5    0    0 -0.12465645661E+03 -0.33059543882E+02  0.24539567250E+03  0.27722049293E+03  0.00000000000E+00 0. -1.
         11    1    3    3    0    0  0.15850854204E+00  0.31550315568E+02 -0.20125336795E+02  0.37422943745E+02  0.00000000000E+00 0. -1.
        -12    1    3    3    0    0 -0.94513059004E+01 -0.43520185441E+02 -0.94585658457E+02  0.10454559058E+03  0.00000000000E+00 0.  1.
          5    1    4    4  501    0  0.21248020354E+03  0.13587788994E+03 -0.63564449779E+03  0.68386551152E+03  0.41800000000E+01 0. -1.
         -5    1    4    4    0  501  0.40574652390E+01  0.55018258024E+00  0.52773302743E+01  0.78796154640E+01  0.41800000000E+01 0. -1.
</event>
<event>
11    1  0.8453735E-009  0.1339438E+03  0.7561462E-02  0.1114516E+00
         22   -1    0    0    0    0  0.00000000000E+00  0.00000000000E+00  0.71023254980E+03  0.71023254980E+03  0.00000000000E+00 0. -1.
         22   -1    0    0    0    0 -0.00000000000E+00 -0.00000000000E+00 -0.20734387814E+03  0.20734387814E+03  0.00000000000E+00 0. -1.
        -24    2    1    2    0    0 -0.29217542992E+02  0.39316876252E+02 -0.97505489442E+02  0.13670047976E+03  0.82342085945E+02 0.  0.
         25    2    1    2    0    0  0.34452251615E+02 -0.30168140143E+02 -0.36891844155E+02  0.13822534093E+03  0.12509261524E+03 0.  0.
         24    2    1    2    0    0 -0.52347086227E+01 -0.91487361088E+01  0.63728600525E+03  0.64265060725E+03  0.82190321611E+02 0.  0.
        -11    1    5    5    0    0 -0.63245152523E+01 -0.34959292488E+02  0.13177825285E+03  0.13648318412E+03  0.00000000000E+00 0.  1.
         12    1    5    5    0    0  0.10898066297E+01  0.25810556379E+02  0.50550775240E+03  0.50616742313E+03  0.00000000000E+00 0. -1.
         13    1    3    3    0    0 -0.11871945438E+02 -0.51040748077E+01 -0.86890137573E+02  0.87845834708E+02  0.00000000000E+00 0. -1.
        -14    1    3    3    0    0 -0.17345597554E+02  0.44420951060E+02 -0.10615351869E+02  0.48854645049E+02  0.00000000000E+00 0.  1.
          5    1    4    4  501    0 -0.24469675110E+02 -0.59946329095E+02 -0.58303248791E+01  0.65144396997E+02  0.41800000000E+01 0. -1.
         -5    1    4    4    0  501  0.58921926725E+02  0.29778188951E+02 -0.31061519276E+02  0.73080943932E+02  0.41800000000E+01 0. -1.
</event>
<event>
11    1  0.8453735E-009  0.1264583E+03  0.7561462E-02  0.1123699E+00
         22   -1    0    0    0    0  0.00000000000E+00  0.00000000000E+00  0.66380641667E+02  0.66380641667E+02  0.00000000000E+00 0.  1.
         22   -1    0    0    0    0 -0.00000000000E+00 -0.00000000000E+00 -0.57816496785E+03  0.57816496785E+03  0.00000000000E+00 0.  1.
        -24    2    1    2    0    0  0.36180601048E+02  0.92718576928E+01 -0.37655889047E+03  0.38692015795E+03  0.80719312412E+02 0.  0.
         25    2    1    2    0    0 -0.34588433152E+02  0.76187029728E+01 -0.80547030303E+02  0.15293903054E+03  0.12509244033E+03 0.  0.
         24    2    1    2    0    0 -0.15921678964E+01 -0.16890560666E+02 -0.54678405409E+02  0.10468642103E+03  0.87645266227E+02 0.  0.
        -13    1    5    5    0    0 -0.36614171464E+02  0.16954619182E+02 -0.21135482581E+02  0.45549591519E+02  0.00000000000E+00 0.  1.
         14    1    5    5    0    0  0.35022003568E+02 -0.33845179848E+02 -0.33542922828E+02  0.59136829512E+02  0.00000000000E+00 0. -1.
         13    1    3    3    0    0  0.41705718488E+02 -0.23156873386E+02 -0.13602418054E+03  0.14414640277E+03  0.00000000000E+00 0. -1.
        -14    1    3    3    0    0 -0.55251174401E+01  0.32428731078E+02 -0.24053470993E+03  0.24277375518E+03  0.00000000000E+00 0.  1.
          5    1    4    4  501    0 -0.59519550206E+01  0.19960632901E+02 -0.10867791434E+03  0.11073488204E+03  0.41800000000E+01 0.  1.
         -5    1    4    4    0  501 -0.28636478131E+02 -0.12341929929E+02  0.28130884037E+02  0.42204148502E+02  0.41800000000E+01 0.  1.
</event>
<event>
11    1  0.8453735E-009  0.1658866E+03  0.7561462E-02  0.1081668E+00
         22   -1    0    0    0    0  0.00000000000E+00  0.00000000000E+00  0.14581990153E+03  0.14581990153E+03  0.00000000000E+00 0. -1.
         22   -1    0    0    0    0 -0.00000000000E+00 -0.00000000000E+00 -0.24564302512E+04  0.24564302512E+04  0.00000000000E+00 0. -1.
        -24    2    1    2    0    0 -0.52243476714E+02  0.65468423196E+01 -0.20929380538E+04  0.20952101846E+04  0.82120514706E+02 0.  0.
         25    2    1    2    0    0  0.78923809469E+02  0.98243249034E+02 -0.30038823675E+03  0.34894430301E+03  0.12509328577E+03 0.  0.
         24    2    1    2    0    0 -0.26680332755E+02 -0.10479009135E+03  0.82715940816E+02  0.15809566510E+03  0.80371071010E+02 0.  0.
        -13    1    5    5    0    0  0.19811474175E+02 -0.41596929290E+02  0.28792560698E+01  0.46163721155E+02  0.00000000000E+00 0.  1.
         14    1    5    5    0    0 -0.46491806930E+02 -0.63193162063E+02  0.79836684746E+02  0.11193194394E+03  0.00000000000E+00 0. -1.
         13    1    3    3    0    0 -0.26677878270E+02 -0.27543089722E+02 -0.15924088442E+04  0.15928704461E+04  0.00000000000E+00 0. -1.
        -14    1    3    3    0    0 -0.25565598444E+02  0.34089932041E+02 -0.50052920956E+03  0.50233973854E+03  0.00000000000E+00 0.  1.
          5    1    4    4  501    0  0.69591292294E+02  0.12510238192E+03 -0.21071419942E+03  0.25477735410E+03  0.41800000000E+01 0. -1.
         -5    1    4    4    0  501  0.93325171744E+01 -0.26859132888E+02 -0.89674037326E+02  0.94166948908E+02  0.41800000000E+01 0. -1.
</event>
<event>
11    1  0.8453735E-009  0.2061612E+03  0.7561462E-02  0.1050250E+00
         22   -1    0    0    0    0  0.00000000000E+00  0.00000000000E+00  0.57642563456E+03  0.57642563456E+03  0.00000000000E+00 0.  1.
         22   -1    0    0    0    0 -0.00000000000E+00 -0.00000000000E+00 -0.51454002129E+03  0.51454002129E+03  0.00000000000E+00 0.  1.
        -24    2    1    2    0    0  0.49954529387E+02  0.12556584299E+03 -0.20870005738E+03  0.26093461954E+03  0.79176548237E+02 0.  0.
         25    2    1    2    0    0 -0.10048529413E+03 -0.21395227139E+03 -0.20668980404E+03  0.33799461014E+03  0.12508722005E+03 0.  0.
         24    2    1    2    0    0  0.50530764746E+02  0.88386428401E+02  0.47727547469E+03  0.49203642617E+03  0.62788908439E+02 0.  0.
        -13    1    5    5    0    0  0.55693757835E+02  0.58952431912E+02  0.25051377840E+03  0.26331414139E+03  0.00000000000E+00 0.  1.
         14    1    5    5    0    0 -0.51629930891E+01  0.29433996489E+02  0.22676169629E+03  0.22872228478E+03  0.00000000000E+00 0. -1.
         11    1    3    3    0    0  0.15646248066E+02  0.51333234822E+00 -0.67218683271E+02  0.69017533782E+02  0.00000000000E+00 0. -1.
        -12    1    3    3    0    0  0.34308281321E+02  0.12505251064E+03 -0.14148137411E+03  0.19191708576E+03  0.00000000000E+00 0.  1.
          5    1    4    4  501    0  0.27232808519E+02 -0.16448243153E+02 -0.27949724883E+02  0.42553849223E+02  0.41800000000E+01 0. -1.
         -5    1    4    4    0  501 -0.12771810265E+03 -0.19750402824E+03 -0.17874007915E+03  0.29544076092E+03  0.41800000000E+01 0. -1.
</event>
<event>
11    1  0.8453735E-009  0.1356217E+03  0.7561462E-02  0.1112548E+00
         22   -1    0    0    0    0  0.00000000000E+00  0.00000000000E+00  0.70733689520E+03  0.70733689520E+03  0.00000000000E+00 0. -1.
         22   -1    0    0    0    0 -0.00000000000E+00 -0.00000000000E+00 -0.46651300999E+03  0.46651300999E+03  0.00000000000E+00 0.  1.
        -24    2    1    2    0    0  0.38036958099E+02  0.29590944973E+02 -0.36291165106E+03  0.37484656471E+03  0.80514883029E+02 0.  0.
         25    2    1    2    0    0  0.76195099160E+01 -0.57048143353E+00 -0.52497336983E+02  0.13587257964E+03  0.12508798954E+03 0.  0.
         24    2    1    2    0    0 -0.45656468015E+02 -0.29020463540E+02  0.65623287326E+03  0.66313076084E+03  0.78575579201E+02 0.  0.
        -11    1    5    5    0    0 -0.83167766559E+01 -0.23548613154E+02  0.51647660456E+02  0.57368865999E+02  0.00000000000E+00 0.  1.
         12    1    5    5    0    0 -0.37339691359E+02 -0.54718503855E+01  0.60458521281E+03  0.60576189484E+03  0.00000000000E+00 0. -1.
         13    1    3    3    0    0  0.36932312152E+02 -0.15894131044E+02 -0.95922558854E+02  0.10400844379E+03  0.00000000000E+00 0. -1.
        -14    1    3    3    0    0  0.11046459475E+01  0.45485076018E+02 -0.26698909221E+03  0.27083812092E+03  0.00000000000E+00 0.  1.
          5    1    4    4  501    0  0.27175338013E+02 -0.50314743646E+02 -0.58513171652E+02  0.81922744589E+02  0.41800000000E+01 0.  1.
         -5    1    4    4    0  501 -0.19555828097E+02  0.49744262212E+02  0.60158346687E+01  0.53949835054E+02  0.41800000000E+01 0.  1.
</event>
<event>
11    1  0.8453735E-009  0.1512530E+03  0.7561462E-02  0.1095605E+00
         22   -1    0    0    0    0  0.00000000000E+00  0.00000000000E+00  0.16025764630E+03  0.16025764630E+03  0.00000000000E+00 0. -1.
         22   -1    0    0    0    0 -0.00000000000E+00 -0.00000000000E+00 -0.24292839910E+03  0.24292839910E+03  0.00000000000E+00 0. -1.
        -24    2    1    2    0    0 -0.73417335632E+01  0.37937119995E+02 -0.98077495237E+02  0.13217159361E+03  0.79730853248E+02 0.  0.
         25    2    1    2    0    0  0.79198666568E+02  0.18214089278E+02  0.15504145822E+01  0.14918192304E+03  0.12509460636E+03 0.  0.
         24    2    1    2    0    0 -0.71856933004E+02 -0.56151209273E+02  0.13856327848E+02  0.12183252875E+03  0.79591394746E+02 0.  0.
        -11    1    5    5    0    0 -0.44841950273E+01 -0.51660160133E+02 -0.39416299872E+01  0.52004005585E+02  0.00000000000E+00 0.  1.
         12    1    5    5    0    0 -0.67372737977E+02 -0.44910491407E+01  0.17797957835E+02  0.69828523169E+02  0.00000000000E+00 0. -1.
         11    1    3    3    0    0  0.37566650081E+01  0.15703349252E+02 -0.10511227988E+03  0.10634518838E+03  0.00000000000E+00 0. -1.
        -12    1    3    3    0    0 -0.11098398571E+02  0.22233770743E+02  0.70347846400E+01  0.25826405232E+02  0.00000000000E+00 0.  1.
          5    1    4    4  501    0  0.44185474488E+02 -0.38868911340E+02 -0.39058053582E+02  0.70754168599E+02  0.41800000000E+01 0.  1.
         -5    1    4    4    0  501  0.35013192080E+02  0.57083000619E+02  0.40608468164E+02  0.78427754436E+02  0.41800000000E+01 0.  1.
</event>
<event>
11    1  0.8453735E-009  0.1455200E+03  0.7561462E-02  0.1101546E+00
         22   -1    0    0    0    0  0.00000000000E+00  0.00000000000E+00  0.33554090048E+04  0.33554090048E+04  0.00000000000E+00 0. -1.
         22   -1    0    0    0    0 -0.00000000000E+00 -0.00000000000E+00 -0.14351830645E+03  0.14351830645E+03  0.00000000000E+00 0.  1.
        -24    2    1    2    0    0  0.48299054522E+01  0.19179806962E+02 -0.11565779216E+03  0.14395013619E+03  0.83388991124E+02 0.  0.
         25    2    1    2    0    0 -0.41489589819E+01 -0.92059979671E+02  0.46393092223E+03  0.48925667769E+03  0.12509173574E+03 0.  0.
         24    2    1    2    0    0 -0.68094647032E+00  0.72880172709E+02  0.28636175683E+04  0.28657204974E+04  0.82075625842E+02 0.  0.
        -11    1    5    5    0    0  0.28497279321E+02  0.44960354195E+01  0.42956668913E+03  0.43053437688E+03  0.00000000000E+00 0.  1.
         12    1    5    5    0    0 -0.29178225791E+02  0.68384137289E+02  0.24340508792E+04  0.24351861205E+04  0.00000000000E+00 0. -1.
         13    1    3    3    0    0  0.12164151181E+02 -0.20779646909E+02 -0.30904124918E+01  0.24275727568E+02  0.00000000000E+00 0. -1.
        -14    1    3    3    0    0 -0.73342457287E+01  0.39959453871E+02 -0.11256737967E+03  0.11967440862E+03  0.00000000000E+00 0.  1.
          5    1    4    4  501    0  0.56443518370E+02 -0.41333169117E+02  0.15094166115E+03  0.16641862608E+03  0.41800000000E+01 0.  1.
         -5    1    4    4    0  501 -0.60592477352E+02 -0.50726810554E+02  0.31298926107E+03  0.32283805161E+03  0.41800000000E+01 0.  1.
</event>
<event>
11    1  0.8453735E-009  0.1696606E+03  0.7561462E-02  0.1078327E+00
         22   -1    0    0    0    0  0.00000000000E+00  0.00000000000E+00  0.40729487534E+04  0.40729487534E+04  0.00000000000E+00 0.  1.
         22   -1    0    0    0    0 -0.00000000000E+00 -0.00000000000E+00 -0.36600502644E+03  0.36600502644E+03  0.00000000000E+00 0.  1.
        -24    2    1    2    0    0  0.60123460814E+01 -0.12150049093E+03 -0.28915988123E+03  0.32351122136E+03  0.79041481727E+02 0.  0.
         25    2    1    2    0    0  0.29640081386E+02  0.76611493114E+02  0.35814401373E+02  0.15387562403E+03  0.12508869263E+03 0.  0.
         24    2    1    2    0    0 -0.35652427468E+02  0.44888997811E+02  0.39602892068E+04  0.39615669345E+04  0.82679240446E+02 0.  0.
        -11    1    5    5    0    0 -0.89400775560E+01  0.29457467805E+02  0.35449401790E+04  0.35450738413E+04  0.00000000000E+00 0.  1.
         12    1    5    5    0    0 -0.26712349912E+02  0.15431530006E+02  0.41534902778E+03  0.41649309314E+03  0.00000000000E+00 0. -1.
         13    1    3    3    0    0 -0.20721960235E+02 -0.41012270175E+01 -0.22142903095E+02  0.30602742631E+02  0.00000000000E+00 0. -1.
        -14    1    3    3    0    0  0.26734306317E+02 -0.11739926391E+03 -0.26701697814E+03  0.29290847873E+03  0.00000000000E+00 0.  1.
          5    1    4    4  501    0 -0.36396740174E+02  0.28589338445E+02  0.52835255763E+02  0.70364121678E+02  0.41800000000E+01 0.  1.
         -5    1    4    4    0  501  0.66036821560E+02  0.48022154669E+02 -0.17020854389E+02  0.83511502351E+02  0.41800000000E+01 0.  1.
</event>
<event>
11    1  0.8453735E-009  0.1347903E+03  0.7561462E-02  0.1113519E+00
         22   -1    0    0    0    0  0.00000000000E+00  0.00000000000E+00  0.63386752947E+03  0.63386752947E+03  0.00000000000E+00 0. -1.
         22   -1    0    0    0    0 -0.00000000000E+00 -0.00000000000E+00 -0.89371009318E+03  0.89371009318E+03  0.00000000000E+00 0.  1.
        -24    2    1    2    0    0  0.27137539079E+02  0.35791420523E+02 -0.86199422872E+03  0.86699558403E+03  0.81423710166E+02 0.  0.
         25    2    1    2    0    0 -0.37329100344E+02  0.18264607666E+02  0.15477178275E+03  0.20329345867E+03  0.12508744132E+03 0.  0.
         24    2    1    2    0    0  0.10191561266E+02 -0.54056028189E+02  0.44737988226E+03  0.45728857994E+03  0.77059484777E+02 0.  0.
        -13    1    5    5    0    0 -0.33020530070E+02 -0.17136192723E+02  0.20358728543E+03  0.20695841925E+03  0.00000000000E+00 0.  1.
         14    1    5    5    0    0  0.43212091335E+02 -0.36919835466E+02  0.24379259682E+03  0.25033016070E+03  0.00000000000E+00 0. -1.
         13    1    3    3    0    0  0.95526805744E+00  0.49302946342E+02 -0.28388492316E+03  0.28813597945E+03  0.00000000000E+00 0. -1.
        -14    1    3    3    0    0  0.26182271021E+02 -0.13511525819E+02 -0.57810930556E+03  0.57885960458E+03  0.00000000000E+00 0.  1.
          5    1    4    4  501    0 -0.74736372252E+02 -0.10686681145E+02  0.57304012775E+02  0.94873351218E+02  0.41800000000E+01 0. -1.
         -5    1    4    4    0  501  0.37407271907E+02  0.28951288811E+02  0.97467769977E+02  0.10842010745E+03  0.41800000000E+01 0. -1.
</event>
<event>
11    1  0.8453735E-009  0.1387720E+03  0.7561462E-02  0.1108937E+00
         22   -1    0    0    0    0  0.00000000000E+00  0.00000000000E+00  0.27201273451E+04  0.27201273451E+04  0.00000000000E+00 0.  1.
         22   -1    0    0    0    0 -0.00000000000E+00 -0.00000000000E+00 -0.72594306973E+03  0.72594306973E+03  0.00000000000E+00 0. -1.
        -24    2    1    2    0    0  0.32138095712E+02  0.21553835886E+01 -0.70337271039E+03  0.70858479895E+03  0.79509400130E+02 0.  0.
         25    2    1    2    0    0 -0.90116365116E+02  0.53981554015E+01  0.29511720156E+03  0.33300417900E+03  0.12509005248E+03 0.  0.
         24    2    1    2    0    0  0.57978269403E+02 -0.75535389900E+01  0.24024397842E+04  0.24044814369E+04  0.79972044955E+02 0.  0.
        -13    1    5    5    0    0  0.76670374540E+02 -0.45899959490E+00  0.16560444655E+04  0.16578183944E+04  0.00000000000E+00 0.  1.
         14    1    5    5    0    0 -0.18692105137E+02 -0.70945393951E+01  0.74639531864E+03  0.74666304246E+03  0.00000000000E+00 0. -1.
         11    1    3    3    0    0  0.50856304043E+02  0.18839234100E+02 -0.58922092077E+03  0.59171156307E+03  0.00000000000E+00 0. -1.
        -12    1    3    3    0    0 -0.18718208331E+02 -0.16683850511E+02 -0.11415178962E+03  0.11687323588E+03  0.00000000000E+00 0.  1.
          5    1    4    4  501    0 -0.11098379581E+03  0.50406511229E+01  0.15203731940E+03  0.18834975441E+03  0.41800000000E+01 0. -1.
         -5    1    4    4    0  501  0.20867430697E+02  0.35750427858E+00  0.14307988216E+03  0.14465442459E+03  0.41800000000E+01 0. -1.
</event>
<event>
11    1  0.8453735E-009  0.1304936E+03  0.7561462E-02  0.1118664E+00
         22   -1    0    0    0    0  0.00000000000E+00  0.00000000000E+00  0.67519148642E+03  0.67519148642E+03  0.00000000000E+00 0. -1.
         22   -1    0    0    0    0 -0.00000000000E+00 -0.00000000000E+00 -0.28516397389E+03  0.28516397389E+03  0.00000000000E+00 0. -1.
         24    2    1    2    0    0  0.35362871556E+02  0.18307893888E+02 -0.12644914041E+03  0.15516699807E+03  0.80633122953E+02 0.  0.
         25    2    1    2    0    0 -0.20914396263E+02 -0.52438385540E+02 -0.10757408290E+03  0.17437920381E+03  0.12509487264E+03 0.  0.
        -24    2    1    2    0    0 -0.14448475293E+02  0.34130491651E+02  0.62405073584E+03  0.63080925843E+03  0.84305104941E+02 0.  0.
        -13    1    3    3    0    0  0.39629315628E+02  0.27618020780E+02 -0.27288316983E+02  0.55478734419E+02  0.00000000000E+00 0.  1.
         14    1    3    3    0    0 -0.42664440715E+01 -0.93101268919E+01 -0.99160823423E+02  0.99688263650E+02  0.00000000000E+00 0. -1.
         13    1    5    5    0    0 -0.39245429302E+02  0.29896904802E+02  0.19935094786E+03  0.20536511157E+03  0.00000000000E+00 0. -1.
        -14    1    5    5    0    0  0.24796954009E+02  0.42335868486E+01  0.42469978799E+03  0.42544414687E+03  0.00000000000E+00 0.  1.
          5    1    4    4  501    0 -0.45609426119E+02  0.19982018668E+02 -0.11122518477E+02  0.51192613122E+02  0.41800000000E+01 0.  1.
         -5    1    4    4    0  501  0.24695029856E+02 -0.72420404208E+02 -0.96451564423E+02  0.12318659069E+03  0.41800000000E+01 0.  1.
</event>
<event>
11    1  0.8453735E-009  0.1291316E+03  0.7561462E-02  0.1120341E+00
         22   -1    0    0    0    0  0.00000000000E+00  0.00000000000E+00  0.80055539091E+03  0.80055539091E+03  0.00000000000E+00 0. -1.
         22   -1    0    0    0    0 -0.00000000000E+00 -0.00000000000E+00 -0.84510267011E+02  0.84510267011E+02  0.00000000000E+00 0. -1.
         24    2    1    2    0    0  0.31736941634E+02  0.21970402824E+01 -0.36823109990E+02  0.93504042182E+02  0.79843622318E+02 0.  0.
         25    2    1    2    0    0 -0.33835032386E+02 -0.48263600057E+01  0.23930512177E+03  0.27218265208E+03  0.12509337161E+03 0.  0.
        -24    2    1    2    0    0  0.20980907514E+01  0.26293197233E+01  0.51356311212E+03  0.51937896366E+03  0.77434633430E+02 0.  0.
        -13    1    3    3    0    0 -0.72911176335E+01  0.39234388522E+01  0.21651232588E+02  0.23180371899E+02  0.00000000000E+00 0.  1.
         14    1    3    3    0    0  0.39028059268E+02 -0.17263985698E+01 -0.58474342578E+02  0.70323670284E+02  0.00000000000E+00 0. -1.
         11    1    5    5    0    0 -0.14862629887E+01 -0.11932991945E+02  0.49656597966E+03  0.49671156362E+03  0.00000000000E+00 0. -1.
        -12    1    5    5    0    0  0.35843537401E+01  0.14562311668E+02  0.16997132461E+02  0.22667400044E+02  0.00000000000E+00 0.  1.
          5    1    4    4  501    0 -0.19404264011E+02 -0.13974207102E+02 -0.69891000928E+01  0.25261113317E+02  0.41800000000E+01 0.  1.
         -5    1    4    4    0  501 -0.14430768375E+02  0.91478470964E+01  0.24629422186E+03  0.24692153876E+03  0.41800000000E+01 0.  1.
</event>
<event>
11    1  0.8453735E-009  0.1264257E+03  0.7561462E-02  0.1123740E+00
         22   -1    0    0    0    0  0.00000000000E+00  0.00000000000E+00  0.30665661088E+03  0.30665661088E+03  0.00000000000E+00 0. -1.
         22   -1    0    0    0    0 -0.00000000000E+00 -0.00000000000E+00 -0.20455377983E+03  0.20455377983E+03  0.00000000000E+00 0. -1.
         24    2    1    2    0    0  0.82103832066E+01  0.18883197802E+02 -0.14598276021E+03  0.17222984558E+03  0.89040259877E+02 0.  0.
         25    2    1    2    0    0  0.23726533285E+02 -0.68650906123E+01  0.79742553874E+02  0.15038739668E+03  0.12508963319E+03 0.  0.
        -24    2    1    2    0    0 -0.31936916492E+02 -0.12018107190E+02  0.16834303738E+03  0.18859314845E+03  0.77869094462E+02 0.  0.
        -11    1    3    3    0    0  0.28876455002E+02 -0.42162394105E+01 -0.72401975007E+01  0.30067370821E+02  0.00000000000E+00 0.  1.
         12    1    3    3    0    0 -0.20666071795E+02  0.23099437213E+02 -0.13874256271E+03  0.14216247476E+03  0.00000000000E+00 0. -1.
         11    1    5    5    0    0 -0.33785080957E+02  0.16418263768E+02  0.15016648860E+03  0.15479329888E+03  0.00000000000E+00 0. -1.
        -12    1    5    5    0    0  0.18481644649E+01 -0.28436370958E+02  0.18176548778E+02  0.33799849565E+02  0.00000000000E+00 0.  1.
          5    1    4    4  501    0  0.40255185060E+02 -0.28673062212E+02 -0.14892530380E+02  0.51786912265E+02  0.41800000000E+01 0. -1.
         -5    1    4    4    0  501 -0.16528651775E+02  0.21807971600E+02  0.94635084254E+02  0.98600484413E+02  0.41800000000E+01 0. -1.
</event>
<event>
11    1  0.8453735E-009  0.1460208E+03  0.7561462E-02  0.1101015E+00
         22   -1    0    0    0    0  0.00000000000E+00  0.00000000000E+00  0.67208650871E+03  0.67208650871E+03  0.00000000000E+00 0. -1.
         22   -1    0    0    0    0 -0.00000000000E+00 -0.00000000000E+00 -0.17985156381E+03  0.17985156381E+03  0.00000000000E+00 0. -1.
         24    2    1    2    0    0  0.11156043911E+02 -0.15301156656E+02 -0.13355715454E+03  0.15768188460E+03  0.81654641574E+02 0.  0.
         25    2    1    2    0    0 -0.22848896792E+02  0.86425544533E+02  0.18584571574E+03  0.24119870642E+03  0.12508692612E+03 0.  0.
        -24    2    1    2    0    0  0.11692852881E+02 -0.71124387878E+02  0.43994638370E+03  0.45305748151E+03  0.80702290307E+02 0.  0.
        -13    1    3    3    0    0  0.42243282025E+02 -0.95905426584E+00 -0.40509963768E+02  0.58536072860E+02  0.00000000000E+00 0.  1.
         14    1    3    3    0    0 -0.31087238114E+02 -0.14342102390E+02 -0.93047190772E+02  0.99145811738E+02  0.00000000000E+00 0. -1.
         13    1    5    5    0    0 -0.35101993006E+01 -0.48690995322E+02  0.92817618997E+02  0.10487251747E+03  0.00000000000E+00 0. -1.
        -14    1    5    5    0    0  0.15203052181E+02 -0.22433392556E+02  0.34712876470E+03  0.34818496404E+03  0.00000000000E+00 0.  1.
          5    1    4    4  501    0 -0.58808691792E+02  0.62769884352E+02  0.17731372900E+03  0.19711963754E+03  0.41800000000E+01 0.  1.
         -5    1    4    4    0  501  0.35959795000E+02  0.23655660181E+02  0.85319867360E+01  0.44079068873E+02  0.41800000000E+01 0.  1.
</event>
<event>
11    1  0.8453735E-009  0.1459798E+03  0.7561462E-02  0.1101059E+00
         22   -1    0    0    0    0  0.00000000000E+00  0.00000000000E+00  0.75613746219E+03  0.75613746219E+03  0.00000000000E+00 0. -1.
         22   -1    0    0    0    0 -0.00000000000E+00 -0.00000000000E+00 -0.43812464056E+02  0.43812464056E+02  0.00000000000E+00 0. -1.
         24    2    1    2    0    0 -0.57136607976E+02  0.28605715230E+02  0.14625933473E+03  0.17817427153E+03  0.79192165819E+02 0.  0.
         25    2    1    2    0    0  0.85934837773E+02 -0.38869305720E+02  0.24942897862E+03  0.29454777065E+03  0.12509178450E+03 0.  0.
        -24    2    1    2    0    0 -0.28798229797E+02  0.10263590489E+02  0.31663668480E+03  0.32722788407E+03  0.76711267917E+02 0.  0.
        -13    1    3    3    0    0  0.43041069840E+01 -0.19862378667E+02  0.50948598922E+02  0.54852521868E+02  0.00000000000E+00 0.  1.
         14    1    3    3    0    0 -0.61440714960E+02  0.48468093898E+02  0.95310735805E+02  0.12332174967E+03  0.00000000000E+00 0. -1.
         13    1    5    5    0    0 -0.31711572615E+02  0.27728504826E+02  0.84509932397E+02  0.94426810236E+02  0.00000000000E+00 0. -1.
        -14    1    5    5    0    0  0.29133428179E+01 -0.17464914336E+02  0.23212675240E+03  0.23280107384E+03  0.00000000000E+00 0.  1.
          5    1    4    4  501    0  0.10211205631E+03 -0.47879963312E+02  0.12391351357E+03  0.16760487516E+03  0.41800000000E+01 0. -1.
         -5    1    4    4    0  501 -0.16177218539E+02  0.90106575920E+01  0.12551546504E+03  0.12694289549E+03  0.41800000000E+01 0. -1.
</event>
<event>
11    1  0.8453735E-009  0.1479171E+03  0.7561462E-02  0.1099026E+00
         22   -1    0    0    0    0  0.00000000000E+00  0.00000000000E+00  0.10147955139E+04  0.10147955139E+04  0.00000000000E+00 0.  1.
         22   -1    0    0    0    0 -0.00000000000E+00 -0.00000000000E+00 -0.11777257549E+03  0.11777257549E+03  0.00000000000E+00 0. -1.
         24    2    1    2    0    0 -0.29473776013E+02  0.17450622038E+02 -0.67798353787E+02  0.11068186804E+03  0.80502369246E+02 0.  0.
         25    2    1    2    0    0  0.38751257711E+02 -0.92699422372E+02  0.23932267383E+03  0.28812718640E+03  0.12508833060E+03 0.  0.
        -24    2    1    2    0    0 -0.92774816983E+01  0.75248800334E+02  0.72549861833E+03  0.73375903492E+03  0.79407949889E+02 0.  0.
        -13    1    3    3    0    0  0.27257033355E+01  0.34789205912E+02 -0.14545520337E+01  0.34926122434E+02  0.00000000000E+00 0.  1.
         14    1    3    3    0    0 -0.32199479348E+02 -0.17338583873E+02 -0.66343801754E+02  0.75755745605E+02  0.00000000000E+00 0. -1.
         11    1    5    5    0    0  0.17380954374E+02  0.16427177024E+01  0.33697443400E+03  0.33742638496E+03  0.00000000000E+00 0. -1.
        -12    1    5    5    0    0 -0.26658436073E+02  0.73606082631E+02  0.38852418433E+03  0.39633264996E+03  0.00000000000E+00 0.  1.
          5    1    4    4  501    0 -0.36331920836E+02 -0.55396114464E+02  0.57335276446E+02  0.87712851364E+02  0.41800000000E+01 0. -1.
         -5    1    4    4    0  501  0.75083178547E+02 -0.37303307909E+02  0.18198739739E+03  0.20041433504E+03  0.41800000000E+01 0. -1.
</event>
<event>
11    1  0.8453735E-009  0.2462289E+03  0.7561462E-02  0.1025928E+00
         22   -1    0    0    0    0  0.00000000000E+00  0.00000000000E+00  0.12170914246E+04  0.12170914246E+04  0.00000000000E+00 0.  1.
         22   -1    0    0    0    0 -0.00000000000E+00 -0.00000000000E+00 -0.21143696523E+03  0.21143696523E+03  0.00000000000E+00 0.  1.
        -24    2    1    2    0    0 -0.32412895281E+02 -0.63719843843E+02 -0.12573992058E+03  0.16549833330E+03  0.80426092880E+02 0.  0.
         25    2    1    2    0    0  0.71868914455E+02  0.25498528898E+03  0.38075364508E+03  0.48041956438E+03  0.12508789365E+03 0.  0.
         24    2    1    2    0    0 -0.39456019173E+02 -0.19126544514E+03  0.75064073488E+03  0.78261049215E+03  0.10429967218E+03 0.  0.
        -11    1    5    5    0    0 -0.43354797433E+02 -0.15374972721E+03  0.70748323509E+03  0.72529383357E+03  0.00000000000E+00 0.  1.
         12    1    5    5    0    0  0.38987782598E+01 -0.37515717927E+02  0.43157499789E+02  0.57316658586E+02  0.00000000000E+00 0. -1.
         13    1    3    3    0    0 -0.32587048796E+02 -0.60353311895E+02 -0.39414559558E+02  0.79107177367E+02  0.00000000000E+00 0. -1.
        -14    1    3    3    0    0  0.17415351413E+00 -0.33665319484E+01 -0.86325361024E+02  0.86391155928E+02  0.00000000000E+00 0.  1.
          5    1    4    4  501    0  0.43078585218E+02  0.20722241371E+02  0.26783253357E+02  0.54954443426E+02  0.41800000000E+01 0. -1.
         -5    1    4    4    0  501  0.28790329237E+02  0.23426304761E+03  0.35397039172E+03  0.42546512096E+03  0.41800000000E+01 0. -1.
</event>
<event>
11    1  0.8453735E-009  0.1551231E+03  0.7561462E-02  0.1091756E+00
         22   -1    0    0    0    0  0.00000000000E+00  0.00000000000E+00  0.19093066708E+04  0.19093066708E+04  0.00000000000E+00 0.  1.
         22   -1    0    0    0    0 -0.00000000000E+00 -0.00000000000E+00 -0.13527935825E+04  0.13527935825E+04  0.00000000000E+00 0.  1.
         24    2    1    2    0    0 -0.30661965298E+02  0.86808347098E+02 -0.13407166119E+04  0.13463765760E+04  0.82054895279E+02 0.  0.
         25    2    1    2    0    0  0.12444769313E+02 -0.23528898072E+02  0.55823990200E+03  0.57270216639E+03  0.12508997512E+03 0.  0.
        -24    2    1    2    0    0  0.18217195985E+02 -0.63279449026E+02  0.13389897982E+04  0.13430215109E+04  0.80479464250E+02 0.  0.
        -11    1    3    3    0    0 -0.25098024351E+02  0.10203929907E+03 -0.12297671535E+04  0.12342484277E+04  0.00000000000E+00 0.  1.
         12    1    3    3    0    0 -0.55639409472E+01 -0.15230951976E+02 -0.11094945837E+03  0.11212814834E+03  0.00000000000E+00 0. -1.
         11    1    5    5    0    0  0.20823846669E+02  0.94577265251E+01  0.14284473428E+03  0.14466409124E+03  0.00000000000E+00 0. -1.
        -12    1    5    5    0    0 -0.26066506844E+01 -0.72737175551E+02  0.11961450639E+04  0.11983574196E+04  0.00000000000E+00 0.  1.
          5    1    4    4  501    0 -0.46144966576E+02  0.14218786298E+02  0.34334198154E+03  0.34674590194E+03  0.41800000000E+01 0. -1.
         -5    1    4    4    0  501  0.58589735888E+02 -0.37747684370E+02  0.21489792046E+03  0.22595626445E+03  0.41800000000E+01 0. -1.
</event>
<event>
11    1  0.8453735E-009  0.1318377E+03  0.7561462E-02  0.1117031E+00
         22   -1    0    0    0    0  0.00000000000E+00  0.00000000000E+00  0.47813742665E+02  0.47813742665E+02  0.00000000000E+00 0.  1.
         22   -1    0    0    0    0 -0.00000000000E+00 -0.00000000000E+00 -0.17823834157E+04  0.17823834157E+04  0.00000000000E+00 0.  1.
        -24    2    1    2    0    0  0.24854234791E+02 -0.46496956593E+02 -0.10897083747E+04  0.10939834829E+04  0.80968012197E+02 0.  0.
         25    2    1    2    0    0  0.15098165305E+02  0.16478100838E+02 -0.63059143465E+03  0.64326713727E+03  0.12509024758E+03 0.  0.
         24    2    1    2    0    0 -0.39952400096E+02  0.30018855755E+02 -0.14269863705E+02  0.92946538215E+02  0.77059094089E+02 0.  0.
        -11    1    5    5    0    0 -0.46648888335E+02  0.31084559637E+02  0.18848762430E+02  0.59140886668E+02  0.00000000000E+00 0.  1.
         12    1    5    5    0    0  0.66964882391E+01 -0.10657038821E+01 -0.33118626135E+02  0.33805651547E+02  0.00000000000E+00 0. -1.
         13    1    3    3    0    0  0.74141839518E+01 -0.13555838227E+02 -0.31172645888E+02  0.34791733578E+02  0.00000000000E+00 0. -1.
        -14    1    3    3    0    0  0.17440050839E+02 -0.32941118366E+02 -0.10585357288E+04  0.10591917493E+04  0.00000000000E+00 0.  1.
          5    1    4    4  501    0 -0.33262705987E+02  0.55454434502E+02 -0.31619301869E+03  0.32276477407E+03  0.41800000000E+01 0. -1.
         -5    1    4    4    0  501  0.48360871292E+02 -0.38976333664E+02 -0.31439841596E+03  0.32050236320E+03  0.41800000000E+01 0. -1.
</event>
<event>
11    1  0.8453735E-009  0.4005234E+03  0.7561462E-02  0.9648215E-01
         22   -1    0    0    0    0  0.00000000000E+00  0.00000000000E+00  0.24514347328E+03  0.24514347328E+03  0.00000000000E+00 0.  1.
         22   -1    0    0    0    0 -0.00000000000E+00 -0.00000000000E+00 -0.84863824864E+03  0.84863824864E+03  0.00000000000E+00 0.  1.
        -24    2    1    2    0    0  0.89174855093E+00  0.27242251816E+02 -0.17717968714E+03  0.19508472174E+03  0.76957596266E+02 0.  0.
         25    2    1    2    0    0 -0.37746483515E+03 -0.66363195658E+02 -0.24736469224E+03  0.47299095213E+03  0.12508946523E+03 0.  0.
         24    2    1    2    0    0  0.37657308660E+03  0.39120943842E+02 -0.17895039597E+03  0.42570604805E+03  0.76581050714E+02 0.  0.
        -11    1    5    5    0    0  0.23180778493E+03 -0.74590942916E+01 -0.13038303254E+03  0.26606432007E+03  0.00000000000E+00 0.  1.
         12    1    5    5    0    0  0.14476530168E+03  0.46580038134E+02 -0.48567363430E+02  0.15964172798E+03  0.00000000000E+00 0. -1.
         13    1    3    3    0    0  0.10295876535E+02  0.15933666655E+02 -0.17923303416E+03  0.18023420136E+03  0.00000000000E+00 0. -1.
        -14    1    3    3    0    0 -0.94041279836E+01  0.11308585161E+02  0.20533470234E+01  0.14850520377E+02  0.00000000000E+00 0.  1.
          5    1    4    4  501    0 -0.17901986600E+03 -0.19670754632E+02 -0.44934724204E+02  0.18566543256E+03  0.41800000000E+01 0.  1.
         -5    1    4    4    0  501 -0.19844496916E+03 -0.46692441026E+02 -0.20242996804E+03  0.28732551956E+03  0.41800000000E+01 0.  1.
</event>
<event>
11    1  0.8453735E-009  0.1634180E+03  0.7561462E-02  0.1083906E+00
         22   -1    0    0    0    0  0.00000000000E+00  0.00000000000E+00  0.79227526578E+03  0.79227526578E+03  0.00000000000E+00 0.  1.
         22   -1    0    0    0    0 -0.00000000000E+00 -0.00000000000E+00 -0.18821774266E+03  0.18821774266E+03  0.00000000000E+00 0.  1.
        -24    2    1    2    0    0 -0.67690516028E+02 -0.69373775857E+02 -0.94341204916E+02  0.15710452972E+03  0.79917730061E+02 0.  0.
         25    2    1    2    0    0  0.92714926171E+02  0.11484856881E+03  0.10138235295E+03  0.21843065993E+03  0.12508924981E+03 0.  0.
         24    2    1    2    0    0 -0.25024410143E+02 -0.45474792952E+02  0.59701637509E+03  0.60495781879E+03  0.82772172212E+02 0.  0.
        -11    1    5    5    0    0  0.11114931014E+02 -0.44155169393E+02  0.48757292840E+03  0.48969437528E+03  0.00000000000E+00 0.  1.
         12    1    5    5    0    0 -0.36139341157E+02 -0.13196235584E+01  0.10944344669E+03  0.11526344350E+03  0.00000000000E+00 0. -1.
         13    1    3    3    0    0  0.95798973790E+01 -0.62914375854E+01 -0.43812175510E+02  0.45286458722E+02  0.00000000000E+00 0. -1.
        -14    1    3    3    0    0 -0.77270413407E+02 -0.63082338272E+02 -0.50529029406E+02  0.11181807100E+03  0.00000000000E+00 0.  1.
          5    1    4    4  501    0  0.99357100402E+02  0.50930619624E+02  0.18148158575E+02  0.11319270946E+03  0.41800000000E+01 0.  1.
         -5    1    4    4    0  501 -0.66421742312E+01  0.63917949185E+02  0.83234194374E+02  0.10523795047E+03  0.41800000000E+01 0.  1.
</event>
<event>
11    1  0.8453735E-009  0.1415994E+03  0.7561462E-02  0.1105785E+00
         22   -1    0    0    0    0  0.00000000000E+00  0.00000000000E+00  0.21007829806E+04  0.21007829806E+04  0.00000000000E+00 0. -1.
         22   -1    0    0    0    0 -0.00000000000E+00 -0.00000000000E+00 -0.20754370381E+03  0.20754370381E+03  0.00000000000E+00 0.  1.
         24    2    1    2    0    0 -0.21018405471E+02  0.25536694291E+02 -0.18907643458E+03  0.20797735219E+03  0.80067376564E+02 0.  0.
         25    2    1    2    0    0  0.81891144404E+02 -0.29854474198E+02  0.82390183643E+03  0.83788982402E+03  0.12509065500E+03 0.  0.
        -24    2    1    2    0    0 -0.60872738932E+02  0.43177799071E+01  0.12584138749E+04  0.12624595082E+04  0.80463629116E+02 0.  0.
        -13    1    3    3    0    0 -0.20260743342E+01  0.52240264841E+02 -0.13471149374E+03  0.14450030032E+03  0.00000000000E+00 0.  1.
         14    1    3    3    0    0 -0.18992331137E+02 -0.26703570550E+02 -0.54364940840E+02  0.63477051874E+02  0.00000000000E+00 0. -1.
         13    1    5    5    0    0 -0.36672726856E+02 -0.36366345670E+02  0.78051843297E+03  0.78222530271E+03  0.00000000000E+00 0. -1.
        -14    1    5    5    0    0 -0.24200012076E+02  0.40684125578E+02  0.47789544194E+03  0.48023420546E+03  0.00000000000E+00 0.  1.
          5    1    4    4  501    0  0.34638895745E+02 -0.70780142538E+02  0.60742038528E+03  0.61252483911E+03  0.41800000000E+01 0.  1.
         -5    1    4    4    0  501  0.47252248658E+02  0.40925668339E+02  0.21648145115E+03  0.22536498491E+03  0.41800000000E+01 0.  1.
</event>
<event>
11    1  0.8453735E-009  0.2582321E+03  0.7561462E-02  0.1019603E+00
         22   -1    0    0    0    0  0.00000000000E+00  0.00000000000E+00  0.18191617341E+03  0.18191617341E+03  0.00000000000E+00 0. -1.
         22   -1    0    0    0    0 -0.00000000000E+00 -0.00000000000E+00 -0.14265062646E+04  0.14265062646E+04  0.00000000000E+00 0. -1.
        -24    2    1    2    0    0 -0.19491673927E+02 -0.19148856710E+03 -0.11054521580E+04  0.11256173794E+04  0.89119103016E+02 0.  0.
         25    2    1    2    0    0  0.12121124379E+03  0.19684047067E+03  0.36182349622E+02  0.26532234350E+03  0.12509375293E+03 0.  0.
         24    2    1    2    0    0 -0.10171956987E+03 -0.53519035703E+01 -0.17532028281E+03  0.21748271510E+03  0.78651230367E+02 0.  0.
        -13    1    5    5    0    0 -0.54394999894E+02  0.20817943346E+02 -0.14318379216E+03  0.15457619841E+03  0.00000000000E+00 0.  1.
         14    1    5    5    0    0 -0.47324569972E+02 -0.26169846916E+02 -0.32136490650E+02  0.62906516689E+02  0.00000000000E+00 0. -1.
         13    1    3    3    0    0  0.91853275879E+01 -0.14661889071E+03 -0.61591674289E+03  0.63319420680E+03  0.00000000000E+00 0. -1.
        -14    1    3    3    0    0 -0.28677001514E+02 -0.44869676388E+02 -0.48953541508E+03  0.49242317258E+03  0.00000000000E+00 0.  1.
          5    1    4    4  501    0  0.32446634953E+02  0.50264920119E+02 -0.45660351479E+02  0.75376962074E+02  0.41800000000E+01 0.  1.
         -5    1    4    4    0  501  0.88764608839E+02  0.14657555055E+03  0.81842701101E+02  0.18994538142E+03  0.41800000000E+01 0.  1.
</event>
<event>
11    1  0.8453735E-009  0.1555802E+03  0.7561462E-02  0.1091309E+00
         22   -1    0    0    0    0  0.00000000000E+00  0.00000000000E+00  0.14791375534E+03  0.14791375534E+03  0.00000000000E+00 0.  1.
         22   -1    0    0    0    0 -0.00000000000E+00 -0.00000000000E+00 -0.88158245379E+03  0.88158245379E+03  0.00000000000E+00 0. -1.
        -24    2    1    2    0    0  0.91158716892E+02  0.16306464000E+02 -0.72917697028E+03  0.73936045541E+03  0.79868746067E+02 0.  0.
         25    2    1    2    0    0 -0.91138884236E+02 -0.11945400098E+02 -0.85154441820E+02  0.17704242919E+03  0.12507499338E+03 0.  0.
         24    2    1    2    0    0 -0.19832656046E-01 -0.43610639019E+01  0.80662713655E+02  0.11309332454E+03  0.79149272954E+02 0.  0.
        -11    1    5    5    0    0 -0.15259304938E+02 -0.30848862973E+02  0.74293010154E+02  0.81877653189E+02  0.00000000000E+00 0.  1.
         12    1    5    5    0    0  0.15239472282E+02  0.26487799071E+02  0.63697035011E+01  0.31215671349E+02  0.00000000000E+00 0. -1.
         11    1    3    3    0    0  0.76844244060E+02  0.38210659909E+01 -0.29821929192E+03  0.30798438997E+03  0.00000000000E+00 0. -1.
        -12    1    3    3    0    0  0.14314472832E+02  0.12485398009E+02 -0.43095767836E+03  0.43137606544E+03  0.00000000000E+00 0.  1.
          5    1    4    4  501    0 -0.23199400971E+02  0.52505541300E+02 -0.52135817332E+02  0.77657323683E+02  0.41800000000E+01 0. -1.
         -5    1    4    4    0  501 -0.67939483265E+02 -0.64450941399E+02 -0.33018624488E+02  0.99385105507E+02  0.41800000000E+01 0. -1.
</event>
<event>
11    1  0.8453735E-009  0.1441088E+03  0.7561462E-02  0.1103055E+00
         22   -1    0    0    0    0  0.00000000000E+00  0.00000000000E+00  0.51238840183E+03  0.51238840183E+03  0.00000000000E+00 0.  1.
         22   -1    0    0    0    0 -0.00000000000E+00 -0.00000000000E+00 -0.72370641218E+02  0.72370641218E+02  0.00000000000E+00 0.  1.
         24    2    1    2    0    0  0.21067137443E+02 -0.58629282406E+02  0.45846068001E+02  0.11224481658E+03  0.81337690288E+02 0.  0.
         25    2    1    2    0    0 -0.42127950353E+02 -0.34178861694E+02  0.20994114118E+03  0.25032116828E+03  0.12506976349E+03 0.  0.
        -24    2    1    2    0    0  0.21060812910E+02  0.92808144099E+02  0.18423055143E+03  0.22219305819E+03  0.79824492341E+02 0.  0.
        -11    1    3    3    0    0  0.51053765192E+02 -0.23791637650E+02  0.28394938242E+02  0.63077741558E+02  0.00000000000E+00 0.  1.
         12    1    3    3    0    0 -0.29986627748E+02 -0.34837644756E+02  0.17451129759E+02  0.49167075017E+02  0.00000000000E+00 0. -1.
         11    1    5    5    0    0  0.25178380670E+02  0.34235361491E+02  0.14616232179E+03  0.15221509499E+03  0.00000000000E+00 0. -1.
        -12    1    5    5    0    0 -0.41175677606E+01  0.58572782609E+02  0.38068229633E+02  0.69977963204E+02  0.00000000000E+00 0.  1.
          5    1    4    4  501    0 -0.10234353304E+02 -0.42876507859E+02  0.21234558878E+03  0.21691302033E+03  0.41800000000E+01 0. -1.
         -5    1    4    4    0  501 -0.31893597049E+02  0.86976461657E+01 -0.24044475933E+01  0.33408147955E+02  0.41800000000E+01 0. -1.
</event>
<event>
11    1  0.8453735E-009  0.1556663E+03  0.7561462E-02  0.1091226E+00
         22   -1    0    0    0    0  0.00000000000E+00  0.00000000000E+00  0.59200574908E+03  0.59200574908E+03  0.00000000000E+00 0. -1.
         22   -1    0    0    0    0 -0.00000000000E+00 -0.00000000000E+00 -0.44471890967E+03  0.44471890967E+03  0.00000000000E+00 0.  1.
         24    2    1    2    0    0  0.77152930978E+02 -0.42223602418E+02 -0.33965125245E+03  0.36009458934E+03  0.81053887144E+02 0.  0.
         25    2    1    2    0    0 -0.10797793837E+03  0.88514185970E+02  0.76092777709E+01  0.18761472434E+03  0.12508951751E+03 0.  0.
        -24    2    1    2    0    0  0.30825007389E+02 -0.46290583552E+02  0.47932881409E+03  0.48901534507E+03  0.79289951981E+02 0.  0.
        -13    1    3    3    0    0  0.44491470529E+02  0.16188870072E+02 -0.19572333129E+03  0.20136830157E+03  0.00000000000E+00 0.  1.
         14    1    3    3    0    0  0.32661460449E+02 -0.58412472490E+02 -0.14392792116E+03  0.15872628777E+03  0.00000000000E+00 0. -1.
         13    1    5    5    0    0  0.37311652303E+02 -0.66085519941E+02  0.38608017817E+03  0.39346837143E+03  0.00000000000E+00 0. -1.
        -14    1    5    5    0    0 -0.64866449138E+01  0.19794936389E+02  0.93248635924E+02  0.95546973634E+02  0.00000000000E+00 0.  1.
          5    1    4    4  501    0 -0.34679274324E+02  0.23965078246E+02  0.62497626120E+02  0.75501011342E+02  0.41800000000E+01 0.  1.
         -5    1    4    4    0  501 -0.73298664043E+02  0.64549107725E+02 -0.54888348349E+02  0.11211371300E+03  0.41800000000E+01 0.  1.
</event>
<event>
11    1  0.8525955E-009  0.1566273E+03  0.7561462E-02  0.1090293E+00
         22   -1    0    0    0    0  0.00000000000E+00  0.00000000000E+00  0.62202133707E+03  0.62202133707E+03  0.00000000000E+00 0. -1.
         22   -1    0    0    0    0 -0.00000000000E+00 -0.00000000000E+00 -0.10740723793E+04  0.10740723793E+04  0.00000000000E+00 0.  1.
         24    2    1    2    0    0 -0.36779221219E+02 -0.52000070458E+01 -0.84768881858E+03  0.85236368531E+03  0.81041765140E+02 0.  0.
         25    2    1    2    0    0 -0.29142649934E+01 -0.80941226182E+02 -0.19192579878E+03  0.24298710049E+03  0.12508894328E+03 0.  0.
        -24    2    1    2    0    0  0.39693486212E+02  0.86141233228E+02  0.58756357517E+03  0.60074293053E+03  0.81640852558E+02 0.  0.
        -11    1    3    3    0    0 -0.26176765921E+02  0.36863304070E+02 -0.38491094112E+03  0.38755716850E+03  0.00000000000E+00 0.  1.
         12    1    3    3    0    0 -0.10602455298E+02 -0.42063311116E+02 -0.46277787746E+03  0.46480651681E+03  0.00000000000E+00 0. -1.
         11    1    5    5    0    0  0.52490386286E+02  0.95683148517E+02  0.51788603894E+03  0.52926029030E+03  0.00000000000E+00 0. -1.
        -12    1    5    5    0    0 -0.12796900074E+02 -0.95419152886E+01  0.69677536237E+02  0.71482640235E+02  0.00000000000E+00 0.  1.
          5    1    4    4  501    0 -0.31029757665E+02 -0.48643553461E+02 -0.19140886616E+03  0.19995966493E+03  0.41800000000E+01 0.  1.
         -5    1    4    4    0  501  0.28115492672E+02 -0.32297672722E+02 -0.51693261535E+00  0.43027435558E+02  0.41800000000E+01 0.  1.
</event>
<event>
11    1  0.8453735E-009  0.2129752E+03  0.7561462E-02  0.1045709E+00
         22   -1    0    0    0    0  0.00000000000E+00  0.00000000000E+00  0.73866753857E+02  0.73866753857E+02  0.00000000000E+00 0. -1.
         22   -1    0    0    0    0 -0.00000000000E+00 -0.00000000000E+00 -0.15926248498E+04  0.15926248498E+04  0.00000000000E+00 0.  1.
        -24    2    1    2    0    0 -0.16625482840E+03  0.26810592101E+02 -0.11935365171E+04  0.12078753664E+04  0.77935917281E+02 0.  0.
         25    2    1    2    0    0  0.19229120136E+03 -0.52443131423E+02 -0.24736954002E+03  0.34141812580E+03  0.12509380137E+03 0.  0.
         24    2    1    2    0    0 -0.26036372964E+02  0.25632539322E+02 -0.77852038766E+02  0.11719811144E+03  0.79621213222E+02 0.  0.
        -13    1    5    5    0    0  0.10886580420E+02  0.39763304652E+02 -0.16919106388E+02  0.44563372753E+02  0.00000000000E+00 0.  1.
         14    1    5    5    0    0 -0.36922953384E+02 -0.14130765330E+02 -0.60932932379E+02  0.72634738684E+02  0.00000000000E+00 0. -1.
         13    1    3    3    0    0 -0.99173976648E+02  0.44905833983E+02 -0.55552222099E+03  0.56608917105E+03  0.00000000000E+00 0. -1.
        -14    1    3    3    0    0 -0.67080851748E+02 -0.18095241882E+02 -0.63801429613E+03  0.64178619533E+03  0.00000000000E+00 0.  1.
          5    1    4    4  501    0  0.12882201054E+03  0.53325240882E+01 -0.76029636717E+02  0.14973818575E+03  0.41800000000E+01 0. -1.
         -5    1    4    4    0  501  0.63469190816E+02 -0.57775655511E+02 -0.17133990330E+03  0.19167994005E+03  0.41800000000E+01 0. -1.
</event>
<event>
11    1  0.8453735E-009  0.1407492E+03  0.7561462E-02  0.1106725E+00
         22   -1    0    0    0    0  0.00000000000E+00  0.00000000000E+00  0.23806256952E+03  0.23806256952E+03  0.00000000000E+00 0. -1.
         22   -1    0    0    0    0 -0.00000000000E+00 -0.00000000000E+00 -0.10072063146E+04  0.10072063146E+04  0.00000000000E+00 0. -1.
         24    2    1    2    0    0 -0.63806670423E+01  0.21196851191E+02 -0.70783419986E+03  0.71254879513E+03  0.78781416176E+02 0.  0.
         25    2    1    2    0    0  0.57200978221E+02 -0.59740310155E+02 -0.26493607133E+03  0.30443127506E+03  0.12508566177E+03 0.  0.
        -24    2    1    2    0    0 -0.50820311179E+02  0.38543458964E+02  0.20362652608E+03  0.22828881395E+03  0.81140114590E+02 0.  0.
        -11    1    3    3    0    0 -0.77622500156E+01  0.26029628803E+02 -0.76231798188E+02  0.80926393445E+02  0.00000000000E+00 0.  1.
         12    1    3    3    0    0  0.13815829733E+01 -0.48327776122E+01 -0.63160240167E+03  0.63162240168E+03  0.00000000000E+00 0. -1.
         13    1    5    5    0    0 -0.43360427392E+02  0.47849482134E+01  0.18278778663E+03  0.18792125302E+03  0.00000000000E+00 0. -1.
        -14    1    5    5    0    0 -0.74598837867E+01  0.33758510751E+02  0.20838739446E+02  0.40367560936E+02  0.00000000000E+00 0.  1.
          5    1    4    4  501    0 -0.13727645122E+02 -0.75457257966E+02 -0.14683535197E+03  0.16571161398E+03  0.41800000000E+01 0. -1.
         -5    1    4    4    0  501  0.70928623344E+02  0.15716947811E+02 -0.11810071936E+03  0.13871966108E+03  0.41800000000E+01 0. -1.
</event>
<event>
11    1  0.8453735E-009  0.1466972E+03  0.7561462E-02  0.1100302E+00
         22   -1    0    0    0    0  0.00000000000E+00  0.00000000000E+00  0.11461681175E+03  0.11461681175E+03  0.00000000000E+00 0.  1.
         22   -1    0    0    0    0 -0.00000000000E+00 -0.00000000000E+00 -0.10090905712E+04  0.10090905712E+04  0.00000000000E+00 0.  1.
         24    2    1    2    0    0  0.54262255126E+02 -0.57748858373E+02 -0.69015298853E+03  0.69947746778E+03  0.81720605635E+02 0.  0.
         25    2    1    2    0    0 -0.26849995814E+02  0.65265171909E+02 -0.27731781033E+03  0.31230423937E+03  0.12509318550E+03 0.  0.
        -24    2    1    2    0    0 -0.27412259312E+02 -0.75163135366E+01  0.72997039422E+02  0.11192567580E+03  0.79942868404E+02 0.  0.
        -11    1    3    3    0    0  0.28973561604E+02 -0.27796768892E+02 -0.59783285407E+03  0.59917964671E+03  0.00000000000E+00 0.  1.
         12    1    3    3    0    0  0.25288693522E+02 -0.29952089480E+02 -0.92320134460E+02  0.10029782107E+03  0.00000000000E+00 0. -1.
         13    1    5    5    0    0 -0.33618593555E+02 -0.15265925206E+02 -0.13223829586E+01  0.36946001160E+02  0.00000000000E+00 0. -1.
        -14    1    5    5    0    0  0.62063342435E+01  0.77496116695E+01  0.74319422380E+02  0.74979674637E+02  0.00000000000E+00 0.  1.
          5    1    4    4  501    0 -0.71009912929E+02  0.22051443464E+02 -0.10143708017E+03  0.12583968979E+03  0.41800000000E+01 0. -1.
         -5    1    4    4    0  501  0.44159917114E+02  0.43213728445E+02 -0.17588073017E+03  0.18646454958E+03  0.41800000000E+01 0. -1.
</event>
<event>
11    1  0.8453735E-009  0.1705293E+03  0.7561462E-02  0.1077572E+00
         22   -1    0    0    0    0  0.00000000000E+00  0.00000000000E+00  0.58373964935E+03  0.58373964935E+03  0.00000000000E+00 0. -1.
         22   -1    0    0    0    0 -0.00000000000E+00 -0.00000000000E+00 -0.62241341550E+03  0.62241341550E+03  0.00000000000E+00 0. -1.
         24    2    1    2    0    0 -0.24688916897E+02  0.11067675811E+03 -0.55293126463E+03  0.57047004045E+03  0.82729657605E+02 0.  0.
         25    2    1    2    0    0  0.55455672008E+02 -0.20024861526E+03  0.27400216957E+03  0.36592015362E+03  0.12508209474E+03 0.  0.
        -24    2    1    2    0    0 -0.30766755111E+02  0.89571857151E+02  0.24025532891E+03  0.26976287077E+03  0.77972255101E+02 0.  0.
        -11    1    3    3    0    0 -0.21600747649E+02  0.22049616854E+02 -0.43271868642E+02  0.53152916365E+02  0.00000000000E+00 0.  1.
         12    1    3    3    0    0 -0.30881692483E+01  0.88627141252E+02 -0.50965939599E+03  0.51731712409E+03  0.00000000000E+00 0. -1.
         13    1    5    5    0    0  0.24560047544E+02  0.35378430805E+02  0.11125455827E+03  0.11929964810E+03  0.00000000000E+00 0. -1.
        -14    1    5    5    0    0 -0.55326802655E+02  0.54193426346E+02  0.12900077064E+03  0.15046322267E+03  0.00000000000E+00 0.  1.
          5    1    4    4  501    0 -0.26702378384E+02 -0.13378050686E+03  0.14554645073E+03  0.19952815026E+03  0.41800000000E+01 0. -1.
         -5    1    4    4    0  501  0.82158050392E+02 -0.66468108397E+02  0.12845571884E+03  0.16639200336E+03  0.41800000000E+01 0. -1.
</event>
<event>
11    1  0.8453735E-009  0.3648511E+03  0.7561462E-02  0.9759567E-01
         22   -1    0    0    0    0  0.00000000000E+00  0.00000000000E+00  0.14862497833E+04  0.14862497833E+04  0.00000000000E+00 0. -1.
         22   -1    0    0    0    0 -0.00000000000E+00 -0.00000000000E+00 -0.52160144865E+03  0.52160144865E+03  0.00000000000E+00 0.  1.
        -24    2    1    2    0    0  0.34380147805E+03  0.39596707455E+02 -0.39760882806E+03  0.53315084208E+03  0.79935503402E+02 0.  0.
         25    2    1    2    0    0 -0.28789259170E+03 -0.17543076273E+03  0.64493706418E+03  0.73841023150E+03  0.12509099232E+03 0.  0.
         24    2    1    2    0    0 -0.55908886355E+02  0.13583405528E+03  0.71732009854E+03  0.73629015840E+03  0.77449205508E+02 0.  0.
        -11    1    5    5    0    0 -0.44515672109E+02  0.30010437101E+02  0.34129892914E+03  0.34549563012E+03  0.00000000000E+00 0.  1.
         12    1    5    5    0    0 -0.11393214246E+02  0.10582361818E+03  0.37602116940E+03  0.39079452828E+03  0.00000000000E+00 0. -1.
         11    1    3    3    0    0  0.37613665989E+01  0.13618476795E+02 -0.14569793084E+02  0.20295064903E+02  0.00000000000E+00 0. -1.
        -12    1    3    3    0    0  0.34004011146E+03  0.25978230660E+02 -0.38303903497E+03  0.51285577717E+03  0.00000000000E+00 0.  1.
          5    1    4    4  501    0 -0.30336534523E+02 -0.15960632505E+02  0.18134964622E+03  0.18460827094E+03  0.41800000000E+01 0. -1.
         -5    1    4    4    0  501 -0.25755605718E+03 -0.15947013023E+03  0.46358741796E+03  0.55380196055E+03  0.41800000000E+01 0. -1.
</event>
<event>
11    1  0.8453735E-009  0.1328565E+03  0.7561462E-02  0.1115808E+00
         22   -1    0    0    0    0  0.00000000000E+00  0.00000000000E+00  0.61965274957E+03  0.61965274957E+03  0.00000000000E+00 0.  1.
         22   -1    0    0    0    0 -0.00000000000E+00 -0.00000000000E+00 -0.86780401797E+03  0.86780401797E+03  0.00000000000E+00 0.  1.
        -24    2    1    2    0    0  0.30274290202E+02 -0.28370884338E+01 -0.69834846326E+03  0.70396147546E+03  0.83346272117E+02 0.  0.
         25    2    1    2    0    0 -0.32134420524E+02  0.47462912536E+02 -0.13395547358E+03  0.19203350107E+03  0.12508975811E+03 0.  0.
         24    2    1    2    0    0  0.18601303215E+01 -0.44625824102E+02  0.58415266845E+03  0.59146179101E+03  0.81226756089E+02 0.  0.
        -13    1    5    5    0    0  0.80807767597E+01  0.15166961783E+02  0.32393087422E+03  0.32438641611E+03  0.00000000000E+00 0.  1.
         14    1    5    5    0    0 -0.62206464382E+01 -0.59792785885E+02  0.26022179422E+03  0.26707537490E+03  0.00000000000E+00 0. -1.
         11    1    3    3    0    0  0.22763190407E+02  0.33158993343E+02 -0.53572010732E+03  0.53722780555E+03  0.00000000000E+00 0. -1.
        -12    1    3    3    0    0  0.75110997954E+01 -0.35996081777E+02 -0.16262835595E+03  0.16673366991E+03  0.00000000000E+00 0.  1.
          5    1    4    4  501    0 -0.53522496462E+01  0.75373009470E+02 -0.30658986818E+02  0.81652819949E+02  0.41800000000E+01 0. -1.
         -5    1    4    4    0  501 -0.26782170878E+02 -0.27910096934E+02 -0.10329648677E+03  0.11038068113E+03  0.41800000000E+01 0. -1.
</event>
<event>
11    1  0.8453735E-009  0.1774721E+03  0.7561462E-02  0.1071706E+00
         22   -1    0    0    0    0  0.00000000000E+00  0.00000000000E+00  0.12938017283E+04  0.12938017283E+04  0.00000000000E+00 0.  1.
         22   -1    0    0    0    0 -0.00000000000E+00 -0.00000000000E+00 -0.51809066154E+03  0.51809066154E+03  0.00000000000E+00 0. -1.
        -24    2    1    2    0    0 -0.97366063396E+02  0.78247935173E+02 -0.47932929639E+03  0.50378542976E+03  0.91871079224E+02 0.  0.
         25    2    1    2    0    0  0.11803158244E+03 -0.10751003524E+03  0.39072501169E+03  0.44022984222E+03  0.12508563902E+03 0.  0.
         24    2    1    2    0    0 -0.20665519039E+02  0.29262100063E+02  0.86431535144E+03  0.86787711785E+03  0.69902294509E+02 0.  0.
        -11    1    5    5    0    0 -0.34344049588E+02 -0.12868995861E+01  0.65512640182E+03  0.65602726484E+03  0.00000000000E+00 0.  1.
         12    1    5    5    0    0  0.13678530548E+02  0.30548999649E+02  0.20918894962E+03  0.21184985301E+03  0.00000000000E+00 0. -1.
         13    1    3    3    0    0 -0.79911462704E+02  0.37847536003E+02 -0.42382652307E+03  0.43295172885E+03  0.00000000000E+00 0. -1.
        -14    1    3    3    0    0 -0.17454600692E+02  0.40400399170E+02 -0.55502773314E+02  0.70833700905E+02  0.00000000000E+00 0.  1.
          5    1    4    4  501    0 -0.14110409149E+02  0.16105926424E+02  0.40908579776E+02  0.46362579864E+02  0.41800000000E+01 0.  1.
         -5    1    4    4    0  501  0.13214199158E+03 -0.12361596166E+03  0.34981643191E+03  0.39386726235E+03  0.41800000000E+01 0.  1.
</event>
<event>
11    1  0.8453735E-009  0.1419214E+03  0.7561462E-02  0.1105432E+00
         22   -1    0    0    0    0  0.00000000000E+00  0.00000000000E+00  0.30635700391E+03  0.30635700391E+03  0.00000000000E+00 0. -1.
         22   -1    0    0    0    0 -0.00000000000E+00 -0.00000000000E+00 -0.79228097590E+03  0.79228097590E+03  0.00000000000E+00 0.  1.
         24    2    1    2    0    0  0.13526821586E+02  0.44428175296E+02 -0.47579879556E+03  0.48561179130E+03  0.85308149263E+02 0.  0.
         25    2    1    2    0    0 -0.67705574859E+02 -0.81934318940E+02 -0.27953188077E+03  0.32416519814E+03  0.12509087030E+03 0.  0.
        -24    2    1    2    0    0  0.54178753273E+02  0.37506143644E+02  0.26940670434E+03  0.28886099037E+03  0.80738165064E+02 0.  0.
        -11    1    3    3    0    0  0.13602295785E+02  0.70032577889E+02 -0.36290790561E+03  0.36985366346E+03  0.00000000000E+00 0.  1.
         12    1    3    3    0    0 -0.75474199351E-01 -0.25604402594E+02 -0.11289088994E+03  0.11575812784E+03  0.00000000000E+00 0. -1.
         13    1    5    5    0    0  0.65467148184E+02  0.46547511567E+02  0.25864994595E+03  0.27083650579E+03  0.00000000000E+00 0. -1.
        -14    1    5    5    0    0 -0.11288394911E+02 -0.90413679232E+01  0.10756758387E+02  0.18024484586E+02  0.00000000000E+00 0.  1.
          5    1    4    4  501    0 -0.33869946817E+02 -0.11700154928E+02 -0.22999529422E+01  0.36150091373E+02  0.41800000000E+01 0.  1.
         -5    1    4    4    0  501 -0.33835628042E+02 -0.70234164012E+02 -0.27723192783E+03  0.28801510677E+03  0.41800000000E+01 0.  1.
</event>
<event>
11    1  0.8453735E-009  0.1480604E+03  0.7561462E-02  0.1098877E+00
         22   -1    0    0    0    0  0.00000000000E+00  0.00000000000E+00  0.77238247682E+03  0.77238247682E+03  0.00000000000E+00 0. -1.
         22   -1    0    0    0    0 -0.00000000000E+00 -0.00000000000E+00 -0.12144773112E+04  0.12144773112E+04  0.00000000000E+00 0. -1.
        -24    2    1    2    0    0  0.67501015546E+02 -0.14439464896E+02 -0.11263035710E+04  0.11312357796E+04  0.79810838072E+02 0.  0.
         25    2    1    2    0    0 -0.30710551783E+02 -0.58316983534E+02 -0.19346401050E+02  0.14270593478E+03  0.12508673802E+03 0.  0.
         24    2    1    2    0    0 -0.36790463763E+02  0.72756448430E+02  0.70355513762E+03  0.71291807364E+03  0.81334550094E+02 0.  0.
        -13    1    5    5    0    0 -0.42187027430E+02  0.13841233792E+02  0.15659688705E+03  0.16276949982E+03  0.00000000000E+00 0.  1.
         14    1    5    5    0    0  0.53965636667E+01  0.58915214638E+02  0.54695825057E+03  0.55014857382E+03  0.00000000000E+00 0. -1.
         11    1    3    3    0    0  0.55620316977E+02  0.74000820702E+01 -0.10375400374E+04  0.10390561631E+04  0.00000000000E+00 0. -1.
        -12    1    3    3    0    0  0.11880698569E+02 -0.21839546966E+02 -0.88763533615E+02  0.92179616565E+02  0.00000000000E+00 0.  1.
          5    1    4    4  501    0 -0.72828123908E+01  0.72415893805E+01  0.45887803247E+02  0.47208504106E+02  0.41800000000E+01 0. -1.
         -5    1    4    4    0  501 -0.23427739392E+02 -0.65558572915E+02 -0.65234204297E+02  0.95497430677E+02  0.41800000000E+01 0. -1.
</event>
<event>
11    1  0.8453735E-009  0.5058391E+03  0.7561462E-02  0.9380567E-01
         22   -1    0    0    0    0  0.00000000000E+00  0.00000000000E+00  0.31557630082E+03  0.31557630082E+03  0.00000000000E+00 0. -1.
         22   -1    0    0    0    0 -0.00000000000E+00 -0.00000000000E+00 -0.12312626636E+04  0.12312626636E+04  0.00000000000E+00 0. -1.
         24    2    1    2    0    0 -0.56590669469E+02  0.21863478251E+02 -0.11315658889E+03  0.15178197125E+03  0.80949599350E+02 0.  0.
         25    2    1    2    0    0  0.51668597573E+03  0.10564937916E+03 -0.72426990848E+03  0.90462128507E+03  0.12508629112E+03 0.  0.
        -24    2    1    2    0    0 -0.46009530626E+03 -0.12751285741E+03 -0.78259865410E+02  0.49043570811E+03  0.80345240064E+02 0.  0.
        -11    1    3    3    0    0 -0.61675607530E+02 -0.13963978718E+02 -0.84940413780E+02  0.10589498175E+03  0.00000000000E+00 0.  1.
         12    1    3    3    0    0  0.50849380610E+01  0.35827456969E+02 -0.28216175115E+02  0.45886989507E+02  0.00000000000E+00 0. -1.
         13    1    5    5    0    0 -0.44079814878E+03 -0.10814644031E+03 -0.86163064330E+02  0.46197698447E+03  0.00000000000E+00 0. -1.
        -14    1    5    5    0    0 -0.19297157480E+02 -0.19366417096E+02  0.79031989193E+01  0.28458723638E+02  0.00000000000E+00 0.  1.
          5    1    4    4  501    0  0.19436064980E+03  0.72478634030E+02 -0.37218059879E+03  0.42610454715E+03  0.41800000000E+01 0. -1.
         -5    1    4    4    0  501  0.32232532594E+03  0.33170745125E+02 -0.35208930969E+03  0.47851673792E+03  0.41800000000E+01 0. -1.
</event>
<event>
11    1  0.8453735E-009  0.1349710E+03  0.7561462E-02  0.1113308E+00
         22   -1    0    0    0    0  0.00000000000E+00  0.00000000000E+00  0.20443277039E+04  0.20443277039E+04  0.00000000000E+00 0.  1.
         22   -1    0    0    0    0 -0.00000000000E+00 -0.00000000000E+00 -0.16847650877E+03  0.16847650877E+03  0.00000000000E+00 0.  1.
         24    2    1    2    0    0 -0.33353371251E+02  0.37679032731E+02 -0.11895410389E+03  0.15141054607E+03  0.79012136717E+02 0.  0.
         25    2    1    2    0    0  0.23816301934E+02  0.13684572880E+02  0.95605207703E+02  0.15981435812E+03  0.12508313056E+03 0.  0.
        -24    2    1    2    0    0  0.95370693174E+01 -0.51363605611E+02  0.18992000913E+04  0.19015793085E+04  0.79458818856E+02 0.  0.
        -13    1    3    3    0    0 -0.23564862812E+02  0.58979815653E+02 -0.10854454060E+03  0.12576103811E+03  0.00000000000E+00 0.  1.
         14    1    3    3    0    0 -0.97885084388E+01 -0.21300782922E+02 -0.10409563288E+02  0.25649507956E+02  0.00000000000E+00 0. -1.
         11    1    5    5    0    0  0.18584561223E+02  0.67288086102E+01  0.13906505785E+03  0.14046263951E+03  0.00000000000E+00 0. -1.
        -12    1    5    5    0    0 -0.90474919054E+01 -0.58092414221E+02  0.17601350335E+04  0.17611166690E+04  0.00000000000E+00 0.  1.
          5    1    4    4  501    0  0.25687103400E+02 -0.52967231586E+02  0.59793973107E+02  0.84012775950E+02  0.41800000000E+01 0. -1.
         -5    1    4    4    0  501 -0.18708014660E+01  0.66651804466E+02  0.35811234596E+02  0.75801582173E+02  0.41800000000E+01 0. -1.
</event>
<event>
11    1  0.8453735E-009  0.4125263E+03  0.7561462E-02  0.9613505E-01
         22   -1    0    0    0    0  0.00000000000E+00  0.00000000000E+00  0.43992634965E+03  0.43992634965E+03  0.00000000000E+00 0. -1.
         22   -1    0    0    0    0 -0.00000000000E+00 -0.00000000000E+00 -0.82424614603E+03  0.82424614603E+03  0.00000000000E+00 0.  1.
         24    2    1    2    0    0  0.31115323533E+03 -0.11528595101E+03 -0.20535808048E+03  0.39859205259E+03  0.81218820539E+02 0.  0.
         25    2    1    2    0    0 -0.42188357823E+03  0.20909038620E+03 -0.37110606575E+03  0.61243127150E+03  0.12509119509E+03 0.  0.
        -24    2    1    2    0    0  0.11073034290E+03 -0.93804435189E+02  0.19214434985E+03  0.25314917159E+03  0.78131754081E+02 0.  0.
        -11    1    3    3    0    0  0.42487287389E+02  0.52123311047E+01 -0.65372989977E+01  0.43302127701E+02  0.00000000000E+00 0.  1.
         12    1    3    3    0    0  0.26866594794E+03 -0.12049828212E+03 -0.19882078149E+03  0.35528992489E+03  0.00000000000E+00 0. -1.
         11    1    5    5    0    0  0.99360828829E+02 -0.10791275151E+03  0.17186786479E+03  0.22595640994E+03  0.00000000000E+00 0. -1.
        -12    1    5    5    0    0  0.11369514076E+02  0.14108316323E+02  0.20276485057E+02  0.27192761649E+02  0.00000000000E+00 0.  1.
          5    1    4    4  501    0 -0.18281669469E+03  0.12755942940E+03 -0.24084552572E+03  0.32820327778E+03  0.41800000000E+01 0.  1.
         -5    1    4    4    0  501 -0.23906688355E+03  0.81530956801E+02 -0.13026054003E+03  0.28422799372E+03  0.41800000000E+01 0.  1.
</event>
<event>
11    1  0.8453735E-009  0.1331463E+03  0.7561462E-02  0.1115463E+00
         22   -1    0    0    0    0  0.00000000000E+00  0.00000000000E+00  0.40005134383E+02  0.40005134383E+02  0.00000000000E+00 0. -1.
         22   -1    0    0    0    0 -0.00000000000E+00 -0.00000000000E+00 -0.24664121262E+04  0.24664121262E+04  0.00000000000E+00 0.  1.
        -24    2    1    2    0    0  0.17416925434E+02 -0.37730130316E+02 -0.12407211145E+04  0.12441160157E+04  0.81907659377E+02 0.  0.
         25    2    1    2    0    0 -0.45679537878E+02  0.37535539257E+02 -0.11663030860E+04  0.11744812564E+04  0.12509115186E+03 0.  0.
         24    2    1    2    0    0  0.28262612444E+02  0.19459105896E+00 -0.19382791380E+02  0.87819988518E+02  0.80856939429E+02 0.  0.
        -13    1    5    5    0    0  0.13746287571E+02 -0.40316927294E+02 -0.85905593506E+01  0.43453570145E+02  0.00000000000E+00 0.  1.
         14    1    5    5    0    0  0.14516324873E+02  0.40511518353E+02 -0.10792232029E+02  0.44366418373E+02  0.00000000000E+00 0. -1.
         13    1    3    3    0    0 -0.12863915715E+02  0.50589274978E+01 -0.41337049822E+02  0.43586979282E+02  0.00000000000E+00 0. -1.
        -14    1    3    3    0    0  0.30280841149E+02 -0.42789057813E+02 -0.11993840646E+04  0.12005290364E+04  0.00000000000E+00 0.  1.
          5    1    4    4  501    0 -0.87535814321E+02  0.11111328200E+02 -0.78558616972E+03  0.79053721156E+03  0.41800000000E+01 0. -1.
         -5    1    4    4    0  501  0.41856276443E+02  0.26424211056E+02 -0.38071691630E+03  0.38394404483E+03  0.41800000000E+01 0. -1.
</event>
<event>
11    1  0.8453735E-009  0.1344303E+03  0.7561462E-02  0.1113942E+00
         22   -1    0    0    0    0  0.00000000000E+00  0.00000000000E+00  0.33339858692E+03  0.33339858692E+03  0.00000000000E+00 0. -1.
         22   -1    0    0    0    0 -0.00000000000E+00 -0.00000000000E+00 -0.65983067395E+03  0.65983067395E+03  0.00000000000E+00 0. -1.
         24    2    1    2    0    0 -0.17855546880E+00  0.48111962933E+01 -0.47693315484E+03  0.48369778190E+03  0.80468195784E+02 0.  0.
         25    2    1    2    0    0  0.36070613847E+02 -0.38304779949E+02 -0.14567255944E+03  0.19909029455E+03  0.12509238771E+03 0.  0.
        -24    2    1    2    0    0 -0.35892058378E+02  0.33493583656E+02  0.29617362725E+03  0.31044118442E+03  0.79024372848E+02 0.  0.
        -13    1    3    3    0    0  0.75043884399E+01 -0.19596367635E+02 -0.33517022865E+02  0.39543953926E+02  0.00000000000E+00 0.  1.
         14    1    3    3    0    0 -0.76829439087E+01  0.24407563928E+02 -0.44341613198E+03  0.44415382797E+03  0.00000000000E+00 0. -1.
         13    1    5    5    0    0 -0.31654871375E+02  0.51558843806E+02  0.27785926239E+03  0.28436968008E+03  0.00000000000E+00 0. -1.
        -14    1    5    5    0    0 -0.42371870025E+01 -0.18065260150E+02  0.18314364863E+02  0.26071504336E+02  0.00000000000E+00 0.  1.
          5    1    4    4  501    0  0.36789812150E+01 -0.70739467452E+02 -0.34778670884E+02  0.79023006186E+02  0.41800000000E+01 0. -1.
         -5    1    4    4    0  501  0.32391632632E+02  0.32434687503E+02 -0.11089388855E+03  0.12006728837E+03  0.41800000000E+01 0. -1.
</event>
<event>
11    1  0.8453735E-009  0.1302788E+03  0.7561462E-02  0.1118927E+00
         22   -1    0    0    0    0  0.00000000000E+00  0.00000000000E+00  0.13318869538E+03  0.13318869538E+03  0.00000000000E+00 0. -1.
         22   -1    0    0    0    0 -0.00000000000E+00 -0.00000000000E+00 -0.99157968475E+03  0.99157968475E+03  0.00000000000E+00 0. -1.
         24    2    1    2    0    0  0.11181393038E+01 -0.10750519149E+02 -0.78137332697E+03  0.78562347767E+03  0.80889731517E+02 0.  0.
         25    2    1    2    0    0  0.12461962814E+02 -0.23939414507E+02 -0.16899325767E+03  0.21198268833E+03  0.12509813320E+03 0.  0.
        -24    2    1    2    0    0 -0.13580102117E+02  0.34689933656E+02  0.91975595274E+02  0.12716221412E+03  0.79516714617E+02 0.  0.
        -11    1    3    3    0    0 -0.70814413661E+01  0.75099613779E+01 -0.11356595277E+02  0.15346614871E+02  0.00000000000E+00 0.  1.
         12    1    3    3    0    0  0.81995806699E+01 -0.18260480527E+02 -0.77001673170E+03  0.77027686280E+03  0.00000000000E+00 0. -1.
         11    1    5    5    0    0  0.11522098923E+02  0.28669031882E+01  0.85254034507E+02  0.86076874346E+02  0.00000000000E+00 0. -1.
        -12    1    5    5    0    0 -0.25102201041E+02  0.31823030468E+02  0.67215607670E+01  0.41085339775E+02  0.00000000000E+00 0.  1.
          5    1    4    4  501    0  0.43527687537E+02  0.27411954225E+02 -0.28058089941E+02  0.58743541159E+02  0.41800000000E+01 0. -1.
         -5    1    4    4    0  501 -0.31065724723E+02 -0.51351368732E+02 -0.14093516773E+03  0.15323914718E+03  0.41800000000E+01 0. -1.
</event>
<event>
11    1  0.8453735E-009  0.1874332E+03  0.7561462E-02  0.1063784E+00
         22   -1    0    0    0    0  0.00000000000E+00  0.00000000000E+00  0.42873819394E+03  0.42873819394E+03  0.00000000000E+00 0.  1.
         22   -1    0    0    0    0 -0.00000000000E+00 -0.00000000000E+00 -0.81119684611E+03  0.81119684611E+03  0.00000000000E+00 0.  1.
        -24    2    1    2    0    0 -0.12330349305E+03  0.49426264869E+02 -0.64088921842E+03  0.65949018579E+03  0.80880206460E+02 0.  0.
         25    2    1    2    0    0  0.19646562193E+03 -0.82550791167E+02 -0.49570855311E+02  0.25202326698E+03  0.12508030892E+03 0.  0.
         24    2    1    2    0    0 -0.73162128878E+02  0.33124526297E+02  0.30800142157E+03  0.32842158729E+03  0.80906933978E+02 0.  0.
        -13    1    5    5    0    0 -0.70459378163E+02  0.55680020878E+02  0.22214078874E+03  0.23960659156E+03  0.00000000000E+00 0.  1.
         14    1    5    5    0    0 -0.27027507150E+01 -0.22555494581E+02  0.85860632822E+02  0.88814995726E+02  0.00000000000E+00 0. -1.
         13    1    3    3    0    0 -0.44007191269E+02  0.42955334806E+02 -0.14873675124E+03  0.16094848505E+03  0.00000000000E+00 0. -1.
        -14    1    3    3    0    0 -0.79296301783E+02  0.64709300631E+01 -0.49215246719E+03  0.49854170074E+03  0.00000000000E+00 0.  1.
          5    1    4    4  501    0  0.65308717656E+02 -0.59301687366E+02  0.34098066175E+02  0.94668206084E+02  0.41800000000E+01 0. -1.
         -5    1    4    4    0  501  0.13115690427E+03 -0.23249103801E+02 -0.83668921485E+02  0.15735506089E+03  0.41800000000E+01 0. -1.
</event>
<event>
11    1  0.8453735E-009  0.1416183E+03  0.7561462E-02  0.1105765E+00
         22   -1    0    0    0    0  0.00000000000E+00  0.00000000000E+00  0.24138575376E+04  0.24138575376E+04  0.00000000000E+00 0. -1.
         22   -1    0    0    0    0 -0.00000000000E+00 -0.00000000000E+00 -0.43434786632E+03  0.43434786632E+03  0.00000000000E+00 0.  1.
         24    2    1    2    0    0  0.58180200471E+02  0.31764299431E+02 -0.41983746288E+03  0.43240466034E+03  0.79475710771E+02 0.  0.
         25    2    1    2    0    0 -0.77524460778E+02 -0.24237832605E+02  0.76922233305E+03  0.78354839324E+03  0.12509025678E+03 0.  0.
        -24    2    1    2    0    0  0.19344260308E+02 -0.75264668260E+01  0.16301248012E+04  0.16322523504E+04  0.80684694123E+02 0.  0.
        -13    1    3    3    0    0  0.13077606224E+02  0.49089302601E+02 -0.27691731808E+03  0.28153860209E+03  0.00000000000E+00 0.  1.
         14    1    3    3    0    0  0.45102594246E+02 -0.17325003170E+02 -0.14292014480E+03  0.15086605825E+03  0.00000000000E+00 0. -1.
         11    1    5    5    0    0  0.13092432134E+02 -0.43640331489E+02  0.10324516188E+04  0.10334564507E+04  0.00000000000E+00 0. -1.
        -12    1    5    5    0    0  0.62518281741E+01  0.36113864663E+02  0.59767318233E+03  0.59879589967E+03  0.00000000000E+00 0.  1.
          5    1    4    4  501    0 -0.31707101359E+02 -0.61067042547E+02  0.20549899358E+03  0.21675293014E+03  0.41800000000E+01 0.  1.
         -5    1    4    4    0  501 -0.45817359419E+02  0.36829209942E+02  0.56372333947E+03  0.56679546310E+03  0.41800000000E+01 0.  1.
</event>
<event>
11    1  0.8453735E-009  0.3408067E+03  0.7561462E-02  0.9842617E-01
         22   -1    0    0    0    0  0.00000000000E+00  0.00000000000E+00  0.32770572525E+03  0.32770572525E+03  0.00000000000E+00 0.  1.
         22   -1    0    0    0    0 -0.00000000000E+00 -0.00000000000E+00 -0.77627023731E+03  0.77627023731E+03  0.00000000000E+00 0.  1.
         24    2    1    2    0    0 -0.85126766104E+02  0.25715847296E+03 -0.27485366371E+03  0.39402535739E+03  0.79588939503E+02 0.  0.
         25    2    1    2    0    0  0.34421280173E+02 -0.44355130784E+03 -0.19004548410E+03  0.49968735555E+03  0.12509028760E+03 0.  0.
        -24    2    1    2    0    0  0.50705485931E+02  0.18639283488E+03  0.16334635748E+02  0.21026324963E+03  0.81427750915E+02 0.  0.
        -13    1    3    3    0    0 -0.26094376100E+01  0.10271635248E+03 -0.13655059012E+03  0.17089037976E+03  0.00000000000E+00 0.  1.
         14    1    3    3    0    0 -0.82517328494E+02  0.15444212048E+03 -0.13830307359E+03  0.22313497764E+03  0.00000000000E+00 0. -1.
         13    1    5    5    0    0  0.62488063041E+02  0.12481699206E+03  0.36728694248E+02  0.14433653907E+03  0.00000000000E+00 0. -1.
        -14    1    5    5    0    0 -0.11782577109E+02  0.61575842825E+02 -0.20394058500E+02  0.65926710558E+02  0.00000000000E+00 0.  1.
          5    1    4    4  501    0  0.16849024157E-01 -0.30718223642E+03 -0.70831921054E+02  0.31527061407E+03  0.41800000000E+01 0. -1.
         -5    1    4    4    0  501  0.34404431149E+02 -0.13636907142E+03 -0.11921356305E+03  0.18441674148E+03  0.41800000000E+01 0. -1.
</event>
<event>
11    1  0.8453735E-009  0.1465024E+03  0.7561462E-02  0.1100507E+00
         22   -1    0    0    0    0  0.00000000000E+00  0.00000000000E+00  0.51163405692E+03  0.51163405692E+03  0.00000000000E+00 0.  1.
         22   -1    0    0    0    0 -0.00000000000E+00 -0.00000000000E+00 -0.55305899699E+03  0.55305899699E+03  0.00000000000E+00 0. -1.
        -24    2    1    2    0    0 -0.85484223751E+01 -0.21795733567E+02 -0.49476401902E+03  0.50167974923E+03  0.79642995586E+02 0.  0.
         25    2    1    2    0    0  0.74801841238E+02  0.54155638007E+02  0.81955745118E+02  0.17576029227E+03  0.12508712004E+03 0.  0.
         24    2    1    2    0    0 -0.66253418863E+02 -0.32359904440E+02  0.37138333383E+03  0.38725301241E+03  0.81256606192E+02 0.  0.
        -13    1    5    5    0    0 -0.60307948358E+02  0.14585973190E+02  0.19508406088E+03  0.20471343400E+03  0.00000000000E+00 0.  1.
         14    1    5    5    0    0 -0.59454705052E+01 -0.46945877630E+02  0.17629927295E+03  0.18253957842E+03  0.00000000000E+00 0. -1.
         11    1    3    3    0    0 -0.37223480620E+02 -0.33589415665E+00 -0.37025971042E+03  0.37212626015E+03  0.00000000000E+00 0. -1.
        -12    1    3    3    0    0  0.28675058245E+02 -0.21459839411E+02 -0.12450430860E+03  0.12955348908E+03  0.00000000000E+00 0.  1.
          5    1    4    4  501    0  0.30426376356E+02  0.85840723496E+02  0.20404917231E+02  0.93424981861E+02  0.41800000000E+01 0.  1.
         -5    1    4    4    0  501  0.44375464882E+02 -0.31685085489E+02  0.61550827887E+02  0.82335310405E+02  0.41800000000E+01 0.  1.
</event>
<event>
11    1  0.8453735E-009  0.2119160E+03  0.7561462E-02  0.1046403E+00
         22   -1    0    0    0    0  0.00000000000E+00  0.00000000000E+00  0.69845586230E+03  0.69845586230E+03  0.00000000000E+00 0. -1.
         22   -1    0    0    0    0 -0.00000000000E+00 -0.00000000000E+00 -0.34863119029E+03  0.34863119029E+03  0.00000000000E+00 0.  1.
        -24    2    1    2    0    0  0.65062135771E+02 -0.15818192971E+03 -0.27203664555E+03  0.33158788591E+03  0.81804554669E+02 0.  0.
         25    2    1    2    0    0 -0.54970007236E+02  0.16250532204E+03  0.22085994103E+03  0.30635892424E+03  0.12508795116E+03 0.  0.
         24    2    1    2    0    0 -0.10092128536E+02 -0.43233923314E+01  0.40100137654E+03  0.40914024243E+03  0.80455523173E+02 0.  0.
        -11    1    5    5    0    0 -0.37258672354E+02  0.22070938458E+02  0.21829943204E+03  0.22255331276E+03  0.00000000000E+00 0.  1.
         12    1    5    5    0    0  0.27166543818E+02 -0.26394330789E+02  0.18270194449E+03  0.18658692967E+03  0.00000000000E+00 0. -1.
         13    1    3    3    0    0 -0.56481302116E+01  0.36221124590E+01 -0.37037995215E+02  0.37640857630E+02  0.00000000000E+00 0. -1.
        -14    1    3    3    0    0  0.70710265983E+02 -0.16180404217E+03 -0.23499865034E+03  0.29394702828E+03  0.00000000000E+00 0.  1.
          5    1    4    4  501    0  0.17305307245E+02 -0.11933646468E+02  0.37114296330E+02  0.42858242719E+02  0.41800000000E+01 0. -1.
         -5    1    4    4    0  501 -0.72275314480E+02  0.17443896851E+03  0.18374564470E+03  0.26350068152E+03  0.41800000000E+01 0. -1.
</event>
<event>
11    1  0.8453735E-009  0.2203210E+03  0.7561462E-02  0.1041017E+00
         22   -1    0    0    0    0  0.00000000000E+00  0.00000000000E+00  0.76384398578E+03  0.76384398578E+03  0.00000000000E+00 0.  1.
         22   -1    0    0    0    0 -0.00000000000E+00 -0.00000000000E+00 -0.39868322880E+03  0.39868322880E+03  0.00000000000E+00 0. -1.
         24    2    1    2    0    0  0.75778831194E+02  0.18453887024E+02 -0.27302579830E+03  0.29525731868E+03  0.80937139171E+02 0.  0.
         25    2    1    2    0    0 -0.24520894264E+03 -0.34274314855E+02  0.98518662145E+02  0.29437239566E+03  0.12508807429E+03 0.  0.
        -24    2    1    2    0    0  0.16943011144E+03  0.15820427831E+02  0.53966789313E+03  0.57289750023E+03  0.89516826879E+02 0.  0.
        -13    1    3    3    0    0  0.61404889314E+02 -0.22526950199E+02 -0.12618521857E+03  0.14212928376E+03  0.00000000000E+00 0.  1.
         14    1    3    3    0    0  0.14373941880E+02  0.40980837223E+02 -0.14684057973E+03  0.15312803492E+03  0.00000000000E+00 0. -1.
         11    1    5    5    0    0  0.41589317729E+02 -0.12403441735E+02  0.26610949576E+03  0.26962525929E+03  0.00000000000E+00 0. -1.
        -12    1    5    5    0    0  0.12784079371E+03  0.28223869566E+02  0.27355839737E+03  0.30327224094E+03  0.00000000000E+00 0.  1.
          5    1    4    4  501    0 -0.10492761084E+03 -0.54626139434E+02  0.96217560646E+02  0.15254215812E+03  0.41800000000E+01 0.  1.
         -5    1    4    4    0  501 -0.14028133180E+03  0.20351824578E+02  0.23011014988E+01  0.14183023755E+03  0.41800000000E+01 0.  1.
</event>
<event>
11    1  0.8453735E-009  0.1609428E+03  0.7561462E-02  0.1086194E+00
         22   -1    0    0    0    0  0.00000000000E+00  0.00000000000E+00  0.12082150284E+04  0.12082150284E+04  0.00000000000E+00 0. -1.
         22   -1    0    0    0    0 -0.00000000000E+00 -0.00000000000E+00 -0.12445238851E+04  0.12445238851E+04  0.00000000000E+00 0.  1.
        -24    2    1    2    0    0 -0.53041463745E+02 -0.87188011195E+02 -0.12124998285E+04  0.12204516875E+04  0.94505772757E+02 0.  0.
         25    2    1    2    0    0  0.66171130257E+02  0.30048842801E+02  0.17870895495E+03  0.22993088801E+03  0.12509904576E+03 0.  0.
         24    2    1    2    0    0 -0.13129666512E+02  0.57139168394E+02  0.99748201686E+03  0.10023563380E+04  0.79439169740E+02 0.  0.
        -13    1    5    5    0    0 -0.58351520190E+01 -0.14709456560E+02  0.58540752262E+02  0.60641873213E+02  0.00000000000E+00 0.  1.
         14    1    5    5    0    0 -0.72945144935E+01  0.71848624954E+02  0.93894126460E+03  0.94171446480E+03  0.00000000000E+00 0. -1.
         11    1    3    3    0    0 -0.65323294555E+02 -0.21166394011E+02 -0.48114627156E+03  0.48602148479E+03  0.00000000000E+00 0. -1.
        -12    1    3    3    0    0  0.12281830810E+02 -0.66021617184E+02 -0.73135355697E+03  0.73443020267E+03  0.00000000000E+00 0.  1.
          5    1    4    4  501    0  0.82887709738E+02 -0.13687848159E+02  0.15708364703E+03  0.17818662738E+03  0.41800000000E+01 0.  1.
         -5    1    4    4    0  501 -0.16716579481E+02  0.43736690960E+02  0.21625307917E+02  0.51744260631E+02  0.41800000000E+01 0.  1.
</event>
<event>
11    1  0.8453735E-009  0.1542988E+03  0.7561462E-02  0.1092565E+00
         22   -1    0    0    0    0  0.00000000000E+00  0.00000000000E+00  0.55908833905E+03  0.55908833905E+03  0.00000000000E+00 0.  1.
         22   -1    0    0    0    0 -0.00000000000E+00 -0.00000000000E+00 -0.19072111720E+03  0.19072111720E+03  0.00000000000E+00 0.  1.
        -24    2    1    2    0    0  0.36767480225E+02 -0.70485216541E+02 -0.12168317540E+03  0.16477271809E+03  0.77609536131E+02 0.  0.
         25    2    1    2    0    0 -0.11480850488E+03  0.28064866389E+02  0.16490081960E+03  0.23834598514E+03  0.12509156170E+03 0.  0.
         24    2    1    2    0    0  0.78041024652E+02  0.42420350152E+02  0.32514957764E+03  0.34669075302E+03  0.81131638421E+02 0.  0.
        -11    1    5    5    0    0  0.78209520219E+02  0.38333873741E+02  0.32944230643E+03  0.34076157089E+03  0.00000000000E+00 0.  1.
         12    1    5    5    0    0 -0.16849556744E+00  0.40864764114E+01 -0.42927287917E+01  0.59291821271E+01  0.00000000000E+00 0. -1.
         11    1    3    3    0    0  0.28730082716E+02 -0.87105957686E+02 -0.92690722992E+02  0.13040105692E+03  0.00000000000E+00 0. -1.
        -12    1    3    3    0    0  0.80373975091E+01  0.16620741145E+02 -0.28992452409E+02  0.34371661170E+02  0.00000000000E+00 0.  1.
          5    1    4    4  501    0 -0.63866814927E+02 -0.43539192921E+02  0.44693334860E+02  0.89384550958E+02  0.41800000000E+01 0. -1.
         -5    1    4    4    0  501 -0.50941689949E+02  0.71604059310E+02  0.12020748474E+03  0.14896143418E+03  0.41800000000E+01 0. -1.
</event>
<event>
11    1  0.8453735E-009  0.1362106E+03  0.7561462E-02  0.1111865E+00
         22   -1    0    0    0    0  0.00000000000E+00  0.00000000000E+00  0.76664023284E+03  0.76664023284E+03  0.00000000000E+00 0.  1.
         22   -1    0    0    0    0 -0.00000000000E+00 -0.00000000000E+00 -0.12566699414E+03  0.12566699414E+03  0.00000000000E+00 0.  1.
        -24    2    1    2    0    0 -0.54898247175E+02 -0.12920486606E+02 -0.80966854161E+02  0.13287228021E+03  0.88986824068E+02 0.  0.
         25    2    1    2    0    0  0.41083049130E+01  0.44484223808E+02  0.39346618156E+03  0.41528069869E+03  0.12508676324E+03 0.  0.
         24    2    1    2    0    0  0.50789942262E+02 -0.31563737202E+02  0.32847391131E+03  0.34415424808E+03  0.83493402863E+02 0.  0.
        -13    1    5    5    0    0  0.78912471357E+01 -0.10032294878E+02  0.26120372889E+03  0.26151540434E+03  0.00000000000E+00 0.  1.
         14    1    5    5    0    0  0.42898695127E+02 -0.21531442324E+02  0.67270182414E+02  0.82638843737E+02  0.00000000000E+00 0. -1.
         13    1    3    3    0    0 -0.53351216281E+01 -0.81393201061E+01 -0.82483835019E+02  0.83055975667E+02  0.00000000000E+00 0. -1.
        -14    1    3    3    0    0 -0.49563125547E+02 -0.47811664996E+01  0.15169808580E+01  0.49816304540E+02  0.00000000000E+00 0.  1.
          5    1    4    4  501    0 -0.46317189638E+02  0.41787966261E+01  0.62301033796E+02  0.77856506532E+02  0.41800000000E+01 0. -1.
         -5    1    4    4    0  501  0.50425494551E+02  0.40305427181E+02  0.33116514776E+03  0.33742419216E+03  0.41800000000E+01 0. -1.
</event>
<event>
11    1  0.8453735E-009  0.1300028E+03  0.7561462E-02  0.1119266E+00
         22   -1    0    0    0    0  0.00000000000E+00  0.00000000000E+00  0.16357341393E+03  0.16357341393E+03  0.00000000000E+00 0.  1.
         22   -1    0    0    0    0 -0.00000000000E+00 -0.00000000000E+00 -0.11065303569E+04  0.11065303569E+04  0.00000000000E+00 0. -1.
         24    2    1    2    0    0 -0.91321500793E+01 -0.17124504924E+02 -0.98108181252E+03  0.98430852881E+03  0.77234138839E+02 0.  0.
         25    2    1    2    0    0 -0.27454645412E+02  0.14796831130E+02 -0.69741023635E+02  0.14656704690E+03  0.12508151379E+03 0.  0.
        -24    2    1    2    0    0  0.36586795492E+02  0.23276737941E+01  0.10786589319E+03  0.13922819512E+03  0.80033916138E+02 0.  0.
        -13    1    3    3    0    0  0.17781335530E+02  0.52983586008E+01 -0.66051817412E+02  0.68608243532E+02  0.00000000000E+00 0.  1.
         14    1    3    3    0    0 -0.26913485610E+02 -0.22422863525E+02 -0.91502999510E+03  0.91570028528E+03  0.00000000000E+00 0. -1.
         13    1    5    5    0    0  0.40673956916E+02  0.13559150765E+02  0.14738565449E+02  0.45337034003E+02  0.00000000000E+00 0. -1.
        -14    1    5    5    0    0 -0.40871614242E+01 -0.11231476971E+02  0.93127327738E+02  0.93891161113E+02  0.00000000000E+00 0.  1.
          5    1    4    4  501    0 -0.49066496981E+02  0.24855163536E+02  0.16032972763E+02  0.57444137177E+02  0.41800000000E+01 0.  1.
         -5    1    4    4    0  501  0.21611851568E+02 -0.10058332406E+02 -0.85773996397E+02  0.89122909720E+02  0.41800000000E+01 0.  1.
</event>
<event>
11    1  0.8453735E-009  0.1538301E+03  0.7561462E-02  0.1093028E+00
         22   -1    0    0    0    0  0.00000000000E+00  0.00000000000E+00  0.30411895417E+04  0.30411895417E+04  0.00000000000E+00 0. -1.
         22   -1    0    0    0    0 -0.00000000000E+00 -0.00000000000E+00 -0.49387947541E+03  0.49387947541E+03  0.00000000000E+00 0.  1.
         24    2    1    2    0    0  0.66237337537E+02  0.59801401328E+02 -0.43697896900E+03  0.45518894736E+03  0.91009702566E+02 0.  0.
         25    2    1    2    0    0 -0.55644314866E+02 -0.78151784691E+02  0.84858792596E+02  0.17903115256E+03  0.12508855934E+03 0.  0.
        -24    2    1    2    0    0 -0.10593022670E+02  0.18350383363E+02  0.28994302427E+04  0.29008489172E+04  0.88202944483E+02 0.  0.
        -13    1    3    3    0    0  0.73211787094E+02  0.66038181193E+02 -0.43444947480E+03  0.44549674892E+03  0.00000000000E+00 0.  1.
         14    1    3    3    0    0 -0.69744495568E+01 -0.62367798652E+01 -0.25294942088E+01  0.96921984430E+01  0.00000000000E+00 0. -1.
         11    1    5    5    0    0  0.92568217003E+00  0.13199912651E+02  0.28427675946E+04  0.28427983909E+04  0.00000000000E+00 0. -1.
        -12    1    5    5    0    0 -0.11518704840E+02  0.51504707121E+01  0.56662648100E+02  0.58050526263E+02  0.00000000000E+00 0.  1.
          5    1    4    4  501    0  0.15974622234E+02 -0.73063966089E+01 -0.24403075101E+02  0.30357115497E+02  0.41800000000E+01 0. -1.
         -5    1    4    4    0  501 -0.71618937100E+02 -0.70845388082E+02  0.10926186770E+03  0.14867403706E+03  0.41800000000E+01 0. -1.
</event>
<event>
11    1  0.8453735E-009  0.1534907E+03  0.7561462E-02  0.1093364E+00
         22   -1    0    0    0    0  0.00000000000E+00  0.00000000000E+00  0.91825826525E+03  0.91825826525E+03  0.00000000000E+00 0.  1.
         22   -1    0    0    0    0 -0.00000000000E+00 -0.00000000000E+00 -0.77627598409E+03  0.77627598409E+03  0.00000000000E+00 0. -1.
         24    2    1    2    0    0 -0.76239744978E+01  0.36922718304E+02 -0.68200409911E+03  0.68783426285E+03  0.81024501372E+02 0.  0.
         25    2    1    2    0    0  0.96208744792E+02 -0.36458065976E+02 -0.11802654047E+02  0.16239485917E+03  0.12508986567E+03 0.  0.
        -24    2    1    2    0    0 -0.88584770295E+02 -0.46465232778E+00  0.83578903433E+03  0.84430512732E+03  0.80376368980E+02 0.  0.
        -13    1    3    3    0    0  0.18023761243E+02 -0.13483914441E+02 -0.77853095704E+02  0.81041819011E+02  0.00000000000E+00 0.  1.
         14    1    3    3    0    0 -0.25647735741E+02  0.50406632745E+02 -0.60415100341E+03  0.60679244383E+03  0.00000000000E+00 0. -1.
         11    1    5    5    0    0 -0.38902584124E+02 -0.21715853874E+02  0.15228872996E+03  0.15867213566E+03  0.00000000000E+00 0. -1.
        -12    1    5    5    0    0 -0.49682186171E+02  0.21251201546E+02  0.68350030437E+03  0.68563299167E+03  0.00000000000E+00 0.  1.
          5    1    4    4  501    0  0.48058248642E+02 -0.37946976914E+02  0.53306831563E+02  0.81293659105E+02  0.41800000000E+01 0. -1.
         -5    1    4    4    0  501  0.48150496150E+02  0.14889109382E+01 -0.65109485610E+02  0.81101200063E+02  0.41800000000E+01 0. -1.
</event>
<event>
11    1  0.8453735E-009  0.1673756E+03  0.7561462E-02  0.1080338E+00
         22   -1    0    0    0    0  0.00000000000E+00  0.00000000000E+00  0.21203909499E+04  0.21203909499E+04  0.00000000000E+00 0. -1.
         22   -1    0    0    0    0 -0.00000000000E+00 -0.00000000000E+00 -0.35296378723E+03  0.35296378723E+03  0.00000000000E+00 0.  1.
        -24    2    1    2    0    0 -0.75448776588E+02  0.21212174219E+02 -0.31634309090E+03  0.33477367879E+03  0.76537511232E+02 0.  0.
         25    2    1    2    0    0  0.83324611958E+02  0.90999818655E+02  0.28747382215E+03  0.33692261781E+03  0.12510673051E+03 0.  0.
         24    2    1    2    0    0 -0.78758353694E+01 -0.11221199287E+03  0.17962964314E+04  0.18016584405E+04  0.81478258961E+02 0.  0.
        -11    1    5    5    0    0 -0.84445114514E+01 -0.31988162718E+02  0.15939669177E+03  0.16279391166E+03  0.00000000000E+00 0.  1.
         12    1    5    5    0    0  0.56867608194E+00 -0.80223830156E+02  0.16368997396E+04  0.16388645288E+04  0.00000000000E+00 0. -1.
         13    1    3    3    0    0 -0.15106939250E+02  0.38554955609E+02 -0.17950750794E+03  0.18422174036E+03  0.00000000000E+00 0. -1.
        -14    1    3    3    0    0 -0.60341837338E+02 -0.17342781390E+02 -0.13683558296E+03  0.15055193843E+03  0.00000000000E+00 0.  1.
          5    1    4    4  501    0 -0.83630794694E+01  0.32394282349E+02  0.18277171016E+03  0.18585559196E+03  0.41800000000E+01 0.  1.
         -5    1    4    4    0  501  0.91687691427E+02  0.58605536306E+02  0.10470211199E+03  0.15106702585E+03  0.41800000000E+01 0.  1.
</event>
<event>
11    1  0.8453735E-009  0.1306584E+03  0.7561462E-02  0.1118463E+00
         22   -1    0    0    0    0  0.00000000000E+00  0.00000000000E+00  0.92860860950E+03  0.92860860950E+03  0.00000000000E+00 0. -1.
         22   -1    0    0    0    0 -0.00000000000E+00 -0.00000000000E+00 -0.95727259007E+02  0.95727259007E+02  0.00000000000E+00 0.  1.
         24    2    1    2    0    0 -0.19357215223E+02  0.70430657245E+01 -0.42754725841E+02  0.93029585873E+02  0.80013940723E+02 0.  0.
         25    2    1    2    0    0 -0.11342294703E+02  0.18032458274E+02  0.13506618368E+03  0.18531885463E+03  0.12508551758E+03 0.  0.
        -24    2    1    2    0    0  0.30699509927E+02 -0.25075523999E+02  0.74056989265E+03  0.74598742800E+03  0.80512328349E+02 0.  0.
        -13    1    3    3    0    0  0.49411345318E+01 -0.25025484595E+02 -0.46068258928E+02  0.52659036930E+02  0.00000000000E+00 0.  1.
         14    1    3    3    0    0 -0.24298349755E+02  0.32068550320E+02  0.33135330876E+01  0.40370548943E+02  0.00000000000E+00 0. -1.
         11    1    5    5    0    0  0.47381240266E+02 -0.38863167359E+02  0.64935780404E+03  0.65224296499E+03  0.00000000000E+00 0. -1.
        -12    1    5    5    0    0 -0.16681730340E+02  0.13787643360E+02  0.91212088611E+02  0.93744463011E+02  0.00000000000E+00 0.  1.
          5    1    4    4  501    0  0.24925401631E+02  0.25828838184E+02  0.14270927045E+03  0.14721349395E+03  0.41800000000E+01 0. -1.
         -5    1    4    4    0  501 -0.36267696334E+02 -0.77963799092E+01 -0.76430867737E+01  0.38105360680E+02  0.41800000000E+01 0. -1.
</event>
<event>
11    1  0.8453735E-009  0.1476344E+03  0.7561462E-02  0.1099321E+00
         22   -1    0    0    0    0  0.00000000000E+00  0.00000000000E+00  0.91452376798E+02  0.91452376798E+02  0.00000000000E+00 0.  1.
         22   -1    0    0    0    0 -0.00000000000E+00 -0.00000000000E+00 -0.21844145019E+04  0.21844145019E+04  0.00000000000E+00 0. -1.
         24    2    1    2    0    0 -0.75245476797E+02 -0.39334345987E+02 -0.17643089515E+04  0.17681738028E+04  0.80271089209E+02 0.  0.
         25    2    1    2    0    0  0.48131603002E+02 -0.12016768390E+02 -0.36503324520E+03  0.38904759446E+03  0.12509079392E+03 0.  0.
        -24    2    1    2    0    0  0.27113873794E+02  0.51351114376E+02  0.36380071649E+02  0.11864548146E+03  0.96856293331E+02 0.  0.
        -11    1    3    3    0    0  0.35767471882E+00  0.48720970656E+01 -0.62400308039E+01  0.79248498695E+01  0.00000000000E+00 0.  1.
         12    1    3    3    0    0 -0.75603151515E+02 -0.44206443053E+02 -0.17580689207E+04  0.17602489529E+04  0.00000000000E+00 0. -1.
         11    1    5    5    0    0  0.49915019800E+01 -0.16064488592E+02 -0.21345106727E+02  0.27177131323E+02  0.00000000000E+00 0. -1.
        -12    1    5    5    0    0  0.22122371814E+02  0.67415602968E+02  0.57725178376E+02  0.91468350137E+02  0.00000000000E+00 0.  1.
          5    1    4    4  501    0 -0.10836977863E+01  0.50136698660E+02 -0.19508360447E+03  0.20146947185E+03  0.41800000000E+01 0.  1.
         -5    1    4    4    0  501  0.49215300789E+02 -0.62153467050E+02 -0.16994964072E+03  0.18757812261E+03  0.41800000000E+01 0.  1.
</event>
<event>
11    1  0.8453735E-009  0.1369578E+03  0.7561462E-02  0.1111004E+00
         22   -1    0    0    0    0  0.00000000000E+00  0.00000000000E+00  0.96749392712E+03  0.96749392712E+03  0.00000000000E+00 0. -1.
         22   -1    0    0    0    0 -0.00000000000E+00 -0.00000000000E+00 -0.15353323960E+03  0.15353323960E+03  0.00000000000E+00 0.  1.
         24    2    1    2    0    0 -0.47483718828E+02 -0.30492884218E+02 -0.12448099683E+03  0.14995456997E+03  0.61695501800E+02 0.  0.
         25    2    1    2    0    0  0.43146842443E+02  0.56154491701E+01  0.29713744000E+03  0.32531770001E+03  0.12509102449E+03 0.  0.
        -24    2    1    2    0    0  0.43368763844E+01  0.24877435047E+02  0.64130424435E+03  0.64575489674E+03  0.71348143397E+02 0.  0.
        -11    1    3    3    0    0 -0.53139512085E+02 -0.28174773322E+02 -0.12901349183E+03  0.14234502686E+03  0.00000000000E+00 0.  1.
         12    1    3    3    0    0  0.56557932568E+01 -0.23181108957E+01  0.45324950019E+01  0.76095431157E+01  0.00000000000E+00 0. -1.
         13    1    5    5    0    0  0.12544220882E+02 -0.18823912083E+02  0.38173466539E+03  0.38240430425E+03  0.00000000000E+00 0. -1.
        -14    1    5    5    0    0 -0.82073444978E+01  0.43701347130E+02  0.25956957896E+03  0.26335059249E+03  0.00000000000E+00 0.  1.
          5    1    4    4  501    0  0.14252967560E+01  0.40408203453E+02  0.24996557974E+03  0.25324912208E+03  0.41800000000E+01 0.  1.
         -5    1    4    4    0  501  0.41721545687E+02 -0.34792754283E+02  0.47171860255E+02  0.72068577931E+02  0.41800000000E+01 0.  1.
</event>
<event>
11    1  0.8453735E-009  0.1306625E+03  0.7561462E-02  0.1118458E+00
         22   -1    0    0    0    0  0.00000000000E+00  0.00000000000E+00  0.12756989714E+03  0.12756989714E+03  0.00000000000E+00 0. -1.
         22   -1    0    0    0    0 -0.00000000000E+00 -0.00000000000E+00 -0.57118643876E+03  0.57118643876E+03  0.00000000000E+00 0.  1.
         24    2    1    2    0    0  0.13598651366E+02 -0.35231559106E+02 -0.45293796574E+03  0.46201304918E+03  0.82928105814E+02 0.  0.
         25    2    1    2    0    0 -0.15263652698E+02  0.34359755992E+02 -0.46702705483E+02  0.13871783754E+03  0.12509166170E+03 0.  0.
        -24    2    1    2    0    0  0.16650013316E+01  0.87180311398E+00  0.56024129604E+02  0.98025449184E+02  0.80416125993E+02 0.  0.
        -11    1    3    3    0    0 -0.72708687753E+00 -0.25424899098E+02 -0.43903567481E+03  0.43977184756E+03  0.00000000000E+00 0.  1.
         12    1    3    3    0    0  0.14325738243E+02 -0.98066600082E+01 -0.13902290930E+02  0.22241201627E+02  0.00000000000E+00 0. -1.
         13    1    5    5    0    0 -0.28207950733E+01  0.25225931161E+02  0.66467692006E+02  0.71149550725E+02  0.00000000000E+00 0. -1.
        -14    1    5    5    0    0  0.44857964049E+01 -0.24354128047E+02 -0.10443562402E+02  0.26875898459E+02  0.00000000000E+00 0.  1.
          5    1    4    4  501    0  0.15948340721E+02 -0.25744418471E+02 -0.62029912038E+02  0.69154226491E+02  0.41800000000E+01 0. -1.
         -5    1    4    4    0  501 -0.31211993418E+02  0.60104174463E+02  0.15327206554E+02  0.69563611046E+02  0.41800000000E+01 0. -1.
</event>
<event>
11    1  0.8453735E-009  0.2056340E+03  0.7561462E-02  0.1050610E+00
         22   -1    0    0    0    0  0.00000000000E+00  0.00000000000E+00  0.59505080033E+03  0.59505080033E+03  0.00000000000E+00 0.  1.
         22   -1    0    0    0    0 -0.00000000000E+00 -0.00000000000E+00 -0.16698712047E+03  0.16698712047E+03  0.00000000000E+00 0.  1.
        -24    2    1    2    0    0  0.73090142111E+02  0.12723534646E+03 -0.17023741205E+02  0.16844003180E+03  0.80939695373E+02 0.  0.
         25    2    1    2    0    0 -0.14702325140E+03 -0.18005594492E+03  0.25136304491E+03  0.36450918651E+03  0.12509031516E+03 0.  0.
         24    2    1    2    0    0  0.73933109292E+02  0.52820598464E+02  0.19372437616E+03  0.22908870249E+03  0.81831408509E+02 0.  0.
        -13    1    5    5    0    0  0.88557618331E+02  0.27565788693E+02  0.15444907341E+03  0.18015782178E+03  0.00000000000E+00 0.  1.
         14    1    5    5    0    0 -0.14624509039E+02  0.25254809770E+02  0.39275302749E+02  0.48930880711E+02  0.00000000000E+00 0. -1.
         11    1    3    3    0    0 -0.16614812898E+02  0.98224519297E+01 -0.62534658218E+01  0.20288873905E+02  0.00000000000E+00 0. -1.
        -12    1    3    3    0    0  0.89704955009E+02  0.11741289453E+03 -0.10770275383E+02  0.14815115790E+03  0.00000000000E+00 0.  1.
          5    1    4    4  501    0 -0.61872473083E+02 -0.70614645832E+02  0.22103241099E+02  0.96543548715E+02  0.41800000000E+01 0. -1.
         -5    1    4    4    0  501 -0.85150778319E+02 -0.10944129909E+03  0.22925980381E+03  0.26796563779E+03  0.41800000000E+01 0. -1.
</event>
<event>
11    1  0.8453735E-009  0.1310933E+03  0.7561462E-02  0.1117933E+00
         22   -1    0    0    0    0  0.00000000000E+00  0.00000000000E+00  0.29762330487E+03  0.29762330487E+03  0.00000000000E+00 0. -1.
         22   -1    0    0    0    0 -0.00000000000E+00 -0.00000000000E+00 -0.14801992079E+04  0.14801992079E+04  0.00000000000E+00 0.  1.
         24    2    1    2    0    0 -0.19589107343E+02 -0.34244176987E+02 -0.14033176311E+04  0.14061080427E+04  0.79265738168E+02 0.  0.
         25    2    1    2    0    0 -0.97341747165E+01  0.37611651251E+02 -0.43185634645E+01  0.13105900442E+03  0.12509365365E+03 0.  0.
        -24    2    1    2    0    0  0.29323282060E+02 -0.33674742636E+01  0.22506029156E+03  0.24065546562E+03  0.79948255402E+02 0.  0.
        -13    1    3    3    0    0 -0.37035671669E+02 -0.25899525110E+02 -0.13113730026E+04  0.13121515074E+04  0.00000000000E+00 0.  1.
         14    1    3    3    0    0  0.17446564326E+02 -0.83446518768E+01 -0.91944628496E+02  0.93956535329E+02  0.00000000000E+00 0. -1.
         13    1    5    5    0    0  0.11725075403E+02  0.10376444317E+02  0.21598617430E+03  0.21655293920E+03  0.00000000000E+00 0. -1.
        -14    1    5    5    0    0  0.17598206656E+02 -0.13743918581E+02  0.90741172595E+01  0.24102526414E+02  0.00000000000E+00 0.  1.
          5    1    4    4  501    0  0.51649660166E+02 -0.49146500328E+01 -0.17900718538E+02  0.55043158562E+02  0.41800000000E+01 0.  1.
         -5    1    4    4    0  501 -0.61383834883E+02  0.42526301284E+02  0.13582155074E+02  0.76015845863E+02  0.41800000000E+01 0.  1.
</event>
<event>
11    1  0.8453735E-009  0.1998506E+03  0.7561462E-02  0.1054629E+00
         22   -1    0    0    0    0  0.00000000000E+00  0.00000000000E+00  0.47709671410E+03  0.47709671410E+03  0.00000000000E+00 0.  1.
         22   -1    0    0    0    0 -0.00000000000E+00 -0.00000000000E+00 -0.20698323094E+04  0.20698323094E+04  0.00000000000E+00 0.  1.
        -24    2    1    2    0    0  0.71567749316E+02  0.41515747233E+02 -0.19109780275E+04  0.19140255232E+04  0.69362681875E+02 0.  0.
         25    2    1    2    0    0  0.91208360098E+02 -0.11517096989E+02 -0.94025966526E+02  0.18149134495E+03  0.12508643985E+03 0.  0.
         24    2    1    2    0    0 -0.16277610941E+03 -0.29998650244E+02  0.41226839875E+03  0.45141215538E+03  0.80073220243E+02 0.  0.
        -11    1    5    5    0    0 -0.15960025425E+03 -0.14100086993E+02  0.40055472847E+03  0.43141064441E+03  0.00000000000E+00 0.  1.
         12    1    5    5    0    0 -0.31758551601E+01 -0.15898563251E+02  0.11713670280E+02  0.20001510964E+02  0.00000000000E+00 0. -1.
         11    1    3    3    0    0  0.31518846574E+02  0.55814101945E+02 -0.99662333062E+03  0.99868248949E+03  0.00000000000E+00 0. -1.
        -12    1    3    3    0    0  0.40048902742E+02 -0.14298354712E+02 -0.91435469692E+03  0.91534303369E+03  0.00000000000E+00 0.  1.
          5    1    4    4  501    0  0.10502095322E+03  0.31570161716E+02 -0.64318928135E+02  0.12720248678E+03  0.41800000000E+01 0. -1.
         -5    1    4    4    0  501 -0.13812593120E+02 -0.43087258705E+02 -0.29707038391E+02  0.54288858170E+02  0.41800000000E+01 0. -1.
</event>
<event>
11    1  0.8453735E-009  0.1481302E+03  0.7561462E-02  0.1098805E+00
         22   -1    0    0    0    0  0.00000000000E+00  0.00000000000E+00  0.22864461281E+03  0.22864461281E+03  0.00000000000E+00 0. -1.
         22   -1    0    0    0    0 -0.00000000000E+00 -0.00000000000E+00 -0.13586838343E+04  0.13586838343E+04  0.00000000000E+00 0.  1.
        -24    2    1    2    0    0 -0.77730876546E+02  0.49679809536E+01 -0.12393174267E+04  0.12445950305E+04  0.83918626318E+02 0.  0.
         25    2    1    2    0    0  0.12350571946E+03 -0.32800045006E+02 -0.21554891658E+02  0.18007980413E+03  0.12503846132E+03 0.  0.
         24    2    1    2    0    0 -0.45774842918E+02  0.27832064052E+02  0.13083309689E+03  0.16265361245E+03  0.80429710732E+02 0.  0.
        -11    1    5    5    0    0 -0.66972060641E+01 -0.15002417330E+02 -0.30903499304E+01  0.16717516487E+02  0.00000000000E+00 0.  1.
         12    1    5    5    0    0 -0.39077636854E+02  0.42834481382E+02  0.13392344682E+03  0.14593609596E+03  0.00000000000E+00 0. -1.
         13    1    3    3    0    0 -0.20080030384E+02 -0.26789253114E+01 -0.51299512278E+02  0.55154548507E+02  0.00000000000E+00 0. -1.
        -14    1    3    3    0    0 -0.57650846162E+02  0.76469062650E+01 -0.11880179144E+04  0.11894404820E+04  0.00000000000E+00 0.  1.
          5    1    4    4  501    0  0.10974110960E+03 -0.18589386626E+02  0.37604936770E+02  0.11755968740E+03  0.41800000000E+01 0. -1.
         -5    1    4    4    0  501  0.13764609861E+02 -0.14210658380E+02 -0.59159828428E+02  0.62520116729E+02  0.41800000000E+01 0. -1.
</event>
<event>
11    1  0.8453735E-009  0.1442740E+03  0.7561462E-02  0.1102878E+00
         22   -1    0    0    0    0  0.00000000000E+00  0.00000000000E+00  0.46150598139E+03  0.46150598139E+03  0.00000000000E+00 0.  1.
         22   -1    0    0    0    0 -0.00000000000E+00 -0.00000000000E+00 -0.68494837286E+03  0.68494837286E+03  0.00000000000E+00 0. -1.
         24    2    1    2    0    0 -0.15558015862E+02 -0.22402728502E+02 -0.64145699075E+03  0.64706031352E+03  0.80473873133E+02 0.  0.
         25    2    1    2    0    0  0.23136500358E+02 -0.54253306815E+02  0.12726872280E+03  0.18794439880E+03  0.12508817005E+03 0.  0.
        -24    2    1    2    0    0 -0.75784844959E+01  0.76656035317E+02  0.29074587648E+03  0.31144964194E+03  0.80833987896E+02 0.  0.
        -11    1    3    3    0    0  0.55036995969E+01 -0.40555159543E+02 -0.17285220062E+03  0.17763134558E+03  0.00000000000E+00 0.  1.
         12    1    3    3    0    0 -0.21061715459E+02  0.18152431041E+02 -0.46860479013E+03  0.46942896794E+03  0.00000000000E+00 0. -1.
         11    1    5    5    0    0  0.33373812385E+00  0.62494493692E+01 -0.45728774750E+01  0.77510132856E+01  0.00000000000E+00 0. -1.
        -12    1    5    5    0    0 -0.79122226198E+01  0.70406585948E+02  0.29531875395E+03  0.30369862865E+03  0.00000000000E+00 0.  1.
          5    1    4    4  501    0  0.46337824876E+02 -0.86079854882E+02  0.80889706783E+02  0.12695492308E+03  0.41800000000E+01 0. -1.
         -5    1    4    4    0  501 -0.23201324518E+02  0.31826548067E+02  0.46379016019E+02  0.60989475717E+02  0.41800000000E+01 0. -1.
</event>
<event>
11    1  0.8453735E-009  0.1741391E+03  0.7561462E-02  0.1074485E+00
         22   -1    0    0    0    0  0.00000000000E+00  0.00000000000E+00  0.16454254306E+03  0.16454254306E+03  0.00000000000E+00 0.  1.
         22   -1    0    0    0    0 -0.00000000000E+00 -0.00000000000E+00 -0.19530715215E+04  0.19530715215E+04  0.00000000000E+00 0.  1.
         24    2    1    2    0    0 -0.10363964413E+03  0.80404453541E+02 -0.15684203836E+04  0.15759565439E+04  0.80563494080E+02 0.  0.
         25    2    1    2    0    0  0.53158686176E+02 -0.62302315152E+02 -0.34954680619E+03  0.38018061503E+03  0.12508759308E+03 0.  0.
        -24    2    1    2    0    0  0.50480957957E+02 -0.18102138389E+02  0.12943821136E+03  0.16147690563E+03  0.80277804903E+02 0.  0.
        -13    1    3    3    0    0 -0.85132405305E+01  0.53843171158E+02 -0.48993947683E+03  0.49296273014E+03  0.00000000000E+00 0.  1.
         14    1    3    3    0    0 -0.95126403602E+02  0.26561282383E+02 -0.10784809068E+04  0.10829938138E+04  0.00000000000E+00 0. -1.
         13    1    5    5    0    0  0.70729482641E+01 -0.44903055260E+02  0.64088874828E+02  0.78572863289E+02  0.00000000000E+00 0. -1.
        -14    1    5    5    0    0  0.43408009693E+02  0.26800916871E+02  0.65349336532E+02  0.82904042336E+02  0.00000000000E+00 0.  1.
          5    1    4    4  501    0  0.28430767138E+02  0.11983135574E+02 -0.25703374481E+03  0.25891257681E+03  0.41800000000E+01 0.  1.
         -5    1    4    4    0  501  0.24727919037E+02 -0.74285450725E+02 -0.92513061376E+02  0.12126803822E+03  0.41800000000E+01 0.  1.
</event>
<event>
11    1  0.8453735E-009  0.1705485E+03  0.7561462E-02  0.1077555E+00
         22   -1    0    0    0    0  0.00000000000E+00  0.00000000000E+00  0.32780404206E+03  0.32780404206E+03  0.00000000000E+00 0. -1.
         22   -1    0    0    0    0 -0.00000000000E+00 -0.00000000000E+00 -0.66658078168E+03  0.66658078168E+03  0.00000000000E+00 0.  1.
        -24    2    1    2    0    0  0.10554404400E+03  0.39907928797E+02 -0.54234014427E+03  0.55922421346E+03  0.76594391636E+02 0.  0.
         25    2    1    2    0    0 -0.14615232812E+03 -0.32736905624E+02 -0.17923597327E+02  0.19596526599E+03  0.12509565193E+03 0.  0.
         24    2    1    2    0    0  0.40608284113E+02 -0.71710231725E+01  0.22148700198E+03  0.23919534429E+03  0.80358349741E+02 0.  0.
        -11    1    5    5    0    0  0.10645782231E+02  0.35947310138E+02  0.10237941570E+03  0.10902791636E+03  0.00000000000E+00 0.  1.
         12    1    5    5    0    0  0.29962501882E+02 -0.43118333311E+02  0.11910758627E+03  0.13016742793E+03  0.00000000000E+00 0. -1.
         11    1    3    3    0    0  0.44131959863E+01  0.93450097000E+01 -0.21519577731E+03  0.21544379331E+03  0.00000000000E+00 0. -1.
        -12    1    3    3    0    0  0.10113084802E+03  0.30562919097E+02 -0.32714436696E+03  0.34378042015E+03  0.00000000000E+00 0.  1.
          5    1    4    4  501    0 -0.61694515402E+02 -0.14958355779E+02  0.54071264986E+02  0.83493351444E+02  0.41800000000E+01 0. -1.
         -5    1    4    4    0  501 -0.84457812713E+02 -0.17778549845E+02 -0.71994862312E+02  0.11247191455E+03  0.41800000000E+01 0. -1.
</event>
<event>
11    1  0.8453735E-009  0.1756240E+03  0.7561462E-02  0.1073239E+00
         22   -1    0    0    0    0  0.00000000000E+00  0.00000000000E+00  0.11244538161E+03  0.11244538161E+03  0.00000000000E+00 0. -1.
         22   -1    0    0    0    0 -0.00000000000E+00 -0.00000000000E+00 -0.72966340902E+03  0.72966340902E+03  0.00000000000E+00 0. -1.
         24    2    1    2    0    0  0.10133378695E+02 -0.10536655497E+03 -0.34183718088E+03  0.36433606163E+03  0.68434722891E+02 0.  0.
         25    2    1    2    0    0  0.19383481730E+01  0.18278636060E+03 -0.28482676504E+03  0.36081625347E+03  0.12508985517E+03 0.  0.
        -24    2    1    2    0    0 -0.12071726868E+02 -0.77419805630E+02  0.94459185152E+01  0.11695647553E+03  0.86313607844E+02 0.  0.
        -13    1    3    3    0    0  0.16913064513E+02  0.32334622259E+01 -0.44669663152E+02  0.47873644475E+02  0.00000000000E+00 0.  1.
         14    1    3    3    0    0 -0.67796858179E+01 -0.10860001720E+03 -0.29716751773E+03  0.31646241715E+03  0.00000000000E+00 0. -1.
         13    1    5    5    0    0 -0.43333879478E+02 -0.72942464277E+02  0.95134839558E+01  0.85375257437E+02  0.00000000000E+00 0. -1.
        -14    1    5    5    0    0  0.31262152609E+02 -0.44773413532E+01 -0.67565440659E-01  0.31581218096E+02  0.00000000000E+00 0.  1.
          5    1    4    4  501    0 -0.48288972088E+02  0.60353869812E+02 -0.52894631306E+02  0.93753553787E+02  0.41800000000E+01 0. -1.
         -5    1    4    4    0  501  0.50227320260E+02  0.12243249079E+03 -0.23193213374E+03  0.26706269968E+03  0.41800000000E+01 0. -1.
</event>
<event>
11    1  0.8453735E-009  0.2654830E+03  0.7561462E-02  0.1015960E+00
         22   -1    0    0    0    0  0.00000000000E+00  0.00000000000E+00  0.35893151246E+03  0.35893151246E+03  0.00000000000E+00 0.  1.
         22   -1    0    0    0    0 -0.00000000000E+00 -0.00000000000E+00 -0.63760046072E+03  0.63760046072E+03  0.00000000000E+00 0.  1.
         24    2    1    2    0    0  0.15782650026E+01  0.12814604144E+03 -0.38468855880E+03  0.41305015860E+03  0.78747999275E+02 0.  0.
         25    2    1    2    0    0 -0.19233868094E+03 -0.22660198561E+03 -0.17700614977E+02  0.32296040324E+03  0.12508989655E+03 0.  0.
        -24    2    1    2    0    0  0.19076041593E+03  0.98455944177E+02  0.12372022552E+03  0.26052141135E+03  0.80508399188E+02 0.  0.
        -11    1    3    3    0    0  0.55590838969E+01  0.13815996557E+03 -0.33914572250E+03  0.36624977896E+03  0.00000000000E+00 0.  1.
         12    1    3    3    0    0 -0.39808188943E+01 -0.10013924136E+02 -0.45542836300E+02  0.46800379634E+02  0.00000000000E+00 0. -1.
         11    1    5    5    0    0  0.11008941436E+02  0.35198405913E+02  0.85291257847E+01  0.37853276701E+02  0.00000000000E+00 0. -1.
        -12    1    5    5    0    0  0.17975147450E+03  0.63257538264E+02  0.11519109973E+03  0.22266813465E+03  0.00000000000E+00 0.  1.
          5    1    4    4  501    0 -0.18661046460E+03 -0.15904219702E+03  0.18616798657E+02  0.24593076978E+03  0.41800000000E+01 0. -1.
         -5    1    4    4    0  501 -0.57282163335E+01 -0.67559788598E+02 -0.36317413634E+02  0.77029633459E+02  0.41800000000E+01 0. -1.
</event>
<event>
11    1  0.8453735E-009  0.5871653E+03  0.7561462E-02  0.9217405E-01
         22   -1    0    0    0    0  0.00000000000E+00  0.00000000000E+00  0.36117662756E+03  0.36117662756E+03  0.00000000000E+00 0.  1.
         22   -1    0    0    0    0 -0.00000000000E+00 -0.00000000000E+00 -0.23636900286E+04  0.23636900286E+04  0.00000000000E+00 0. -1.
         24    2    1    2    0    0 -0.67547254575E+02  0.51714026110E+02 -0.13522895329E+04  0.13573192266E+04  0.79947044953E+02 0.  0.
         25    2    1    2    0    0  0.50395693504E+03 -0.33728689033E+03 -0.14252572201E+03  0.63537165478E+03  0.12509404265E+03 0.  0.
        -24    2    1    2    0    0 -0.43640968046E+03  0.28557286422E+03 -0.50769814609E+03  0.73217577474E+03  0.79490172983E+02 0.  0.
        -11    1    3    3    0    0  0.11268137211E+02  0.34081690940E+02 -0.39306794813E+03  0.39470361592E+03  0.00000000000E+00 0.  1.
         12    1    3    3    0    0 -0.78815391786E+02  0.17632335170E+02 -0.95922158477E+03  0.96261561068E+03  0.00000000000E+00 0. -1.
         13    1    5    5    0    0 -0.16092889714E+03  0.84869835735E+02 -0.13115823436E+03  0.22428437617E+03  0.00000000000E+00 0. -1.
        -14    1    5    5    0    0 -0.27548078332E+03  0.20070302848E+03 -0.37653991173E+03  0.50789139858E+03  0.00000000000E+00 0.  1.
          5    1    4    4  501    0  0.27702371012E+03 -0.12521291027E+03 -0.10879313990E+03  0.32291458399E+03  0.41800000000E+01 0.  1.
         -5    1    4    4    0  501  0.22693322492E+03 -0.21207398006E+03 -0.33732582107E+02  0.31245707079E+03  0.41800000000E+01 0.  1.
</event>
<event>
11    1  0.8453735E-009  0.1337577E+03  0.7561462E-02  0.1114736E+00
         22   -1    0    0    0    0  0.00000000000E+00  0.00000000000E+00  0.11922024842E+03  0.11922024842E+03  0.00000000000E+00 0.  1.
         22   -1    0    0    0    0 -0.00000000000E+00 -0.00000000000E+00 -0.90737910075E+03  0.90737910075E+03  0.00000000000E+00 0. -1.
        -24    2    1    2    0    0 -0.21656901946E+02  0.41740891418E+02 -0.68239442616E+03  0.68873149672E+03  0.80483528167E+02 0.  0.
         25    2    1    2    0    0  0.61105472597E+02 -0.22098371707E+02 -0.17444298447E+03  0.22427637696E+03  0.12508925461E+03 0.  0.
         24    2    1    2    0    0 -0.39448570651E+02 -0.19642519711E+02  0.68678558301E+02  0.11359147549E+03  0.79020634176E+02 0.  0.
        -11    1    5    5    0    0 -0.40657527514E+02 -0.61607804912E+01  0.83770149769E+02  0.93318957089E+02  0.00000000000E+00 0.  1.
         12    1    5    5    0    0  0.12089568634E+01 -0.13481739220E+02 -0.15091591468E+02  0.20272518397E+02  0.00000000000E+00 0. -1.
         13    1    3    3    0    0 -0.34781282876E+02  0.13675035755E+02 -0.59192748794E+03  0.59310614161E+03  0.00000000000E+00 0. -1.
        -14    1    3    3    0    0  0.13124380930E+02  0.28065855663E+02 -0.90466938219E+02  0.95625355108E+02  0.00000000000E+00 0.  1.
          5    1    4    4  501    0  0.45201675927E+01  0.38761219092E+02 -0.10818247220E+02  0.40710820349E+02  0.41800000000E+01 0. -1.
         -5    1    4    4    0  501  0.56585305004E+02 -0.60859590798E+02 -0.16362473725E+03  0.18356555662E+03  0.41800000000E+01 0. -1.
</event>
<event>
11    1  0.8453735E-009  0.2675648E+03  0.7561462E-02  0.1014937E+00
         22   -1    0    0    0    0  0.00000000000E+00  0.00000000000E+00  0.16258667931E+03  0.16258667931E+03  0.00000000000E+00 0.  1.
         22   -1    0    0    0    0 -0.00000000000E+00 -0.00000000000E+00 -0.15094483031E+04  0.15094483031E+04  0.00000000000E+00 0. -1.
        -24    2    1    2    0    0  0.40827968169E+02  0.30773689943E+02 -0.87872627689E+03  0.88360072900E+03  0.77307409799E+02 0.  0.
         25    2    1    2    0    0 -0.26831511232E+03 -0.43887453237E+01 -0.45895022296E+03  0.54616388962E+03  0.12508967416E+03 0.  0.
         24    2    1    2    0    0  0.22748714416E+03 -0.26384944619E+02 -0.91851239570E+01  0.24227036381E+03  0.78511124190E+02 0.  0.
        -13    1    5    5    0    0  0.18535348215E+03 -0.41074006853E+02  0.16872502188E+02  0.19059818655E+03  0.00000000000E+00 0.  1.
         14    1    5    5    0    0  0.42133662002E+02  0.14689062234E+02 -0.26057626145E+02  0.51672177265E+02  0.00000000000E+00 0. -1.
         13    1    3    3    0    0  0.50648344528E+02  0.30138235890E+02 -0.86325694878E+03  0.86526650674E+03  0.00000000000E+00 0. -1.
        -14    1    3    3    0    0 -0.98203763590E+01  0.63545405263E+00 -0.15469328114E+02  0.18334222263E+02  0.00000000000E+00 0.  1.
          5    1    4    4  501    0 -0.21233615901E+03  0.23594341375E+02 -0.25451597668E+03  0.33232392654E+03  0.41800000000E+01 0.  1.
         -5    1    4    4    0  501 -0.55978953315E+02 -0.27983086699E+02 -0.20443424628E+03  0.21383996307E+03  0.41800000000E+01 0.  1.
</event>
<event>
11    1  0.8453735E-009  0.1525068E+03  0.7561462E-02  0.1094344E+00
         22   -1    0    0    0    0  0.00000000000E+00  0.00000000000E+00  0.51560885779E+03  0.51560885779E+03  0.00000000000E+00 0.  1.
         22   -1    0    0    0    0 -0.00000000000E+00 -0.00000000000E+00 -0.13286134427E+03  0.13286134427E+03  0.00000000000E+00 0. -1.
        -24    2    1    2    0    0  0.62714564270E+01 -0.87972641606E+02 -0.66984965488E+02  0.13650524534E+03  0.79800874482E+02 0.  0.
         25    2    1    2    0    0 -0.30648451090E+02  0.78179489992E+02  0.21801325826E+03  0.26500634306E+03  0.12508885194E+03 0.  0.
         24    2    1    2    0    0  0.24376994663E+02  0.97931516135E+01  0.23171922075E+03  0.24695861364E+03  0.81268787976E+02 0.  0.
        -11    1    5    5    0    0  0.41558410871E+02  0.31912003045E+02  0.18691693515E+03  0.19412217312E+03  0.00000000000E+00 0.  1.
         12    1    5    5    0    0 -0.17181416208E+02 -0.22118851432E+02  0.44802285606E+02  0.52836440522E+02  0.00000000000E+00 0. -1.
         11    1    3    3    0    0 -0.32752981424E+02 -0.46546448020E+02 -0.13698024490E+02  0.58540289463E+02  0.00000000000E+00 0. -1.
        -12    1    3    3    0    0  0.39024437851E+02 -0.41426193585E+02 -0.53286940998E+02  0.77964955881E+02  0.00000000000E+00 0.  1.
          5    1    4    4  501    0  0.69183577292E+01  0.41574397687E+02  0.20694786110E+03  0.21123726904E+03  0.41800000000E+01 0.  1.
         -5    1    4    4    0  501 -0.37566808819E+02  0.36605092305E+02  0.11065397157E+02  0.53769074027E+02  0.41800000000E+01 0.  1.
</event>
<event>
11    1  0.8453735E-009  0.1355280E+03  0.7561462E-02  0.1112657E+00
         22   -1    0    0    0    0  0.00000000000E+00  0.00000000000E+00  0.13787932155E+03  0.13787932155E+03  0.00000000000E+00 0. -1.
         22   -1    0    0    0    0 -0.00000000000E+00 -0.00000000000E+00 -0.19561351070E+04  0.19561351070E+04  0.00000000000E+00 0.  1.
        -24    2    1    2    0    0  0.49287366674E+02 -0.21085296011E+02 -0.17910810491E+04  0.17937297005E+04  0.81370019653E+02 0.  0.
         25    2    1    2    0    0 -0.27702307280E+02 -0.14133567942E+02 -0.11490620818E+03  0.17268385028E+03  0.12509636244E+03 0.  0.
         24    2    1    2    0    0 -0.21585059394E+02  0.35218863953E+02  0.87731471816E+02  0.12760087771E+03  0.82939072084E+02 0.  0.
        -11    1    5    5    0    0 -0.44701229581E+02  0.21697893942E+01  0.20557666134E+02  0.49249624861E+02  0.00000000000E+00 0.  1.
         12    1    5    5    0    0  0.23116170186E+02  0.33049074559E+02  0.67173805682E+02  0.78351252850E+02  0.00000000000E+00 0. -1.
         13    1    3    3    0    0 -0.21107337917E+02 -0.43197537195E+01 -0.24122437421E+03  0.24218459633E+03  0.00000000000E+00 0. -1.
        -14    1    3    3    0    0  0.70394704591E+02 -0.16765542292E+02 -0.15498566749E+04  0.15515451042E+04  0.00000000000E+00 0.  1.
          5    1    4    4  501    0 -0.61749732519E+02 -0.49615548305E+02 -0.65792974250E+02  0.10305784764E+03  0.41800000000E+01 0.  1.
         -5    1    4    4    0  501  0.34047425240E+02  0.35481980363E+02 -0.49113233928E+02  0.69626002634E+02  0.41800000000E+01 0.  1.
</event>
<event>
11    1  0.8453735E-009  0.1698315E+03  0.7561462E-02  0.1078178E+00
         22   -1    0    0    0    0  0.00000000000E+00  0.00000000000E+00  0.59982546721E+03  0.59982546721E+03  0.00000000000E+00 0. -1.
         22   -1    0    0    0    0 -0.00000000000E+00 -0.00000000000E+00 -0.13180710642E+04  0.13180710642E+04  0.00000000000E+00 0. -1.
        -24    2    1    2    0    0  0.43954952475E+02 -0.36879682819E+02 -0.11949752875E+04  0.12009209002E+04  0.10465620808E+03 0.  0.
         25    2    1    2    0    0  0.55123822081E+01  0.13923995055E+03 -0.31558717386E+02  0.18989923116E+03  0.12509042795E+03 0.  0.
         24    2    1    2    0    0 -0.49467334683E+02 -0.10236026774E+03  0.50828840786E+03  0.52707640011E+03  0.80794705071E+02 0.  0.
        -11    1    5    5    0    0 -0.46937986175E+02 -0.60645726779E+02  0.17353878874E+03  0.18972820012E+03  0.00000000000E+00 0.  1.
         12    1    5    5    0    0 -0.25293485075E+01 -0.41714540956E+02  0.33474961912E+03  0.33734819998E+03  0.00000000000E+00 0. -1.
         13    1    3    3    0    0  0.30728705024E+02 -0.70180701368E+01 -0.11006551540E+04  0.11011063866E+04  0.00000000000E+00 0. -1.
        -14    1    3    3    0    0  0.13226247450E+02 -0.29861612682E+02 -0.94320133508E+02  0.99814513567E+02  0.00000000000E+00 0.  1.
          5    1    4    4  501    0 -0.51045761205E+02  0.92356045812E+02  0.88045800668E+01  0.10597311907E+03  0.41800000000E+01 0. -1.
         -5    1    4    4    0  501  0.56558143413E+02  0.46883904743E+02 -0.40363297453E+02  0.83926112096E+02  0.41800000000E+01 0. -1.
</event>
<event>
11    1  0.8453735E-009  0.1359465E+03  0.7561462E-02  0.1112171E+00
         22   -1    0    0    0    0  0.00000000000E+00  0.00000000000E+00  0.48503249127E+03  0.48503249127E+03  0.00000000000E+00 0.  1.
         22   -1    0    0    0    0 -0.00000000000E+00 -0.00000000000E+00 -0.13150756531E+03  0.13150756531E+03  0.00000000000E+00 0.  1.
        -24    2    1    2    0    0  0.36053645418E+02  0.21505253193E+02 -0.29250481627E+02  0.98466497465E+02  0.84129181529E+02 0.  0.
         25    2    1    2    0    0 -0.42075157848E+02  0.32901858703E+02  0.13978652026E+02  0.13672928519E+03  0.12508654404E+03 0.  0.
         24    2    1    2    0    0  0.60215124303E+01 -0.54407111896E+02  0.36879675556E+03  0.38134427393E+03  0.80100036873E+02 0.  0.
        -13    1    5    5    0    0 -0.25776572399E+02 -0.47393453407E+02  0.30482118177E+03  0.30955859537E+03  0.00000000000E+00 0.  1.
         14    1    5    5    0    0  0.31798084829E+02 -0.70136584890E+01  0.63975573791E+02  0.71785678559E+02  0.00000000000E+00 0. -1.
         13    1    3    3    0    0 -0.21695862543E+02 -0.14048683169E+02 -0.11961794745E+02  0.28480879267E+02  0.00000000000E+00 0. -1.
        -14    1    3    3    0    0  0.57749507961E+02  0.35553936362E+02 -0.17288686882E+02  0.69985618199E+02  0.00000000000E+00 0.  1.
          5    1    4    4  501    0 -0.81736296950E+02  0.46134368143E+02  0.80557633189E+01  0.94295121219E+02  0.41800000000E+01 0. -1.
         -5    1    4    4    0  501  0.39661139102E+02 -0.13232509440E+02  0.59228887073E+01  0.42434163967E+02  0.41800000000E+01 0. -1.
</event>
<event>
11    1  0.8453735E-009  0.1873429E+03  0.7561462E-02  0.1063853E+00
         22   -1    0    0    0    0  0.00000000000E+00  0.00000000000E+00  0.41863468255E+03  0.41863468255E+03  0.00000000000E+00 0. -1.
         22   -1    0    0    0    0 -0.00000000000E+00 -0.00000000000E+00 -0.66726883018E+03  0.66726883018E+03  0.00000000000E+00 0. -1.
         24    2    1    2    0    0 -0.19685402652E+02 -0.89761971155E+02 -0.39545212391E+03  0.41379990295E+03  0.80020315164E+02 0.  0.
         25    2    1    2    0    0  0.11727458087E+03  0.18209395406E+03 -0.18129632530E+03  0.30891315877E+03  0.12508975446E+03 0.  0.
        -24    2    1    2    0    0 -0.97589178219E+02 -0.92331982902E+02  0.32811430158E+03  0.36319045100E+03  0.78736687908E+02 0.  0.
        -11    1    3    3    0    0 -0.22308057943E+02 -0.62385564055E+02 -0.12081507626E+03  0.13778929822E+03  0.00000000000E+00 0.  1.
         12    1    3    3    0    0  0.26226552920E+01 -0.27376407100E+02 -0.27463704765E+03  0.27601060474E+03  0.00000000000E+00 0. -1.
         11    1    5    5    0    0 -0.71587644430E+02 -0.76384322649E+02  0.31114736281E+03  0.32828651658E+03  0.00000000000E+00 0. -1.
        -12    1    5    5    0    0 -0.26001533790E+02 -0.15947660253E+02  0.16966938770E+02  0.34903934423E+02  0.00000000000E+00 0.  1.
          5    1    4    4  501    0  0.30908463982E+02  0.15210917996E+03 -0.13772051283E+03  0.20754986829E+03  0.41800000000E+01 0.  1.
         -5    1    4    4    0  501  0.86366116889E+02  0.29984774093E+02 -0.43575812475E+02  0.10136329048E+03  0.41800000000E+01 0.  1.
</event>
<event>
11    1  0.8453735E-009  0.1557852E+03  0.7561462E-02  0.1091110E+00
         22   -1    0    0    0    0  0.00000000000E+00  0.00000000000E+00  0.21538842131E+03  0.21538842131E+03  0.00000000000E+00 0. -1.
         22   -1    0    0    0    0 -0.00000000000E+00 -0.00000000000E+00 -0.19913697924E+04  0.19913697924E+04  0.00000000000E+00 0. -1.
         24    2    1    2    0    0  0.54304939106E+00  0.89504333522E+02 -0.14468270305E+04  0.14515615344E+04  0.75571895893E+02 0.  0.
         25    2    1    2    0    0 -0.55075198778E+01 -0.11147891478E+03 -0.51986897524E+03  0.54623058939E+03  0.12508486781E+03 0.  0.
        -24    2    1    2    0    0  0.49644704868E+01  0.21974581256E+02  0.19071463468E+03  0.20896608986E+03  0.82384626234E+02 0.  0.
        -11    1    3    3    0    0 -0.10876196737E+02  0.35197073889E+02 -0.19166222784E+03  0.19517052863E+03  0.00000000000E+00 0.  1.
         12    1    3    3    0    0  0.11419246128E+02  0.54307259633E+02 -0.12551648027E+04  0.12563910058E+04  0.00000000000E+00 0. -1.
         13    1    5    5    0    0  0.12827657695E+02  0.52360807212E+02  0.11528695346E+03  0.12726855296E+03  0.00000000000E+00 0. -1.
        -14    1    5    5    0    0 -0.78631872083E+01 -0.30386225956E+02  0.75427681221E+02  0.81697536899E+02  0.00000000000E+00 0.  1.
          5    1    4    4  501    0 -0.36400975439E+01 -0.10897768646E+03 -0.52655928211E+03  0.53774672145E+03  0.41800000000E+01 0. -1.
         -5    1    4    4    0  501 -0.18674223340E+01 -0.25012283192E+01  0.66903068681E+01  0.84838679426E+01  0.41800000000E+01 0. -1.
</event>
<event>
11    1  0.8453735E-009  0.2478944E+03  0.7561462E-02  0.1025027E+00
         22   -1    0    0    0    0  0.00000000000E+00  0.00000000000E+00  0.22177671629E+03  0.22177671629E+03  0.00000000000E+00 0.  1.
         22   -1    0    0    0    0 -0.00000000000E+00 -0.00000000000E+00 -0.15301957859E+04  0.15301957859E+04  0.00000000000E+00 0.  1.
        -24    2    1    2    0    0 -0.29201841559E+02  0.19250500716E+02 -0.94244360111E+03  0.94614273606E+03  0.75913150337E+02 0.  0.
         25    2    1    2    0    0  0.15906925042E+03  0.15045254983E+03 -0.48664737748E+03  0.54809851440E+03  0.12508922935E+03 0.  0.
         24    2    1    2    0    0 -0.12986740886E+03 -0.16970305055E+03  0.12067190898E+03  0.25773125172E+03  0.78733850719E+02 0.  0.
        -13    1    5    5    0    0 -0.57664640347E+02 -0.24123689107E+02  0.52026805886E+02  0.81326205205E+02  0.00000000000E+00 0.  1.
         14    1    5    5    0    0 -0.72202768518E+02 -0.14557936144E+03  0.68645103094E+02  0.17640504652E+03  0.00000000000E+00 0. -1.
         11    1    3    3    0    0 -0.22755493206E+02 -0.26503977133E+02 -0.29698837801E+03  0.29903573357E+03  0.00000000000E+00 0. -1.
        -12    1    3    3    0    0 -0.64463483529E+01  0.45754477849E+02 -0.64545522310E+03  0.64710700249E+03  0.00000000000E+00 0.  1.
          5    1    4    4  501    0  0.24041575455E+02 -0.16269099135E+02 -0.23239423987E+02  0.37419569269E+02  0.41800000000E+01 0.  1.
         -5    1    4    4    0  501  0.13502767497E+03  0.16672164896E+03 -0.46340795349E+03  0.51067894513E+03  0.41800000000E+01 0.  1.
</event>
<event>
11    1  0.8453735E-009  0.1315345E+03  0.7561462E-02  0.1117398E+00
         22   -1    0    0    0    0  0.00000000000E+00  0.00000000000E+00  0.72978077459E+03  0.72978077459E+03  0.00000000000E+00 0. -1.
         22   -1    0    0    0    0 -0.00000000000E+00 -0.00000000000E+00 -0.69497226404E+03  0.69497226404E+03  0.00000000000E+00 0. -1.
         24    2    1    2    0    0  0.20371112479E+02 -0.38946265194E+02 -0.53804009252E+03  0.54553418711E+03  0.78667746558E+02 0.  0.
         25    2    1    2    0    0 -0.42732308149E+02  0.44735224932E+01 -0.12101432364E+03  0.17927058443E+03  0.12508962128E+03 0.  0.
        -24    2    1    2    0    0  0.22361195670E+02  0.34472742701E+02  0.69386292672E+03  0.69994826710E+03  0.82422220782E+02 0.  0.
        -13    1    3    3    0    0 -0.22675374600E+02 -0.58645676237E+00 -0.62075729465E+02  0.66090186362E+02  0.00000000000E+00 0.  1.
         14    1    3    3    0    0  0.43046487079E+02 -0.38359808432E+02 -0.47596436306E+03  0.47944400075E+03  0.00000000000E+00 0. -1.
         11    1    5    5    0    0  0.39898171444E+02  0.28065098482E+01  0.55518753072E+03  0.55662638713E+03  0.00000000000E+00 0. -1.
        -12    1    5    5    0    0 -0.17536975775E+02  0.31666232852E+02  0.13867539600E+03  0.14332187997E+03  0.00000000000E+00 0.  1.
          5    1    4    4  501    0  0.26359255995E+02  0.40430420726E+02 -0.73208722741E+02  0.87786210660E+02  0.41800000000E+01 0.  1.
         -5    1    4    4    0  501 -0.69091564144E+02 -0.35956898233E+02 -0.47805600896E+02  0.91484373766E+02  0.41800000000E+01 0.  1.
</event>
<event>
11    1  0.8453735E-009  0.1658189E+03  0.7561462E-02  0.1081729E+00
         22   -1    0    0    0    0  0.00000000000E+00  0.00000000000E+00  0.62384919099E+03  0.62384919099E+03  0.00000000000E+00 0. -1.
         22   -1    0    0    0    0 -0.00000000000E+00 -0.00000000000E+00 -0.23543389064E+04  0.23543389064E+04  0.00000000000E+00 0.  1.
         24    2    1    2    0    0  0.38783281941E+01 -0.42087641450E+02 -0.22113465584E+04  0.22131942503E+04  0.79929827202E+02 0.  0.
         25    2    1    2    0    0  0.10303182928E+03  0.61279739790E+02 -0.78048010882E+02  0.19002598399E+03  0.12509044023E+03 0.  0.
        -24    2    1    2    0    0 -0.10691015747E+03 -0.19192098340E+02  0.55890485395E+03  0.57496786300E+03  0.80095501210E+02 0.  0.
        -11    1    3    3    0    0  0.89107337104E+01 -0.12219536001E+02 -0.19558648380E+04  0.19559233070E+04  0.00000000000E+00 0.  1.
         12    1    3    3    0    0 -0.50324055163E+01 -0.29868105449E+02 -0.25548172043E+03  0.25727094337E+03  0.00000000000E+00 0. -1.
         13    1    5    5    0    0 -0.33218984204E+02  0.87810643989E+01  0.35008304790E+03  0.35176518934E+03  0.00000000000E+00 0. -1.
        -14    1    5    5    0    0 -0.73691173270E+02 -0.27973162739E+02  0.20882180605E+03  0.22320267367E+03  0.00000000000E+00 0.  1.
          5    1    4    4  501    0  0.11879868053E+02  0.39829203582E+02  0.26609992463E+02  0.49528384002E+02  0.41800000000E+01 0. -1.
         -5    1    4    4    0  501  0.91151961227E+02  0.21450536208E+02 -0.10465800335E+03  0.14049759999E+03  0.41800000000E+01 0. -1.
</event>
<event>
11    1  0.8453735E-009  0.1315170E+03  0.7561462E-02  0.1117419E+00
         22   -1    0    0    0    0  0.00000000000E+00  0.00000000000E+00  0.16469370266E+04  0.16469370266E+04  0.00000000000E+00 0. -1.
         22   -1    0    0    0    0 -0.00000000000E+00 -0.00000000000E+00 -0.12548936869E+03  0.12548936869E+03  0.00000000000E+00 0.  1.
         24    2    1    2    0    0 -0.37151928786E+02  0.99512424483E+01 -0.39276066863E+02  0.10047088600E+03  0.84098135923E+02 0.  0.
         25    2    1    2    0    0  0.37423721926E+02 -0.33399105616E+02  0.28873321117E+02  0.13782872172E+03  0.12508817946E+03 0.  0.
        -24    2    1    2    0    0 -0.27179314040E+00  0.23447863168E+02  0.15318504037E+04  0.15341267876E+04  0.80183944771E+02 0.  0.
        -13    1    3    3    0    0 -0.76019721687E+01  0.45084392289E+02 -0.12814561421E+02  0.47482685195E+02  0.00000000000E+00 0.  1.
         14    1    3    3    0    0 -0.29549956617E+02 -0.35133149840E+02 -0.26461505442E+02  0.52988200800E+02  0.00000000000E+00 0. -1.
         13    1    5    5    0    0  0.24907838235E+02  0.41340549818E+02  0.11568316741E+04  0.11578380559E+04  0.00000000000E+00 0. -1.
        -14    1    5    5    0    0 -0.25179631375E+02 -0.17892686651E+02  0.37501872958E+03  0.37628873171E+03  0.00000000000E+00 0.  1.
          5    1    4    4  501    0 -0.25492047189E+02  0.33581394994E+02  0.14144922639E+02  0.44666607170E+02  0.41800000000E+01 0.  1.
         -5    1    4    4    0  501  0.62915769116E+02 -0.66980500610E+02  0.14728398478E+02  0.93162114549E+02  0.41800000000E+01 0.  1.
</event>
<event>
11    1  0.8453735E-009  0.1508826E+03  0.7561462E-02  0.1095980E+00
         22   -1    0    0    0    0  0.00000000000E+00  0.00000000000E+00  0.10132641739E+03  0.10132641739E+03  0.00000000000E+00 0.  1.
         22   -1    0    0    0    0 -0.00000000000E+00 -0.00000000000E+00 -0.13802382349E+04  0.13802382349E+04  0.00000000000E+00 0.  1.
        -24    2    1    2    0    0  0.49021001785E+02  0.22587601795E+02 -0.69792595946E+03  0.70471443225E+03  0.81292851798E+02 0.  0.
         25    2    1    2    0    0 -0.97929162542E+02 -0.87967900239E+02 -0.62742598897E+03  0.65317734438E+03  0.12509516066E+03 0.  0.
         24    2    1    2    0    0  0.48908160757E+02  0.65380298444E+02  0.46440130892E+02  0.12367287570E+03  0.80446894368E+02 0.  0.
        -11    1    5    5    0    0  0.40804243352E+02  0.66122208194E+02  0.12016491968E+01  0.77708279178E+02  0.00000000000E+00 0.  1.
         12    1    5    5    0    0  0.81039174045E+01 -0.74190974977E+00  0.45238481695E+02  0.45964596522E+02  0.00000000000E+00 0. -1.
         11    1    3    3    0    0  0.59636236872E+02 -0.25242579840E+01 -0.30147997618E+03  0.30733211460E+03  0.00000000000E+00 0. -1.
        -12    1    3    3    0    0 -0.10615235087E+02  0.25111859779E+02 -0.39644598328E+03  0.39738231764E+03  0.00000000000E+00 0.  1.
          5    1    4    4  501    0 -0.21679659841E+02 -0.91100784926E+02 -0.22821683125E+03  0.24671796678E+03  0.41800000000E+01 0.  1.
         -5    1    4    4    0  501 -0.76249502701E+02  0.31328846878E+01 -0.39920915772E+03  0.40645937760E+03  0.41800000000E+01 0.  1.
</event>
<event>
11    1  0.8453735E-009  0.1539596E+03  0.7561462E-02  0.1092900E+00
         22   -1    0    0    0    0  0.00000000000E+00  0.00000000000E+00  0.33517898791E+04  0.33517898791E+04  0.00000000000E+00 0. -1.
         22   -1    0    0    0    0 -0.00000000000E+00 -0.00000000000E+00 -0.25608265418E+03  0.25608265418E+03  0.00000000000E+00 0. -1.
         24    2    1    2    0    0 -0.40150824083E+02  0.30208900300E+02 -0.24106394996E+03  0.25946964086E+03  0.81780194569E+02 0.  0.
         25    2    1    2    0    0  0.10521568632E+03 -0.51273855872E+02  0.22638458948E+04  0.22703183172E+04  0.12509067663E+03 0.  0.
        -24    2    1    2    0    0 -0.65064862242E+02  0.21064955572E+02  0.10729252802E+04  0.10780845752E+04  0.80128184097E+02 0.  0.
        -13    1    3    3    0    0 -0.27257998546E+01  0.95322405638E+01  0.40094699478E+01  0.10694365071E+02  0.00000000000E+00 0.  1.
         14    1    3    3    0    0 -0.37425024228E+02  0.20676659736E+02 -0.24507341991E+03  0.24877527579E+03  0.00000000000E+00 0. -1.
         13    1    5    5    0    0 -0.75130562109E+02  0.39320854970E+01  0.98822552241E+03  0.99108513549E+03  0.00000000000E+00 0. -1.
        -14    1    5    5    0    0  0.10065699867E+02  0.17132870075E+02  0.84699757771E+02  0.86999439753E+02  0.00000000000E+00 0.  1.
          5    1    4    4  501    0  0.24592892458E+02 -0.56183337533E+02  0.16528120340E+04  0.16539547968E+04  0.41800000000E+01 0. -1.
         -5    1    4    4    0  501  0.80622793867E+02  0.49094816606E+01  0.61103386077E+03  0.61636352042E+03  0.41800000000E+01 0. -1.
</event>
<event>
11    1  0.8453735E-009  0.1861592E+03  0.7561462E-02  0.1064767E+00
         22   -1    0    0    0    0  0.00000000000E+00  0.00000000000E+00  0.61316129747E+03  0.61316129747E+03  0.00000000000E+00 0.  1.
         22   -1    0    0    0    0 -0.00000000000E+00 -0.00000000000E+00 -0.14402447690E+04  0.14402447690E+04  0.00000000000E+00 0.  1.
        -24    2    1    2    0    0 -0.59235954444E+02  0.11158229374E+03 -0.92898358726E+03  0.94002233274E+03  0.68351840335E+02 0.  0.
         25    2    1    2    0    0  0.43705723368E+02 -0.19827429412E+03 -0.47109973738E+03  0.52802017128E+03  0.12508977879E+03 0.  0.
         24    2    1    2    0    0  0.15530231076E+02  0.86692000378E+02  0.57299985309E+03  0.58536356247E+03  0.81024549528E+02 0.  0.
        -13    1    5    5    0    0 -0.19842157901E+02  0.55891382890E+02  0.44699360434E+03  0.45091112232E+03  0.00000000000E+00 0.  1.
         14    1    5    5    0    0  0.35372388978E+02  0.30800617487E+02  0.12600624875E+03  0.13445244015E+03  0.00000000000E+00 0. -1.
         11    1    3    3    0    0 -0.76700621516E+01  0.76931887813E+02 -0.40001306960E+03  0.40741600492E+03  0.00000000000E+00 0. -1.
        -12    1    3    3    0    0 -0.51565892292E+02  0.34650405929E+02 -0.52897051766E+03  0.53260632782E+03  0.00000000000E+00 0.  1.
          5    1    4    4  501    0 -0.13725919124E+02 -0.17392283380E+03 -0.31992049038E+03  0.36442303102E+03  0.41800000000E+01 0. -1.
         -5    1    4    4    0  501  0.57431642491E+02 -0.24351460323E+02 -0.15117924700E+03  0.16359714026E+03  0.41800000000E+01 0. -1.
</event>
<event>
11    1  0.8453735E-009  0.1303110E+03  0.7561462E-02  0.1118887E+00
         22   -1    0    0    0    0  0.00000000000E+00  0.00000000000E+00  0.99267480974E+03  0.99267480974E+03  0.00000000000E+00 0.  1.
         22   -1    0    0    0    0 -0.00000000000E+00 -0.00000000000E+00 -0.81129795778E+03  0.81129795778E+03  0.00000000000E+00 0.  1.
         24    2    1    2    0    0 -0.19462544837E+02 -0.35045439525E+02 -0.71411652048E+03  0.71869358085E+03  0.70363945702E+02 0.  0.
         25    2    1    2    0    0  0.51082218679E+02  0.51770532623E+02 -0.36395002742E+02  0.14920393845E+03  0.12509051887E+03 0.  0.
        -24    2    1    2    0    0 -0.31619673843E+02 -0.16725093099E+02  0.93188837519E+03  0.93607524821E+03  0.80878884737E+02 0.  0.
        -13    1    3    3    0    0  0.61190411057E+01 -0.28583218901E+01 -0.52996785510E+03  0.53001088678E+03  0.00000000000E+00 0.  1.
         14    1    3    3    0    0 -0.25581585942E+02 -0.32187117635E+02 -0.18414866538E+03  0.18868269407E+03  0.00000000000E+00 0. -1.
         13    1    5    5    0    0  0.18193689153E+02 -0.27422036593E+02  0.23029854642E+03  0.23263791372E+03  0.00000000000E+00 0. -1.
        -14    1    5    5    0    0 -0.49813362996E+02  0.10696943494E+02  0.70158982876E+03  0.70343733449E+03  0.00000000000E+00 0.  1.
          5    1    4    4  501    0  0.64332208103E+02 -0.22048679931E+02 -0.27842288250E+02  0.73603279147E+02  0.41800000000E+01 0. -1.
         -5    1    4    4    0  501 -0.13249989424E+02  0.73819212554E+02 -0.85527144922E+01  0.75600659303E+02  0.41800000000E+01 0. -1.
</event>
<event>
11    1  0.8453735E-009  0.1350416E+03  0.7561462E-02  0.1113225E+00
         22   -1    0    0    0    0  0.00000000000E+00  0.00000000000E+00  0.11612248305E+03  0.11612248305E+03  0.00000000000E+00 0.  1.
         22   -1    0    0    0    0 -0.00000000000E+00 -0.00000000000E+00 -0.13938470414E+04  0.13938470414E+04  0.00000000000E+00 0. -1.
         24    2    1    2    0    0  0.18952270642E+02 -0.46450284768E+02 -0.10717483709E+04  0.10760259181E+04  0.81672445041E+02 0.  0.
         25    2    1    2    0    0 -0.26020515405E+02  0.49753839485E+02 -0.28803517126E+03  0.31900712255E+03  0.12509505421E+03 0.  0.
        -24    2    1    2    0    0  0.70682447638E+01 -0.33035547175E+01  0.82058983872E+02  0.11493648378E+03  0.80098969480E+02 0.  0.
        -13    1    3    3    0    0  0.37242875300E+02 -0.96182961769E+00 -0.24409771386E+03  0.24692438273E+03  0.00000000000E+00 0.  1.
         14    1    3    3    0    0 -0.18290604659E+02 -0.45488455150E+02 -0.82765065706E+03  0.82910153534E+03  0.00000000000E+00 0. -1.
         11    1    5    5    0    0 -0.90949360766E+01 -0.59718806774E+01 -0.13864602127E+02  0.17624086166E+02  0.00000000000E+00 0. -1.
        -12    1    5    5    0    0  0.16163180840E+02  0.26683259599E+01  0.95923585999E+02  0.97312397614E+02  0.00000000000E+00 0.  1.
          5    1    4    4  501    0 -0.37752407381E+02  0.81608627957E+02 -0.13542996300E+03  0.16261598845E+03  0.41800000000E+01 0.  1.
         -5    1    4    4    0  501  0.11731891976E+02 -0.31854788471E+02 -0.15260520826E+03  0.15639113410E+03  0.41800000000E+01 0.  1.
</event>
<event>
11    1  0.8453735E-009  0.1349578E+03  0.7561462E-02  0.1113323E+00
         22   -1    0    0    0    0  0.00000000000E+00  0.00000000000E+00  0.62828173306E+03  0.62828173306E+03  0.00000000000E+00 0.  1.
         22   -1    0    0    0    0 -0.00000000000E+00 -0.00000000000E+00 -0.10735781635E+04  0.10735781635E+04  0.00000000000E+00 0.  1.
        -24    2    1    2    0    0  0.43184272269E+02 -0.21366593559E+02 -0.91569251567E+03  0.92045833367E+03  0.80183215674E+02 0.  0.
         25    2    1    2    0    0 -0.85206038370E+02  0.35152149530E+02 -0.11223554762E+03  0.19167615898E+03  0.12508872523E+03 0.  0.
         24    2    1    2    0    0  0.42021766101E+02 -0.13785555971E+02  0.58263163280E+03  0.58972540396E+03  0.79753132594E+02 0.  0.
        -11    1    5    5    0    0  0.26250999321E+02  0.15434524494E+02  0.49622436090E+03  0.49715787821E+03  0.00000000000E+00 0.  1.
         12    1    5    5    0    0  0.15770766780E+02 -0.29220080465E+02  0.86407271897E+02  0.92567525753E+02  0.00000000000E+00 0. -1.
         11    1    3    3    0    0  0.21949721345E+02 -0.44675613227E+02 -0.31225111035E+03  0.31619370108E+03  0.00000000000E+00 0. -1.
        -12    1    3    3    0    0  0.21234550924E+02  0.23309019667E+02 -0.60344140532E+03  0.60426463259E+03  0.00000000000E+00 0.  1.
          5    1    4    4  501    0  0.58159713001E+01 -0.26247558750E+02  0.84280438627E+01  0.28482699764E+02  0.41800000000E+01 0.  1.
         -5    1    4    4    0  501 -0.91022009670E+02  0.61399708281E+02 -0.12066359148E+03  0.16319345922E+03  0.41800000000E+01 0.  1.
</event>
<event>
11    1  0.8453735E-009  0.1998262E+03  0.7561462E-02  0.1054647E+00
         22   -1    0    0    0    0  0.00000000000E+00  0.00000000000E+00  0.26534904504E+03  0.26534904504E+03  0.00000000000E+00 0.  1.
         22   -1    0    0    0    0 -0.00000000000E+00 -0.00000000000E+00 -0.17397278026E+04  0.17397278026E+04  0.00000000000E+00 0.  1.
        -24    2    1    2    0    0  0.11667963690E+03  0.22927104182E+02 -0.15739900336E+04  0.15805532507E+04  0.81019520694E+02 0.  0.
         25    2    1    2    0    0 -0.14244923913E+03 -0.15847052466E+03  0.25727182275E+02  0.24842399445E+03  0.12509156725E+03 0.  0.
         24    2    1    2    0    0  0.25769602225E+02  0.13554342048E+03  0.73884093720E+02  0.17609960251E+03  0.80722484266E+02 0.  0.
        -13    1    5    5    0    0 -0.33142060244E+01  0.12799476083E+03  0.69648350342E+02  0.14575505297E+03  0.00000000000E+00 0.  1.
         14    1    5    5    0    0  0.29083808250E+02  0.75486596492E+01  0.42357433772E+01  0.30344549540E+02  0.00000000000E+00 0. -1.
         13    1    3    3    0    0  0.14740376966E+01 -0.16544659718E+02 -0.86080464198E+02  0.87668380097E+02  0.00000000000E+00 0. -1.
        -14    1    3    3    0    0  0.11520559920E+03  0.39471763900E+02 -0.14879095694E+04  0.14928848706E+04  0.00000000000E+00 0.  1.
          5    1    4    4  501    0 -0.76653995302E+01 -0.24974205180E+02  0.50551526419E+02  0.57056099565E+02  0.41800000000E+01 0. -1.
         -5    1    4    4    0  501 -0.13478383960E+03 -0.13349631948E+03 -0.24824344144E+02  0.19136789489E+03  0.41800000000E+01 0. -1.
</event>
<event>
11    1  0.8453735E-009  0.1697970E+03  0.7561462E-02  0.1078208E+00
         22   -1    0    0    0    0  0.00000000000E+00  0.00000000000E+00  0.17942217694E+04  0.17942217694E+04  0.00000000000E+00 0. -1.
         22   -1    0    0    0    0 -0.00000000000E+00 -0.00000000000E+00 -0.97395062661E+02  0.97395062661E+02  0.00000000000E+00 0. -1.
         24    2    1    2    0    0  0.45323744939E+02 -0.85956790806E+01 -0.17151000031E+02  0.95203367615E+02  0.81494765776E+02 0.  0.
         25    2    1    2    0    0 -0.89695891132E+00 -0.99331433208E+02  0.12947836217E+03  0.20561659487E+03  0.12508397043E+03 0.  0.
        -24    2    1    2    0    0 -0.44426786028E+02  0.10792711229E+03  0.15844993446E+04  0.15907968696E+04  0.79840505525E+02 0.  0.
        -13    1    3    3    0    0 -0.43643932319E+01  0.15866075093E+02  0.21931852860E+02  0.27418724205E+02  0.00000000000E+00 0.  1.
         14    1    3    3    0    0  0.49688138171E+02 -0.24461754174E+02 -0.39082852890E+02  0.67784643410E+02  0.00000000000E+00 0. -1.
         11    1    5    5    0    0 -0.59722105727E+02  0.93165475312E+02  0.14814730052E+04  0.14856004849E+04  0.00000000000E+00 0. -1.
        -12    1    5    5    0    0  0.15295319699E+02  0.14761636976E+02  0.10302633943E+03  0.10519638467E+03  0.00000000000E+00 0.  1.
          5    1    4    4  501    0 -0.59520586443E+02 -0.70286285505E+02  0.91292357060E+02  0.12974832946E+03  0.41800000000E+01 0.  1.
         -5    1    4    4    0  501  0.58623627531E+02 -0.29045147703E+02  0.38186005107E+02  0.75868265409E+02  0.41800000000E+01 0.  1.
</event>
<event>
11    1  0.8453735E-009  0.1384711E+03  0.7561462E-02  0.1109278E+00
         22   -1    0    0    0    0  0.00000000000E+00  0.00000000000E+00  0.24382362292E+04  0.24382362292E+04  0.00000000000E+00 0.  1.
         22   -1    0    0    0    0 -0.00000000000E+00 -0.00000000000E+00 -0.10794998342E+03  0.10794998342E+03  0.00000000000E+00 0.  1.
        -24    2    1    2    0    0  0.39195197920E+01  0.64728059775E+02 -0.55108939124E+02  0.11744984271E+03  0.80946809836E+02 0.  0.
         25    2    1    2    0    0  0.92651875904E+01 -0.25320437324E+02  0.17643333032E+03  0.21795207981E+03  0.12508965104E+03 0.  0.
         24    2    1    2    0    0 -0.13184707382E+02 -0.39407622451E+02  0.22089618546E+04  0.22107842901E+04  0.79548131155E+02 0.  0.
        -11    1    5    5    0    0 -0.33001147270E+01 -0.60643506602E+02  0.18843243097E+04  0.18853027952E+04  0.00000000000E+00 0.  1.
         12    1    5    5    0    0 -0.98845926554E+01  0.21235884151E+02  0.32463754493E+03  0.32548149491E+03  0.00000000000E+00 0. -1.
         13    1    3    3    0    0 -0.22724979721E+02  0.14329650326E+02 -0.54133408791E+02  0.60433347823E+02  0.00000000000E+00 0. -1.
        -14    1    3    3    0    0  0.26644499513E+02  0.50398409449E+02 -0.97553033242E+00  0.57016494882E+02  0.00000000000E+00 0.  1.
          5    1    4    4  501    0  0.27150346846E+02 -0.14052059649E+01 -0.98706121987E+01  0.29223574779E+02  0.41800000000E+01 0.  1.
         -5    1    4    4    0  501 -0.17885159256E+02 -0.23915231359E+02  0.18630394252E+03  0.18872850503E+03  0.41800000000E+01 0.  1.
</event>
<event>
11    1  0.8453735E-009  0.1435737E+03  0.7561462E-02  0.1103632E+00
         22   -1    0    0    0    0  0.00000000000E+00  0.00000000000E+00  0.46412800334E+03  0.46412800334E+03  0.00000000000E+00 0. -1.
         22   -1    0    0    0    0 -0.00000000000E+00 -0.00000000000E+00 -0.12786067287E+03  0.12786067287E+03  0.00000000000E+00 0. -1.
        -24    2    1    2    0    0 -0.55657992721E+02 -0.41972862054E+02 -0.56723095959E+02  0.11970824353E+03  0.79076043467E+02 0.  0.
         25    2    1    2    0    0  0.68325247242E+01 -0.40799870414E+02  0.16262378872E+03  0.20930175480E+03  0.12509762223E+03 0.  0.
         24    2    1    2    0    0  0.48825467996E+02  0.82772732469E+02  0.23036663771E+03  0.26297867788E+03  0.82787352186E+02 0.  0.
        -13    1    5    5    0    0  0.16278585773E+02 -0.47676515156E+01  0.30642433520E+01  0.17236949935E+02  0.00000000000E+00 0.  1.
         14    1    5    5    0    0  0.32546882224E+02  0.87540383984E+02  0.22730239436E+03  0.24574172794E+03  0.00000000000E+00 0. -1.
         11    1    3    3    0    0 -0.25059834001E+02 -0.45255032134E+02 -0.69287603509E+02  0.86468405870E+02  0.00000000000E+00 0. -1.
        -12    1    3    3    0    0 -0.30598158720E+02  0.32821700798E+01  0.12564507550E+02  0.33239837657E+02  0.00000000000E+00 0.  1.
          5    1    4    4  501    0 -0.46529056452E+02 -0.58942201787E+02  0.95182772394E+02  0.12131104157E+03  0.41800000000E+01 0.  1.
         -5    1    4    4    0  501  0.53361581177E+02  0.18142331373E+02  0.67441016322E+02  0.87990713237E+02  0.41800000000E+01 0.  1.
</event>
<event>
11    1  0.8453735E-009  0.1646333E+03  0.7561462E-02  0.1082799E+00
         22   -1    0    0    0    0  0.00000000000E+00  0.00000000000E+00  0.66120303498E+03  0.66120303498E+03  0.00000000000E+00 0.  1.
         22   -1    0    0    0    0 -0.00000000000E+00 -0.00000000000E+00 -0.37117571087E+03  0.37117571087E+03  0.00000000000E+00 0. -1.
        -24    2    1    2    0    0  0.14309262114E+02 -0.83574565705E+02 -0.23038000085E+03  0.25843160716E+03  0.80761920309E+02 0.  0.
         25    2    1    2    0    0 -0.35558605517E+02  0.18315571022E+03 -0.12917909531E+02  0.22499512862E+03  0.12508200071E+03 0.  0.
         24    2    1    2    0    0  0.21249343403E+02 -0.99581144519E+02  0.53332523450E+03  0.54895201007E+03  0.80898483730E+02 0.  0.
        -11    1    5    5    0    0 -0.20805006202E+02 -0.81592044263E+02  0.33493286920E+03  0.34535508805E+03  0.00000000000E+00 0.  1.
         12    1    5    5    0    0  0.42054349605E+02 -0.17989100256E+02  0.19839236530E+03  0.20359692202E+03  0.00000000000E+00 0. -1.
         13    1    3    3    0    0  0.22014292404E+02 -0.49810827582E+02 -0.21267455073E+03  0.21953635722E+03  0.00000000000E+00 0. -1.
        -14    1    3    3    0    0 -0.77050302895E+01 -0.33763738123E+02 -0.17705450124E+02  0.38895249940E+02  0.00000000000E+00 0.  1.
          5    1    4    4  501    0 -0.35447616509E+01  0.73919813169E+02  0.55069632333E+02  0.92340895162E+02  0.41800000000E+01 0. -1.
         -5    1    4    4    0  501 -0.32013843866E+02  0.10923589706E+03 -0.67987541865E+02  0.13265423345E+03  0.41800000000E+01 0. -1.
</event>
<event>
11    1  0.8453735E-009  0.1837508E+03  0.7561462E-02  0.1066649E+00
         22   -1    0    0    0    0  0.00000000000E+00  0.00000000000E+00  0.10311435994E+04  0.10311435994E+04  0.00000000000E+00 0.  1.
         22   -1    0    0    0    0 -0.00000000000E+00 -0.00000000000E+00 -0.87321009606E+03  0.87321009606E+03  0.00000000000E+00 0. -1.
         24    2    1    2    0    0 -0.10411797407E+03 -0.84548743528E+02 -0.77347486678E+03  0.78912057199E+03  0.80367064459E+02 0.  0.
         25    2    1    2    0    0  0.89851550451E+02  0.11221796053E+03  0.11176415888E+02  0.19088909698E+03  0.12509022061E+03 0.  0.
        -24    2    1    2    0    0  0.14266423614E+02 -0.27669217000E+02  0.92023195423E+03  0.92434402649E+03  0.81338264757E+02 0.  0.
        -11    1    3    3    0    0 -0.45755135395E+02  0.77600163902E+01 -0.26720787417E+03  0.27120803507E+03  0.00000000000E+00 0.  1.
         12    1    3    3    0    0 -0.58362838670E+02 -0.92308759918E+02 -0.50626699261E+03  0.51791253692E+03  0.00000000000E+00 0. -1.
         11    1    5    5    0    0  0.17968698775E+02  0.24035290089E+02  0.50467945424E+03  0.50557088607E+03  0.00000000000E+00 0. -1.
        -12    1    5    5    0    0 -0.37022751608E+01 -0.51704507089E+02  0.41555249999E+03  0.41877314043E+03  0.00000000000E+00 0.  1.
          5    1    4    4  501    0  0.96818138712E+02  0.98407751354E+02 -0.34606830589E+02  0.14238308409E+03  0.41800000000E+01 0. -1.
         -5    1    4    4    0  501 -0.69665882609E+01  0.13810209174E+02  0.45783246477E+02  0.48506012899E+02  0.41800000000E+01 0. -1.
</event>
<event>
11    1  0.8453735E-009  0.1668742E+03  0.7561462E-02  0.1080784E+00
         22   -1    0    0    0    0  0.00000000000E+00  0.00000000000E+00  0.14449023394E+04  0.14449023394E+04  0.00000000000E+00 0. -1.
         22   -1    0    0    0    0 -0.00000000000E+00 -0.00000000000E+00 -0.11826911488E+03  0.11826911488E+03  0.00000000000E+00 0. -1.
         24    2    1    2    0    0  0.24615035826E+02 -0.10784855815E+03 -0.48687498369E+02  0.14716256624E+03  0.83959138398E+02 0.  0.
         25    2    1    2    0    0 -0.77975246826E+02  0.92483186673E+02  0.40416077481E+03  0.44003084694E+03  0.12509170808E+03 0.  0.
        -24    2    1    2    0    0  0.53360211000E+02  0.15365371480E+02  0.97115994807E+03  0.97597804109E+03  0.79360476304E+02 0.  0.
        -11    1    3    3    0    0 -0.13199137064E+02  0.44189206396E+01  0.77606114566E+01  0.15936472917E+02  0.00000000000E+00 0.  1.
         12    1    3    3    0    0  0.37814172890E+02 -0.11226747879E+03 -0.56448109826E+02  0.13122609332E+03  0.00000000000E+00 0. -1.
         11    1    5    5    0    0  0.45493987262E+02  0.11720554187E+02  0.96276327526E+03  0.96390881231E+03  0.00000000000E+00 0. -1.
        -12    1    5    5    0    0  0.78662237386E+01  0.36448172931E+01  0.83966728096E+01  0.12069228777E+02  0.00000000000E+00 0.  1.
          5    1    4    4  501    0  0.23908193373E+02  0.49448878541E+02  0.20402461609E+03  0.21132985986E+03  0.41800000000E+01 0. -1.
         -5    1    4    4    0  501 -0.10188344020E+03  0.43034308132E+02  0.20013615872E+03  0.22870098708E+03  0.41800000000E+01 0. -1.
</event>
<event>
11    1  0.8453735E-009  0.3192079E+03  0.7561462E-02  0.9923745E-01
         22   -1    0    0    0    0  0.00000000000E+00  0.00000000000E+00  0.59078572168E+03  0.59078572168E+03  0.00000000000E+00 0. -1.
         22   -1    0    0    0    0 -0.00000000000E+00 -0.00000000000E+00 -0.58926696199E+03  0.58926696199E+03  0.00000000000E+00 0. -1.
         24    2    1    2    0    0 -0.74855031878E+02 -0.81902885038E+02 -0.53696243971E+03  0.55406890621E+03  0.79701523196E+02 0.  0.
         25    2    1    2    0    0  0.94582148671E+01  0.10898372119E+02  0.77831502380E+02  0.14803025155E+03  0.12508789017E+03 0.  0.
        -24    2    1    2    0    0  0.65396817011E+02  0.71004512919E+02  0.46064969701E+03  0.47795352591E+03  0.83204837859E+02 0.  0.
        -11    1    3    3    0    0 -0.13748795865E+02 -0.73660760903E+02 -0.29958263628E+03  0.30881174370E+03  0.00000000000E+00 0.  1.
         12    1    3    3    0    0 -0.61106236013E+02 -0.82421241352E+01 -0.23737980342E+03  0.24525716251E+03  0.00000000000E+00 0. -1.
         11    1    5    5    0    0  0.39731424530E+02  0.80973265884E+01  0.31064035160E+03  0.31327556693E+03  0.00000000000E+00 0. -1.
        -12    1    5    5    0    0  0.25665392481E+02  0.62907186330E+02  0.15000934542E+03  0.16467795898E+03  0.00000000000E+00 0.  1.
          5    1    4    4  501    0  0.11550338025E+01  0.11601595735E+02  0.11196428264E+03  0.11264725524E+03  0.41800000000E+01 0.  1.
         -5    1    4    4    0  501  0.83031810646E+01 -0.70322361541E+00 -0.34132780259E+02  0.35382996304E+02  0.41800000000E+01 0.  1.
</event>
<event>
11    1  0.8453735E-009  0.4205201E+03  0.7561462E-02  0.9591080E-01
         22   -1    0    0    0    0  0.00000000000E+00  0.00000000000E+00  0.16961045532E+04  0.16961045532E+04  0.00000000000E+00 0. -1.
         22   -1    0    0    0    0 -0.00000000000E+00 -0.00000000000E+00 -0.65043186471E+03  0.65043186471E+03  0.00000000000E+00 0. -1.
         24    2    1    2    0    0  0.47065894503E+02  0.37730977954E+02 -0.44597948244E+03  0.46118601712E+03  0.10077707329E+03 0.  0.
         25    2    1    2    0    0 -0.33281962355E+03  0.24261050453E+03  0.10954410768E+03  0.44415696695E+03  0.12508693389E+03 0.  0.
        -24    2    1    2    0    0  0.28575372905E+03 -0.28034148249E+03  0.13821080633E+04  0.14411934339E+04  0.81051062810E+02 0.  0.
        -11    1    3    3    0    0 -0.25038484234E+02  0.37265631541E+02 -0.15192004090E+03  0.15841512495E+03  0.00000000000E+00 0.  1.
         12    1    3    3    0    0  0.72104378737E+02  0.46534641285E+00 -0.29405944155E+03  0.30277089217E+03  0.00000000000E+00 0. -1.
         13    1    5    5    0    0  0.19470437623E+03 -0.23680433524E+03  0.99607479443E+03  0.10421857240E+04  0.00000000000E+00 0. -1.
        -14    1    5    5    0    0  0.91049352817E+02 -0.43537147243E+02  0.38603326883E+03  0.39900770981E+03  0.00000000000E+00 0.  1.
          5    1    4    4  501    0 -0.41778236828E+02  0.42397510267E+02  0.64743175370E+02  0.88046130558E+02  0.41800000000E+01 0.  1.
         -5    1    4    4    0  501 -0.29104138672E+03  0.20021299426E+03  0.44800932309E+02  0.35611083639E+03  0.41800000000E+01 0.  1.
</event>
<event>
11    1  0.8453735E-009  0.6708877E+03  0.7561462E-02  0.9076341E-01
         22   -1    0    0    0    0  0.00000000000E+00  0.00000000000E+00  0.85637792168E+02  0.85637792168E+02  0.00000000000E+00 0. -1.
         22   -1    0    0    0    0 -0.00000000000E+00 -0.00000000000E+00 -0.13139358642E+04  0.13139358642E+04  0.00000000000E+00 0. -1.
         24    2    1    2    0    0  0.27947522622E+02  0.10861718066E+03 -0.17571789226E+03  0.22093260572E+03  0.73182529703E+02 0.  0.
         25    2    1    2    0    0 -0.10078584972E+02 -0.29396460072E+03 -0.73976846207E+03  0.80586741411E+03  0.12509255491E+03 0.  0.
        -24    2    1    2    0    0 -0.17868937650E+02  0.18534742006E+03 -0.31281171774E+03  0.37277363658E+03  0.80224985630E+02 0.  0.
        -13    1    3    3    0    0  0.82980815632E+01  0.44024713375E+02 -0.16068966569E+02  0.47594592465E+02  0.00000000000E+00 0.  1.
         14    1    3    3    0    0  0.19649441059E+02  0.64592467288E+02 -0.15964892569E+03  0.17333801326E+03  0.00000000000E+00 0. -1.
         13    1    5    5    0    0 -0.37896767245E+02  0.13621229517E+03 -0.17421656956E+03  0.22436882010E+03  0.00000000000E+00 0. -1.
        -14    1    5    5    0    0  0.20027829595E+02  0.49135124888E+02 -0.13859514818E+03  0.14840481648E+03  0.00000000000E+00 0.  1.
          5    1    4    4  501    0  0.52678339630E+02 -0.17264077450E+03 -0.46938194927E+03  0.50290827313E+03  0.41800000000E+01 0.  1.
         -5    1    4    4    0  501 -0.62756924603E+02 -0.12132382622E+03 -0.27038651281E+03  0.30295914098E+03  0.41800000000E+01 0.  1.
</event>
<event>
11    1  0.8453735E-009  0.1366908E+03  0.7561462E-02  0.1111311E+00
         22   -1    0    0    0    0  0.00000000000E+00  0.00000000000E+00  0.34143484679E+03  0.34143484679E+03  0.00000000000E+00 0.  1.
         22   -1    0    0    0    0 -0.00000000000E+00 -0.00000000000E+00 -0.44343303313E+03  0.44343303313E+03  0.00000000000E+00 0. -1.
        -24    2    1    2    0    0  0.15939914901E+02  0.23661961845E+02 -0.30013198324E+03  0.31195014495E+03  0.80123131803E+02 0.  0.
         25    2    1    2    0    0 -0.58197968018E+02 -0.56471501049E+02 -0.86445294504E+02  0.17233498155E+03  0.12510205039E+03 0.  0.
         24    2    1    2    0    0  0.42258053117E+02  0.32809539203E+02  0.28457909140E+03  0.30058275341E+03  0.80638225859E+02 0.  0.
        -11    1    5    5    0    0  0.46056067057E+02  0.30661723939E+02  0.28907223662E+03  0.29431965719E+03  0.00000000000E+00 0.  1.
         12    1    5    5    0    0 -0.37980139405E+01  0.21478152648E+01 -0.44931452159E+01  0.62630962179E+01  0.00000000000E+00 0. -1.
         11    1    3    3    0    0  0.21569408376E+02  0.51580658620E+02 -0.17970524856E+03  0.18820143485E+03  0.00000000000E+00 0. -1.
        -12    1    3    3    0    0 -0.56294934748E+01 -0.27918696775E+02 -0.12042673468E+03  0.12374871010E+03  0.00000000000E+00 0.  1.
          5    1    4    4  501    0  0.10157807012E+02 -0.14788782695E+02  0.27446446017E+02  0.33055543194E+02  0.41800000000E+01 0.  1.
         -5    1    4    4    0  501 -0.68355775030E+02 -0.41682718354E+02 -0.11389174052E+03  0.13927943835E+03  0.41800000000E+01 0.  1.
</event>
