<event>
11    1  0.2450992E-009  0.1400329E+03  0.7561462E-02  0.1107522E+00
         22   -1    0    0    0    0  0.00000000000E+00  0.00000000000E+00  0.24477517830E+04  0.24477517830E+04  0.00000000000E+00 0.  1.
         22   -1    0    0    0    0 -0.00000000000E+00 -0.00000000000E+00 -0.57792465708E+03  0.57792465708E+03  0.00000000000E+00 0. -1.
         25    2    1    2    0    0  0.43104391558E+02  0.26936682652E+02 -0.52553836995E+03  0.54260599054E+03  0.12508840568E+03 0.  0.
        -24    2    1    2    0    0  0.14928407920E+02 -0.24915451762E+01 -0.20380231588E+01  0.83499254531E+02  0.82090844852E+02 0.  0.
         24    2    1    2    0    0 -0.58032799479E+02 -0.24445137476E+02  0.23974035190E+04  0.23995711950E+04  0.80205462851E+02 0.  0.
        -13    1    5    5    0    0  0.12176165739E+01 -0.40473799940E+02  0.90148793581E+03  0.90239686917E+03  0.00000000000E+00 0.  1.
         14    1    5    5    0    0 -0.59250416052E+02  0.16028662464E+02  0.14959155832E+04  0.14971743258E+04  0.00000000000E+00 0. -1.
         11    1    4    4    0    0  0.46520989161E+02 -0.15738750761E+02  0.86596478962E+00  0.49118841630E+02  0.00000000000E+00 0. -1.
        -12    1    4    4    0    0 -0.31592581241E+02  0.13247205584E+02 -0.29039879484E+01  0.34380412901E+02  0.00000000000E+00 0.  1.
          5    1    3    3  501    0  0.51888491839E+02 -0.37826373879E+02 -0.18618852730E+03  0.19699464522E+03  0.41800000000E+01 0. -1.
         -5    1    3    3    0  501 -0.87841002806E+01  0.64763056531E+02 -0.33934984265E+03  0.34561134532E+03  0.41800000000E+01 0. -1.
</event>
<event>
11    1  0.2450992E-009  0.3357194E+03  0.7561462E-02  0.9861134E-01
         22   -1    0    0    0    0  0.00000000000E+00  0.00000000000E+00  0.10337290218E+03  0.10337290218E+03  0.00000000000E+00 0.  1.
         22   -1    0    0    0    0 -0.00000000000E+00 -0.00000000000E+00 -0.27257504162E+03  0.27257504162E+03  0.00000000000E+00 0.  1.
         25    2    1    2    0    0 -0.48771049852E+02 -0.49143120422E+02 -0.11551430571E+03  0.18381360197E+03  0.12510085474E+03 0.  0.
        -24    2    1    2    0    0  0.44081693096E+02  0.35895487705E+02 -0.19888249123E+02  0.10163382185E+03  0.81867023805E+02 0.  0.
         24    2    1    2    0    0  0.46893567557E+01  0.13247632717E+02 -0.33799584610E+02  0.90500519984E+02  0.82767399127E+02 0.  0.
        -11    1    5    5    0    0 -0.23723754570E+01 -0.32973817745E+02 -0.43948431559E+00  0.33061971636E+02  0.00000000000E+00 0.  1.
         12    1    5    5    0    0  0.70617322128E+01  0.46221450462E+02 -0.33360100294E+02  0.57438548348E+02  0.00000000000E+00 0. -1.
         13    1    4    4    0    0  0.34872502522E+02  0.86310747621E+01  0.28146836510E+02  0.45638046510E+02  0.00000000000E+00 0. -1.
        -14    1    4    4    0    0  0.92091905736E+01  0.27264412943E+02 -0.48035085632E+02  0.55995775340E+02  0.00000000000E+00 0.  1.
          5    1    3    3  501    0 -0.83899581407E+02 -0.52469386520E+02 -0.10972130386E+03  0.14781208747E+03  0.41800000000E+01 0. -1.
         -5    1    3    3    0  501  0.35128531556E+02  0.33262660972E+01 -0.57930018489E+01  0.36001514493E+02  0.41800000000E+01 0. -1.
</event>
<event>
11    1  0.2450992E-009  0.1603240E+03  0.7561462E-02  0.1086773E+00
         22   -1    0    0    0    0  0.00000000000E+00  0.00000000000E+00  0.21261818890E+03  0.21261818890E+03  0.00000000000E+00 0.  1.
         22   -1    0    0    0    0 -0.00000000000E+00 -0.00000000000E+00 -0.20015191902E+03  0.20015191902E+03  0.00000000000E+00 0. -1.
         25    2    1    2    0    0  0.34959575720E+02 -0.85243277772E+02 -0.49905451406E+02  0.16317464543E+03  0.12508725950E+03 0.  0.
        -24    2    1    2    0    0 -0.90367455151E+02  0.78836126994E+02  0.29008388719E+02  0.14669433579E+03  0.79349415034E+02 0.  0.
         24    2    1    2    0    0  0.55407879430E+02  0.64071507780E+01  0.33363332574E+02  0.10290112671E+03  0.79777473217E+02 0.  0.
        -13    1    5    5    0    0  0.39255587750E+02 -0.33406272076E+02  0.30380097085E+02  0.59832520276E+02  0.00000000000E+00 0.  1.
         14    1    5    5    0    0  0.16152291680E+02  0.39813422854E+02  0.29832354883E+01  0.43068606430E+02  0.00000000000E+00 0. -1.
         13    1    4    4    0    0 -0.86874192133E+02  0.27893553630E+02  0.83929391893E+01  0.91627599669E+02  0.00000000000E+00 0. -1.
        -14    1    4    4    0    0 -0.34932630176E+01  0.50942573364E+02  0.20615449530E+02  0.55066736119E+02  0.00000000000E+00 0.  1.
          5    1    3    3  501    0  0.49494591007E+02 -0.91936656892E+02 -0.78120318616E+02  0.13046961332E+03  0.41800000000E+01 0. -1.
         -5    1    3    3    0  501 -0.14535015287E+02  0.66933791195E+01  0.28214867210E+02  0.32705032107E+02  0.41800000000E+01 0. -1.
</event>
<event>
11    1  0.2450992E-009  0.7293080E+03  0.7561462E-02  0.8990196E-01
         22   -1    0    0    0    0  0.00000000000E+00  0.00000000000E+00  0.14705911737E+03  0.14705911737E+03  0.00000000000E+00 0.  1.
         22   -1    0    0    0    0 -0.00000000000E+00 -0.00000000000E+00 -0.90421150234E+03  0.90421150234E+03  0.00000000000E+00 0. -1.
         25    2    1    2    0    0 -0.55227887519E+02  0.13522738855E+03 -0.80155430261E+03  0.82429923484E+03  0.12507342781E+03 0.  0.
         24    2    1    2    0    0  0.41527908394E+02 -0.10308427783E+03  0.38567638098E+02  0.14273514372E+03  0.80838870805E+02 0.  0.
        -24    2    1    2    0    0  0.13699979125E+02 -0.32143110720E+02  0.58342795458E+01  0.84236241151E+02  0.76425365623E+02 0.  0.
        -13    1    4    4    0    0  0.48312565065E+02 -0.91853607681E+02  0.58300355457E+02  0.11903831582E+03  0.00000000000E+00 0.  1.
         14    1    4    4    0    0 -0.67846566716E+01 -0.11230670152E+02 -0.19732717358E+02  0.23696827900E+02  0.00000000000E+00 0. -1.
         13    1    5    5    0    0  0.18235944005E+02  0.22132327987E+02 -0.37935817204E+01  0.28927164710E+02  0.00000000000E+00 0. -1.
        -14    1    5    5    0    0 -0.45359648798E+01 -0.54275438707E+02  0.96278612662E+01  0.55309076441E+02  0.00000000000E+00 0.  1.
          5    1    3    3  501    0 -0.79953755209E+02  0.11416082903E+03 -0.75254432694E+03  0.76535333949E+03  0.41800000000E+01 0. -1.
         -5    1    3    3    0  501  0.24725867690E+02  0.21066559528E+02 -0.49009975674E+02  0.58945895353E+02  0.41800000000E+01 0. -1.
</event>
<event>
11    1  0.2450992E-009  0.1394282E+03  0.7561462E-02  0.1108199E+00
         22   -1    0    0    0    0  0.00000000000E+00  0.00000000000E+00  0.31073535480E+03  0.31073535480E+03  0.00000000000E+00 0. -1.
         22   -1    0    0    0    0 -0.00000000000E+00 -0.00000000000E+00 -0.21773036687E+03  0.21773036687E+03  0.00000000000E+00 0. -1.
         25    2    1    2    0    0  0.58206036967E+02 -0.85864569697E+01 -0.69091476028E+02  0.15453931124E+03  0.12508835548E+03 0.  0.
        -24    2    1    2    0    0 -0.57467757338E+02  0.29475112229E+02 -0.71502074937E+02  0.12542600478E+03  0.80298260138E+02 0.  0.
         24    2    1    2    0    0 -0.73827962893E+00 -0.20888655259E+02  0.23359853890E+03  0.24850040564E+03  0.82141909228E+02 0.  0.
        -11    1    5    5    0    0 -0.30037282052E+02  0.17416240715E+02  0.12382167807E+03  0.12859771271E+03  0.00000000000E+00 0.  1.
         12    1    5    5    0    0  0.29299002423E+02 -0.38304895974E+02  0.10977686083E+03  0.11990269293E+03  0.00000000000E+00 0. -1.
         11    1    4    4    0    0 -0.36675779808E+02  0.30817270962E+02 -0.87096392419E+02  0.99401200126E+02  0.00000000000E+00 0. -1.
        -12    1    4    4    0    0 -0.20791977530E+02 -0.13421587334E+01  0.15594317483E+02  0.26024804657E+02  0.00000000000E+00 0.  1.
          5    1    3    3  501    0 -0.35015808554E+02 -0.25250937675E+02 -0.19420563032E+02  0.47522072457E+02  0.41800000000E+01 0. -1.
         -5    1    3    3    0  501  0.93221845520E+02  0.16664480705E+02 -0.49670912997E+02  0.10701723879E+03  0.41800000000E+01 0. -1.
</event>
<event>
11    1  0.2450992E-009  0.3118979E+03  0.7561462E-02  0.9952778E-01
         22   -1    0    0    0    0  0.00000000000E+00  0.00000000000E+00  0.26833471611E+04  0.26833471611E+04  0.00000000000E+00 0.  1.
         22   -1    0    0    0    0 -0.00000000000E+00 -0.00000000000E+00 -0.15478853919E+03  0.15478853919E+03  0.00000000000E+00 0. -1.
         25    2    1    2    0    0  0.28825474888E+03 -0.58534151199E+02  0.11908002977E+03  0.34109230982E+03  0.12508742231E+03 0.  0.
        -24    2    1    2    0    0 -0.13359256134E+03 -0.22473169172E+03  0.63222353453E+03  0.68893352667E+03  0.81064794155E+02 0.  0.
         24    2    1    2    0    0 -0.15466218754E+03  0.28326584292E+03  0.17772550576E+04  0.18081098637E+04  0.80410258805E+02 0.  0.
        -13    1    5    5    0    0 -0.15790901113E+03  0.27090380426E+03  0.17516186400E+04  0.17794639606E+04  0.00000000000E+00 0.  1.
         14    1    5    5    0    0  0.32468235935E+01  0.12362038666E+02  0.25636417543E+02  0.28645903160E+02  0.00000000000E+00 0. -1.
         11    1    4    4    0    0 -0.24284460251E+02 -0.52627398941E+02  0.69984111358E+02  0.90868883407E+02  0.00000000000E+00 0. -1.
        -12    1    4    4    0    0 -0.10930810109E+03 -0.17210429278E+03  0.56223942317E+03  0.59806464326E+03  0.00000000000E+00 0.  1.
          5    1    3    3  501    0  0.22072303536E+03 -0.63009746293E+02  0.33665054613E+02  0.23203382247E+03  0.41800000000E+01 0.  1.
         -5    1    3    3    0  501  0.67531713513E+02  0.44755950937E+01  0.85414975158E+02  0.10905848735E+03  0.41800000000E+01 0.  1.
</event>
<event>
11    1  0.2450992E-009  0.1334251E+03  0.7561462E-02  0.1115131E+00
         22   -1    0    0    0    0  0.00000000000E+00  0.00000000000E+00  0.12185674412E+03  0.12185674412E+03  0.00000000000E+00 0.  1.
         22   -1    0    0    0    0 -0.00000000000E+00 -0.00000000000E+00 -0.21107555569E+03  0.21107555569E+03  0.00000000000E+00 0. -1.
         25    2    1    2    0    0 -0.14793472472E+02  0.34356002699E+02 -0.54962731568E+02  0.14165695524E+03  0.12508640757E+03 0.  0.
         24    2    1    2    0    0  0.66122954103E+02 -0.76007444106E+01 -0.30063581599E+02  0.10841964279E+03  0.80131040355E+02 0.  0.
        -24    2    1    2    0    0 -0.51329481631E+02 -0.26755258288E+02 -0.41924984044E+01  0.82855701778E+02  0.59134852192E+02 0.  0.
        -11    1    4    4    0    0  0.72220098035E+02 -0.55929575848E+01  0.51562236729E+01  0.72619628044E+02  0.00000000000E+00 0.  1.
         12    1    4    4    0    0 -0.60971439326E+01 -0.20077868259E+01 -0.35219805272E+02  0.35800014741E+02  0.00000000000E+00 0. -1.
         11    1    5    5    0    0 -0.33181730838E+02 -0.25408211417E+02 -0.29880160756E+02  0.51375368375E+02  0.00000000000E+00 0. -1.
        -12    1    5    5    0    0 -0.18147750792E+02 -0.13470468716E+01  0.25687662352E+02  0.31480333404E+02  0.00000000000E+00 0.  1.
          5    1    3    3  501    0 -0.31587654829E+02 -0.52862152709E+01  0.31413343348E+02  0.45055460821E+02  0.41800000000E+01 0.  1.
         -5    1    3    3    0  501  0.16794182357E+02  0.39642217970E+02 -0.86376074916E+02  0.96601494421E+02  0.41800000000E+01 0.  1.
</event>
<event>
11    1  0.2450992E-009  0.6604103E+03  0.7561462E-02  0.9092769E-01
         22   -1    0    0    0    0  0.00000000000E+00  0.00000000000E+00  0.46916614078E+03  0.46916614078E+03  0.00000000000E+00 0. -1.
         22   -1    0    0    0    0 -0.00000000000E+00 -0.00000000000E+00 -0.14621088062E+04  0.14621088062E+04  0.00000000000E+00 0. -1.
         25    2    1    2    0    0  0.63333514967E+03  0.28669173256E+02 -0.88518601228E+03  0.10959639210E+04  0.12508919447E+03 0.  0.
         24    2    1    2    0    0 -0.68254270606E+03 -0.11075635790E+03 -0.12979139777E+03  0.70813772222E+03  0.80509069568E+02 0.  0.
        -24    2    1    2    0    0  0.49207556388E+02  0.82087184644E+02  0.22034744633E+02  0.12717330372E+03  0.80794985734E+02 0.  0.
        -13    1    4    4    0    0 -0.51261452897E+03 -0.86915785218E+02 -0.61899635224E+02  0.52360249605E+03  0.00000000000E+00 0.  1.
         14    1    4    4    0    0 -0.16992817709E+03 -0.23840572682E+02 -0.67891762541E+02  0.18453522616E+03  0.00000000000E+00 0. -1.
         11    1    5    5    0    0  0.28266914547E+02 -0.56038914173E+01  0.23221261949E+02  0.37008770090E+02  0.00000000000E+00 0. -1.
        -12    1    5    5    0    0  0.20940641841E+02  0.87691076061E+02 -0.11865173164E+01  0.90164533630E+02  0.00000000000E+00 0.  1.
          5    1    3    3  501    0  0.63757972555E+03  0.27927661590E+02 -0.88317152540E+03  0.10896317159E+04  0.41800000000E+01 0.  1.
         -5    1    3    3    0  501 -0.42445758788E+01  0.74151166526E+00 -0.20144868796E+01  0.63322050922E+01  0.41800000000E+01 0.  1.
</event>
<event>
11    1  0.2450992E-009  0.6074372E+03  0.7561462E-02  0.9181063E-01
         22   -1    0    0    0    0  0.00000000000E+00  0.00000000000E+00  0.12032185406E+04  0.12032185406E+04  0.00000000000E+00 0.  1.
         22   -1    0    0    0    0 -0.00000000000E+00 -0.00000000000E+00 -0.59941691313E+03  0.59941691313E+03  0.00000000000E+00 0.  1.
         25    2    1    2    0    0  0.18896731906E+02 -0.21576652439E+03 -0.20469437463E+03  0.32319890476E+03  0.12508183525E+03 0.  0.
        -24    2    1    2    0    0  0.58807888359E+03  0.17685346717E+03  0.47798178881E+03  0.78251769598E+03  0.82179266893E+02 0.  0.
         24    2    1    2    0    0 -0.60697561550E+03  0.38913057222E+02  0.33051421329E+03  0.69691885300E+03  0.80762730535E+02 0.  0.
        -13    1    5    5    0    0 -0.51809423354E+03  0.10641177162E+02  0.25860393902E+03  0.57914667120E+03  0.00000000000E+00 0.  1.
         14    1    5    5    0    0 -0.88881381960E+02  0.28271880060E+02  0.71910274270E+02  0.11777218180E+03  0.00000000000E+00 0. -1.
         11    1    4    4    0    0  0.34651563022E+02 -0.63673808213E+01  0.40333029520E+02  0.53553969308E+02  0.00000000000E+00 0. -1.
        -12    1    4    4    0    0  0.55342732057E+03  0.18322084799E+03  0.43764875929E+03  0.72896372667E+03  0.00000000000E+00 0.  1.
          5    1    3    3  501    0  0.50709868901E+02 -0.46531771897E+02 -0.10052753905E+03  0.12190141553E+03  0.41800000000E+01 0. -1.
         -5    1    3    3    0  501 -0.31813136995E+02 -0.16923475249E+03 -0.10416683558E+03  0.20129748923E+03  0.41800000000E+01 0. -1.
</event>
<event>
11    1  0.2450992E-009  0.1206707E+04  0.7561462E-02  0.8503967E-01
         22   -1    0    0    0    0  0.00000000000E+00  0.00000000000E+00  0.39182004070E+03  0.39182004070E+03  0.00000000000E+00 0.  1.
         22   -1    0    0    0    0 -0.00000000000E+00 -0.00000000000E+00 -0.92908865224E+03  0.92908865224E+03  0.00000000000E+00 0.  1.
         25    2    1    2    0    0 -0.13578250226E+03  0.39032684494E+03 -0.68535099941E+03  0.81002795958E+03  0.12508944437E+03 0.  0.
        -24    2    1    2    0    0  0.32785727889E+02 -0.27757188449E+03  0.17049748847E+03  0.33827712297E+03  0.85093850155E+02 0.  0.
         24    2    1    2    0    0  0.10299677437E+03 -0.11275496045E+03 -0.22415100607E+02  0.17260361040E+03  0.77249938187E+02 0.  0.
        -13    1    5    5    0    0  0.74467826838E+02 -0.11845095972E+03 -0.28730700663E+02  0.14283396043E+03  0.00000000000E+00 0.  1.
         14    1    5    5    0    0  0.28528947533E+02  0.56959992665E+01  0.63156000568E+01  0.29769649965E+02  0.00000000000E+00 0. -1.
         13    1    4    4    0    0 -0.89153607424E+01 -0.68452315147E+02  0.82567010749E+02  0.10762209053E+03  0.00000000000E+00 0. -1.
        -14    1    4    4    0    0  0.41701088631E+02 -0.20911956934E+03  0.87930477726E+02  0.23065503244E+03  0.00000000000E+00 0.  1.
          5    1    3    3  501    0 -0.14909320836E+03  0.33169439047E+03 -0.52447538251E+03  0.63823338421E+03  0.41800000000E+01 0. -1.
         -5    1    3    3    0  501  0.13310706097E+02  0.58632454470E+02 -0.16087561690E+03  0.17179457537E+03  0.41800000000E+01 0. -1.
</event>
<event>
11    1  0.2450992E-009  0.4243525E+03  0.7561462E-02  0.9580517E-01
         22   -1    0    0    0    0  0.00000000000E+00  0.00000000000E+00  0.93996642480E+03  0.93996642480E+03  0.00000000000E+00 0.  1.
         22   -1    0    0    0    0 -0.00000000000E+00 -0.00000000000E+00 -0.94971217508E+03  0.94971217508E+03  0.00000000000E+00 0. -1.
         25    2    1    2    0    0 -0.10069332864E+03  0.10049837894E+03 -0.24738934545E+03  0.31158949664E+03  0.12508979003E+03 0.  0.
         24    2    1    2    0    0  0.42603844336E+03  0.15724378367E+03 -0.52948108627E+03  0.70212773898E+03  0.79992364689E+02 0.  0.
        -24    2    1    2    0    0 -0.32534511472E+03 -0.25774216261E+03  0.76712468144E+03  0.87596136426E+03  0.80917048589E+02 0.  0.
        -11    1    4    4    0    0  0.92218626671E+02  0.50871693254E+02 -0.80155619176E+02  0.13235228583E+03  0.00000000000E+00 0.  1.
         12    1    4    4    0    0  0.33381981668E+03  0.10637209042E+03 -0.44932546709E+03  0.56977545315E+03  0.00000000000E+00 0. -1.
         11    1    5    5    0    0 -0.34149219695E+01 -0.12998687970E+01  0.42092242318E+02  0.42250540994E+02  0.00000000000E+00 0. -1.
        -12    1    5    5    0    0 -0.32193019275E+03 -0.25644229382E+03  0.72503243912E+03  0.83371082327E+03  0.00000000000E+00 0.  1.
          5    1    3    3  501    0 -0.38564254180E+02 -0.85001148923E+01 -0.68956270248E+01  0.40304785394E+02  0.41800000000E+01 0. -1.
         -5    1    3    3    0  501 -0.62129074458E+02  0.10899849383E+03 -0.24049371843E+03  0.27128471124E+03  0.41800000000E+01 0. -1.
</event>
<event>
11    1  0.2450992E-009  0.6635890E+03  0.7561462E-02  0.9087752E-01
         22   -1    0    0    0    0  0.00000000000E+00  0.00000000000E+00  0.22649165825E+04  0.22649165825E+04  0.00000000000E+00 0. -1.
         22   -1    0    0    0    0 -0.00000000000E+00 -0.00000000000E+00 -0.77113885549E+03  0.77113885549E+03  0.00000000000E+00 0.  1.
         25    2    1    2    0    0 -0.48668594146E+03  0.46916885465E+03 -0.49105739124E+03  0.84484788119E+03  0.12509181061E+03 0.  0.
        -24    2    1    2    0    0  0.39871894163E+03 -0.37272460089E+03  0.67210028659E+03  0.86954028807E+03  0.80505247050E+02 0.  0.
         24    2    1    2    0    0  0.87966999821E+02 -0.96444253757E+02  0.13127348316E+04  0.13216672687E+04  0.80572599714E+02 0.  0.
        -13    1    5    5    0    0  0.15508883741E+02 -0.32335684069E+02  0.73606395826E+03  0.73693708862E+03  0.00000000000E+00 0.  1.
         14    1    5    5    0    0  0.72458116080E+02 -0.64108569689E+02  0.57667087336E+03  0.58473018006E+03  0.00000000000E+00 0. -1.
         11    1    4    4    0    0  0.23281168944E+03 -0.26893655259E+03  0.44725389022E+03  0.57145795504E+03  0.00000000000E+00 0. -1.
        -12    1    4    4    0    0  0.16590725220E+03 -0.10378804830E+03  0.22484639637E+03  0.29808233303E+03  0.00000000000E+00 0.  1.
          5    1    3    3  501    0 -0.18065609567E+03  0.23522344680E+03 -0.16064116998E+03  0.33732736729E+03  0.41800000000E+01 0. -1.
         -5    1    3    3    0  501 -0.30602984578E+03  0.23394540785E+03 -0.33041622126E+03  0.50752051391E+03  0.41800000000E+01 0. -1.
</event>
<event>
11    1  0.2450992E-009  0.1721842E+03  0.7561462E-02  0.1076146E+00
         22   -1    0    0    0    0  0.00000000000E+00  0.00000000000E+00  0.12849258076E+03  0.12849258076E+03  0.00000000000E+00 0.  1.
         22   -1    0    0    0    0 -0.00000000000E+00 -0.00000000000E+00 -0.18722081127E+04  0.18722081127E+04  0.00000000000E+00 0.  1.
         25    2    1    2    0    0  0.81318788906E+02 -0.73248813025E+02 -0.11015067657E+04  0.11139763190E+04  0.12509176730E+03 0.  0.
        -24    2    1    2    0    0 -0.71120466945E+02  0.11133406684E+03 -0.73951577410E+03  0.75544458358E+03  0.79746745701E+02 0.  0.
         24    2    1    2    0    0 -0.10198321961E+02 -0.38085253818E+02  0.97307007852E+02  0.13127979096E+03  0.78811404045E+02 0.  0.
        -11    1    5    5    0    0 -0.10128942615E+01  0.83129076306E+01  0.80725718787E+02  0.81158930880E+02  0.00000000000E+00 0.  1.
         12    1    5    5    0    0 -0.91854276996E+01 -0.46398161448E+02  0.16581289065E+02  0.50120860077E+02  0.00000000000E+00 0. -1.
         13    1    4    4    0    0 -0.29387378958E+02  0.15232615832E+02 -0.66073358472E+02  0.73900875008E+02  0.00000000000E+00 0. -1.
        -14    1    4    4    0    0 -0.41733087987E+02  0.96101451010E+02 -0.67344241563E+03  0.68154370857E+03  0.00000000000E+00 0.  1.
          5    1    3    3  501    0 -0.11729010562E+02 -0.69765256901E+02 -0.56589360469E+03  0.57031377766E+03  0.41800000000E+01 0.  1.
         -5    1    3    3    0  501  0.93047799468E+02 -0.34835561234E+01 -0.53561316102E+03  0.54366254130E+03  0.41800000000E+01 0.  1.
</event>
<event>
11    1  0.2450992E-009  0.1813250E+03  0.7561462E-02  0.1068576E+00
         22   -1    0    0    0    0  0.00000000000E+00  0.00000000000E+00  0.26883342208E+03  0.26883342208E+03  0.00000000000E+00 0.  1.
         22   -1    0    0    0    0 -0.00000000000E+00 -0.00000000000E+00 -0.50635354674E+03  0.50635354674E+03  0.00000000000E+00 0.  1.
         25    2    1    2    0    0  0.69831413326E+02 -0.90772032567E+02 -0.21813211271E+03  0.27630708580E+03  0.12509196170E+03 0.  0.
         24    2    1    2    0    0 -0.90863947854E+02  0.11630156834E+03 -0.22149985250E+03  0.27821393765E+03  0.80984557960E+02 0.  0.
        -24    2    1    2    0    0  0.21032534529E+02 -0.25529535775E+02  0.20211184055E+03  0.22066594538E+03  0.82159227448E+02 0.  0.
        -13    1    4    4    0    0 -0.93003064125E+02  0.11370832504E+03 -0.16225591317E+03  0.21887470041E+03  0.00000000000E+00 0.  1.
         14    1    4    4    0    0  0.21391162707E+01  0.25932432984E+01 -0.59243939328E+02  0.59339237241E+02  0.00000000000E+00 0. -1.
         11    1    5    5    0    0  0.41055341777E+02 -0.76874274474E+01  0.45461360453E+02  0.61736317702E+02  0.00000000000E+00 0. -1.
        -12    1    5    5    0    0 -0.20022807248E+02 -0.17842108328E+02  0.15665048009E+03  0.15892962768E+03  0.00000000000E+00 0.  1.
          5    1    3    3  501    0 -0.33788669639E+02 -0.42222282320E+02 -0.57559444367E+02  0.79088288363E+02  0.41800000000E+01 0.  1.
         -5    1    3    3    0  501  0.10362008296E+03 -0.48549750247E+02 -0.16057266834E+03  0.19721879743E+03  0.41800000000E+01 0.  1.
</event>
<event>
11    1  0.2450992E-009  0.1788883E+03  0.7561462E-02  0.1070546E+00
         22   -1    0    0    0    0  0.00000000000E+00  0.00000000000E+00  0.12081567959E+03  0.12081567959E+03  0.00000000000E+00 0.  1.
         22   -1    0    0    0    0 -0.00000000000E+00 -0.00000000000E+00 -0.73085047857E+03  0.73085047857E+03  0.00000000000E+00 0.  1.
         25    2    1    2    0    0  0.87082952397E+02  0.95265836224E+02 -0.55712279736E+03  0.58539963662E+03  0.12509157874E+03 0.  0.
        -24    2    1    2    0    0 -0.38235525473E+02 -0.12842863544E+03 -0.59238102107E+02  0.16566182240E+03  0.77322809376E+02 0.  0.
         24    2    1    2    0    0 -0.48847426924E+02  0.33162799221E+02  0.63261004851E+01  0.10060469914E+03  0.81212336334E+02 0.  0.
        -13    1    5    5    0    0 -0.33032914513E+02  0.58109714158E+01 -0.35071607427E+02  0.48527914416E+02  0.00000000000E+00 0.  1.
         14    1    5    5    0    0 -0.15814512411E+02  0.27351827805E+02  0.41397707912E+02  0.52076784726E+02  0.00000000000E+00 0. -1.
         13    1    4    4    0    0 -0.30914025820E+02 -0.13861248942E+03 -0.56365526053E+02  0.15279454094E+03  0.00000000000E+00 0. -1.
        -14    1    4    4    0    0 -0.73214996529E+01  0.10183853973E+02 -0.28725760533E+01  0.12867281457E+02  0.00000000000E+00 0.  1.
          5    1    3    3  501    0  0.56790676734E+02  0.66354672571E+02 -0.13283891180E+03  0.15903387194E+03  0.41800000000E+01 0.  1.
         -5    1    3    3    0  501  0.30292275663E+02  0.28911163653E+02 -0.42428388556E+03  0.42636576469E+03  0.41800000000E+01 0.  1.
</event>
<event>
11    1  0.2450992E-009  0.2336171E+03  0.7561462E-02  0.1033008E+00
         22   -1    0    0    0    0  0.00000000000E+00  0.00000000000E+00  0.62079042970E+03  0.62079042970E+03  0.00000000000E+00 0.  1.
         22   -1    0    0    0    0 -0.00000000000E+00 -0.00000000000E+00 -0.21229021831E+03  0.21229021831E+03  0.00000000000E+00 0.  1.
         25    2    1    2    0    0 -0.26889739612E+02  0.18047042423E+03 -0.46025030779E+02  0.22595417027E+03  0.12507738200E+03 0.  0.
        -24    2    1    2    0    0 -0.10490317448E+03 -0.23433777843E+02  0.42436554549E+02  0.13977220218E+03  0.78623084278E+02 0.  0.
         24    2    1    2    0    0  0.13179291409E+03 -0.15703664638E+03  0.41208868763E+03  0.46735427556E+03  0.81074360313E+02 0.  0.
        -13    1    5    5    0    0  0.11664097300E+03 -0.15287717736E+03  0.40811382407E+03  0.45114680686E+03  0.00000000000E+00 0.  1.
         14    1    5    5    0    0  0.15151941091E+02 -0.41594690189E+01  0.39748635572E+01  0.16207468700E+02  0.00000000000E+00 0. -1.
         13    1    4    4    0    0  0.63179875499E+01 -0.22226694456E+01 -0.12303559660E+02  0.14008383435E+02  0.00000000000E+00 0. -1.
        -14    1    4    4    0    0 -0.11122116203E+03 -0.21211108397E+02  0.54740114210E+02  0.12576381875E+03  0.00000000000E+00 0.  1.
          5    1    3    3  501    0 -0.16437014034E+02 -0.15895952578E+02 -0.12616759587E+02  0.26448284655E+02  0.41800000000E+01 0.  1.
         -5    1    3    3    0  501 -0.10452725578E+02  0.19636637680E+03 -0.33408271192E+02  0.19950588562E+03  0.41800000000E+01 0.  1.
</event>
<event>
11    1  0.2450992E-009  0.1927399E+03  0.7561462E-02  0.1059780E+00
         22   -1    0    0    0    0  0.00000000000E+00  0.00000000000E+00  0.39423561405E+03  0.39423561405E+03  0.00000000000E+00 0.  1.
         22   -1    0    0    0    0 -0.00000000000E+00 -0.00000000000E+00 -0.21067798689E+03  0.21067798689E+03  0.00000000000E+00 0.  1.
         25    2    1    2    0    0  0.98331876453E+02  0.98638292059E+02 -0.78389422890E+02  0.20295604098E+03  0.12509029683E+03 0.  0.
        -24    2    1    2    0    0 -0.80802288749E+02 -0.14960508683E+03  0.10156867726E+03  0.21404033224E+03  0.81156489283E+02 0.  0.
         24    2    1    2    0    0 -0.17529587704E+02  0.50966794771E+02  0.16037837279E+03  0.18791722772E+03  0.81772620127E+02 0.  0.
        -13    1    5    5    0    0 -0.45353334102E+02  0.43644865058E+02  0.75502979367E+02  0.98298011442E+02  0.00000000000E+00 0.  1.
         14    1    5    5    0    0  0.27823746399E+02  0.73219297128E+01  0.84875393421E+02  0.89619216280E+02  0.00000000000E+00 0. -1.
         11    1    4    4    0    0 -0.60084792158E+02 -0.47634511518E+02  0.73622163494E+02  0.10629888002E+03  0.00000000000E+00 0. -1.
        -12    1    4    4    0    0 -0.20717496591E+02 -0.10197057531E+03  0.27946513762E+02  0.10774145222E+03  0.00000000000E+00 0.  1.
          5    1    3    3  501    0  0.84893175728E+02 -0.85956454965E-01 -0.19714151391E+02  0.87252385863E+02  0.41800000000E+01 0.  1.
         -5    1    3    3    0  501  0.13438700725E+02  0.98724248514E+02 -0.58675271499E+02  0.11570365512E+03  0.41800000000E+01 0.  1.
</event>
<event>
11    1  0.2450992E-009  0.2035645E+03  0.7561462E-02  0.1052031E+00
         22   -1    0    0    0    0  0.00000000000E+00  0.00000000000E+00  0.10125634999E+04  0.10125634999E+04  0.00000000000E+00 0.  1.
         22   -1    0    0    0    0 -0.00000000000E+00 -0.00000000000E+00 -0.57639052174E+03  0.57639052174E+03  0.00000000000E+00 0. -1.
         25    2    1    2    0    0  0.62706719515E+02 -0.16423296257E+03 -0.48818907181E+03  0.53374228355E+03  0.12509059417E+03 0.  0.
         24    2    1    2    0    0 -0.28007927170E+02  0.10879708669E+03  0.10714507520E+02  0.13565844048E+03  0.75280553571E+02 0.  0.
        -24    2    1    2    0    0 -0.34698792345E+02  0.55435875885E+02  0.91364754241E+03  0.91955329757E+03  0.80927701029E+02 0.  0.
        -13    1    4    4    0    0 -0.47833602419E+02  0.36239448889E+02  0.53856992360E+01  0.60252443373E+02  0.00000000000E+00 0.  1.
         14    1    4    4    0    0  0.19825675249E+02  0.72557637800E+02  0.53288082838E+01  0.75405997108E+02  0.00000000000E+00 0. -1.
         11    1    5    5    0    0 -0.54635147014E+02  0.33698774784E+02  0.78256582362E+03  0.78519416389E+03  0.00000000000E+00 0. -1.
        -12    1    5    5    0    0  0.19936354669E+02  0.21737101100E+02  0.13108171878E+03  0.13435913367E+03  0.00000000000E+00 0.  1.
          5    1    3    3  501    0 -0.13579649034E+02  0.56011917722E-01 -0.14470243183E+03  0.14539833624E+03  0.41800000000E+01 0. -1.
         -5    1    3    3    0  501  0.76286368548E+02 -0.16428897449E+03 -0.34348663998E+03  0.38834394731E+03  0.41800000000E+01 0. -1.
</event>
<event>
11    1  0.2450992E-009  0.2906409E+03  0.7561462E-02  0.1004232E+00
         22   -1    0    0    0    0  0.00000000000E+00  0.00000000000E+00  0.35818473566E+03  0.35818473566E+03  0.00000000000E+00 0.  1.
         22   -1    0    0    0    0 -0.00000000000E+00 -0.00000000000E+00 -0.49627564243E+03  0.49627564243E+03  0.00000000000E+00 0.  1.
         25    2    1    2    0    0 -0.28334478869E+03  0.48862933138E+02 -0.30387499528E+03  0.43664526870E+03  0.12508885805E+03 0.  0.
        -24    2    1    2    0    0  0.21175273459E+03 -0.47415095254E+02  0.11058590541E+02  0.22902758265E+03  0.72414979992E+02 0.  0.
         24    2    1    2    0    0  0.71592054108E+02 -0.14478378836E+01  0.15472549798E+03  0.18878752673E+03  0.81075471511E+02 0.  0.
        -13    1    5    5    0    0  0.24210953467E+02 -0.38483455252E+02  0.46869161807E+02  0.65298276580E+02  0.00000000000E+00 0.  1.
         14    1    5    5    0    0  0.47381100641E+02  0.37035617368E+02  0.10785633617E+03  0.12348925015E+03  0.00000000000E+00 0. -1.
         13    1    4    4    0    0  0.14267924971E+03 -0.65904156808E+02  0.46106049091E+01  0.15723226087E+03  0.00000000000E+00 0. -1.
        -14    1    4    4    0    0  0.69073484877E+02  0.18489061554E+02  0.64479856315E+01  0.71795321776E+02  0.00000000000E+00 0.  1.
          5    1    3    3  501    0 -0.16477892145E+02 -0.15773301126E+02  0.46019459852E+01  0.23642509698E+02  0.41800000000E+01 0. -1.
         -5    1    3    3    0  501 -0.26686689655E+03  0.64636234263E+02 -0.30847694127E+03  0.41300275901E+03  0.41800000000E+01 0. -1.
</event>
<event>
11    1  0.2450992E-009  0.2704098E+03  0.7561462E-02  0.1013555E+00
         22   -1    0    0    0    0  0.00000000000E+00  0.00000000000E+00  0.29374288556E+03  0.29374288556E+03  0.00000000000E+00 0.  1.
         22   -1    0    0    0    0 -0.00000000000E+00 -0.00000000000E+00 -0.35106296696E+03  0.35106296696E+03  0.00000000000E+00 0.  1.
         25    2    1    2    0    0 -0.97568115627E+02 -0.20934936339E+03 -0.59294062837E+02  0.26927780774E+03  0.12509220084E+03 0.  0.
         24    2    1    2    0    0  0.10978716850E+03  0.22286744718E+03 -0.63293608292E+02  0.27113143212E+03  0.88221603105E+02 0.  0.
        -24    2    1    2    0    0 -0.12219052874E+02 -0.13518083784E+02  0.65267589727E+02  0.10439661266E+03  0.79415052882E+02 0.  0.
        -11    1    4    4    0    0  0.10071206898E+03  0.22407466938E+03 -0.43726256581E+02  0.24952828259E+03  0.00000000000E+00 0.  1.
         12    1    4    4    0    0  0.90750995207E+01 -0.12072222045E+01 -0.19567351710E+02  0.21603149532E+02  0.00000000000E+00 0. -1.
         11    1    5    5    0    0  0.31970961862E+02 -0.17315467972E+02  0.36573262836E+02  0.51571032450E+02  0.00000000000E+00 0. -1.
        -12    1    5    5    0    0 -0.44190014736E+02  0.37973841884E+01  0.28694326891E+02  0.52825580213E+02  0.00000000000E+00 0.  1.
          5    1    3    3  501    0 -0.92004089239E+01 -0.14802173019E+03 -0.63883307393E+02  0.16153522679E+03  0.41800000000E+01 0. -1.
         -5    1    3    3    0  501 -0.88367706704E+02 -0.61327633205E+02  0.45892445564E+01  0.10774258094E+03  0.41800000000E+01 0. -1.
</event>
<event>
11    1  0.2450992E-009  0.2568943E+03  0.7561462E-02  0.1020289E+00
         22   -1    0    0    0    0  0.00000000000E+00  0.00000000000E+00  0.36841645844E+03  0.36841645844E+03  0.00000000000E+00 0. -1.
         22   -1    0    0    0    0 -0.00000000000E+00 -0.00000000000E+00 -0.35420976895E+03  0.35420976895E+03  0.00000000000E+00 0.  1.
         25    2    1    2    0    0 -0.19500623242E+02  0.12044221203E+03  0.28983733564E+02  0.17712660387E+03  0.12508867351E+03 0.  0.
        -24    2    1    2    0    0  0.24752307412E+03 -0.14655419159E+02 -0.78352470735E+02  0.27380672240E+03  0.85723730843E+02 0.  0.
         24    2    1    2    0    0 -0.22802245088E+03 -0.10578679287E+03  0.63575426660E+02  0.27169290111E+03  0.81179517037E+02 0.  0.
        -11    1    5    5    0    0 -0.57862247239E+02  0.17100801504E+01 -0.72153147795E+01  0.58335450603E+02  0.00000000000E+00 0.  1.
         12    1    5    5    0    0 -0.17016020364E+03 -0.10749687302E+03  0.70790741440E+02  0.21335745051E+03  0.00000000000E+00 0. -1.
         11    1    4    4    0    0  0.85311194662E+02 -0.26925000529E+02  0.76699712114E+01  0.89787438133E+02  0.00000000000E+00 0. -1.
        -12    1    4    4    0    0  0.16221187946E+03  0.12269581371E+02 -0.86022441947E+02  0.18401928427E+03  0.00000000000E+00 0.  1.
          5    1    3    3  501    0  0.16898559986E+02  0.31511187617E+01 -0.34533314165E+02  0.38800941564E+02  0.41800000000E+01 0.  1.
         -5    1    3    3    0  501 -0.36399183228E+02  0.11729109327E+03  0.63517047729E+02  0.13832566231E+03  0.41800000000E+01 0.  1.
</event>
<event>
11    1  0.2450992E-009  0.1676458E+03  0.7561462E-02  0.1080099E+00
         22   -1    0    0    0    0  0.00000000000E+00  0.00000000000E+00  0.28816402285E+03  0.28816402285E+03  0.00000000000E+00 0.  1.
         22   -1    0    0    0    0 -0.00000000000E+00 -0.00000000000E+00 -0.24929346028E+03  0.24929346028E+03  0.00000000000E+00 0. -1.
         25    2    1    2    0    0 -0.11759062140E+03  0.16680666048E+02 -0.12185074162E+03  0.21118915546E+03  0.12508979690E+03 0.  0.
         24    2    1    2    0    0  0.16137304214E+02 -0.67002754070E+02 -0.12125243878E+02  0.10429647141E+03  0.77336606915E+02 0.  0.
        -24    2    1    2    0    0  0.10145331719E+03  0.50322088022E+02  0.17284654807E+03  0.22197185626E+03  0.81058544775E+02 0.  0.
        -13    1    4    4    0    0  0.21919099416E+02 -0.49432700670E+00  0.20478574039E+02  0.30001054532E+02  0.00000000000E+00 0.  1.
         14    1    4    4    0    0 -0.57817952022E+01 -0.66508427063E+02 -0.32603817917E+02  0.74295416877E+02  0.00000000000E+00 0. -1.
         13    1    5    5    0    0  0.22810350260E+02 -0.22528013873E+02  0.40814520241E+02  0.51900371392E+02  0.00000000000E+00 0. -1.
        -14    1    5    5    0    0  0.78642966928E+02  0.72850101895E+02  0.13203202783E+03  0.17007148487E+03  0.00000000000E+00 0.  1.
          5    1    3    3  501    0 -0.40784368358E+02  0.24054948204E+02  0.18472017401E+02  0.50996990718E+02  0.41800000000E+01 0. -1.
         -5    1    3    3    0  501 -0.76806253044E+02 -0.73742821559E+01 -0.14032275902E+03  0.16019216474E+03  0.41800000000E+01 0. -1.
</event>
<event>
11    1  0.2450992E-009  0.1861721E+03  0.7561462E-02  0.1064757E+00
         22   -1    0    0    0    0  0.00000000000E+00  0.00000000000E+00  0.36597875978E+03  0.36597875978E+03  0.00000000000E+00 0. -1.
         22   -1    0    0    0    0 -0.00000000000E+00 -0.00000000000E+00 -0.19836011287E+03  0.19836011287E+03  0.00000000000E+00 0. -1.
         25    2    1    2    0    0 -0.93885988803E+02 -0.91660522821E+02 -0.32120648226E+02  0.18410397727E+03  0.12508520322E+03 0.  0.
        -24    2    1    2    0    0  0.88006042003E+02  0.11695978301E+03  0.58778991979E+01  0.16756997846E+03  0.81366416361E+02 0.  0.
         24    2    1    2    0    0  0.58799467999E+01 -0.25299260187E+02  0.19386139594E+03  0.21266491693E+03  0.83483529626E+02 0.  0.
        -11    1    5    5    0    0 -0.15318165304E+02 -0.48713721789E+02  0.83539736269E+02  0.97910982095E+02  0.00000000000E+00 0.  1.
         12    1    5    5    0    0  0.21198112104E+02  0.23414461602E+02  0.11032165967E+03  0.11475393484E+03  0.00000000000E+00 0. -1.
         11    1    4    4    0    0  0.88178103552E+02  0.95877558896E+02 -0.22528539084E+02  0.13219462667E+03  0.00000000000E+00 0. -1.
        -12    1    4    4    0    0 -0.17206154890E+00  0.21082224112E+02  0.28406438282E+02  0.35375351794E+02  0.00000000000E+00 0.  1.
          5    1    3    3  501    0 -0.99807412295E+02 -0.11368059692E+03 -0.44607910437E+02  0.15777241755E+03  0.41800000000E+01 0.  1.
         -5    1    3    3    0  501  0.59214234920E+01  0.22020074102E+02  0.12487262211E+02  0.26331559717E+02  0.41800000000E+01 0.  1.
</event>
<event>
11    1  0.2450992E-009  0.1314284E+03  0.7561462E-02  0.1117526E+00
         22   -1    0    0    0    0  0.00000000000E+00  0.00000000000E+00  0.28379836556E+03  0.28379836556E+03  0.00000000000E+00 0.  1.
         22   -1    0    0    0    0 -0.00000000000E+00 -0.00000000000E+00 -0.16172870793E+03  0.16172870793E+03  0.00000000000E+00 0. -1.
         25    2    1    2    0    0  0.11723533882E+02  0.21348845840E+02 -0.34023024061E+02  0.13189972592E+03  0.12508699799E+03 0.  0.
         24    2    1    2    0    0 -0.39131029249E+02 -0.33829045250E+02 -0.36730269629E+02  0.10178374437E+03  0.79593819846E+02 0.  0.
        -24    2    1    2    0    0  0.27407495367E+02  0.12480199410E+02  0.19282295132E+03  0.21184360321E+03  0.82402035698E+02 0.  0.
        -13    1    4    4    0    0 -0.47166455286E+02 -0.36608915293E+02  0.43194198621E+01  0.59862714365E+02  0.00000000000E+00 0.  1.
         14    1    4    4    0    0  0.80354260374E+01  0.27798700434E+01 -0.41049689491E+02  0.41921030001E+02  0.00000000000E+00 0. -1.
         13    1    5    5    0    0 -0.56855576537E+01 -0.29289182087E+02  0.10462939962E+03  0.10880024365E+03  0.00000000000E+00 0. -1.
        -14    1    5    5    0    0  0.33093053021E+02  0.41769381497E+02  0.88193551696E+02  0.10304335956E+03  0.00000000000E+00 0.  1.
          5    1    3    3  501    0  0.15626598876E+02 -0.50076278306E+02 -0.28962212380E+02  0.60067515242E+02  0.41800000000E+01 0.  1.
         -5    1    3    3    0  501 -0.39030649940E+01  0.71425124146E+02 -0.50608116811E+01  0.71832210675E+02  0.41800000000E+01 0.  1.
</event>
<event>
11    1  0.2450992E-009  0.1286257E+03  0.7561462E-02  0.1120969E+00
         22   -1    0    0    0    0  0.00000000000E+00  0.00000000000E+00  0.31136746133E+03  0.31136746133E+03  0.00000000000E+00 0.  1.
         22   -1    0    0    0    0 -0.00000000000E+00 -0.00000000000E+00 -0.24209885678E+03  0.24209885678E+03  0.00000000000E+00 0.  1.
         25    2    1    2    0    0  0.37420235313E+02  0.10637393656E+02 -0.95746285598E+02  0.16226127741E+03  0.12509173748E+03 0.  0.
        -24    2    1    2    0    0 -0.19578192703E+02  0.13315969669E+02 -0.89306589203E+02  0.12309930720E+03  0.81345878071E+02 0.  0.
         24    2    1    2    0    0 -0.17842042611E+02 -0.23953363324E+02  0.25432147935E+03  0.26810573351E+03  0.79430267425E+02 0.  0.
        -13    1    5    5    0    0 -0.38571653055E+02 -0.16013223535E+02  0.23498247286E+03  0.23866494988E+03  0.00000000000E+00 0.  1.
         14    1    5    5    0    0  0.20729610445E+02 -0.79401397890E+01  0.19339006492E+02  0.29440783637E+02  0.00000000000E+00 0. -1.
         13    1    4    4    0    0 -0.43299703086E+02  0.32553766327E+02 -0.57911521364E+02  0.79299156969E+02  0.00000000000E+00 0. -1.
        -14    1    4    4    0    0  0.23721510384E+02 -0.19237796658E+02 -0.31395067840E+02  0.43800150226E+02  0.00000000000E+00 0.  1.
          5    1    3    3  501    0  0.67484510292E+02 -0.22804441655E+02 -0.20055939918E+02  0.74120947205E+02  0.41800000000E+01 0.  1.
         -5    1    3    3    0  501 -0.30064274978E+02  0.33441835311E+02 -0.75690345679E+02  0.88140330201E+02  0.41800000000E+01 0.  1.
</event>
<event>
11    1  0.4780612E-009  0.6159497E+03  0.7561462E-02  0.9166246E-01
         22   -1    0    0    0    0  0.00000000000E+00  0.00000000000E+00  0.79995859485E+03  0.79995859485E+03  0.00000000000E+00 0. -1.
         22   -1    0    0    0    0 -0.00000000000E+00 -0.00000000000E+00 -0.92011813818E+03  0.92011813818E+03  0.00000000000E+00 0. -1.
         25    2    1    2    0    0  0.47474769555E+03 -0.39471471669E+03 -0.60021099250E+03  0.87010683881E+03  0.12509034103E+03 0.  0.
         24    2    1    2    0    0 -0.47490655765E+03  0.27840329776E+03  0.41410568173E+03  0.69373435435E+03  0.82092655294E+02 0.  0.
        -24    2    1    2    0    0  0.15886209711E+00  0.11631141893E+03  0.65945767445E+02  0.15623553987E+03  0.80822820205E+02 0.  0.
        -11    1    4    4    0    0 -0.25352014097E+03  0.19556827595E+03  0.23533649289E+03  0.39736969855E+03  0.00000000000E+00 0.  1.
         12    1    4    4    0    0 -0.22138641668E+03  0.82835021809E+02  0.17876918885E+03  0.29636465580E+03  0.00000000000E+00 0. -1.
         13    1    5    5    0    0  0.34145267840E+02  0.94230776329E+02  0.38899634726E+02  0.10751055811E+03  0.00000000000E+00 0. -1.
        -14    1    5    5    0    0 -0.33986405742E+02  0.22080642599E+02  0.27046132719E+02  0.48724981764E+02  0.00000000000E+00 0.  1.
          5    1    3    3  501    0  0.22595975351E+03 -0.19633064873E+03 -0.20560888551E+03  0.36317491658E+03  0.41800000000E+01 0. -1.
         -5    1    3    3    0  501  0.24878794205E+03 -0.19838406796E+03 -0.39460210699E+03  0.50693192223E+03  0.41800000000E+01 0. -1.
</event>
<event>
11    1  0.2450992E-009  0.1595651E+03  0.7561462E-02  0.1087487E+00
         22   -1    0    0    0    0  0.00000000000E+00  0.00000000000E+00  0.50696801914E+03  0.50696801914E+03  0.00000000000E+00 0.  1.
         22   -1    0    0    0    0 -0.00000000000E+00 -0.00000000000E+00 -0.83609767701E+02  0.83609767701E+02  0.00000000000E+00 0. -1.
         25    2    1    2    0    0 -0.55472063216E+02 -0.52426438883E+02  0.10438764492E+03  0.17992127235E+03  0.12509677270E+03 0.  0.
        -24    2    1    2    0    0  0.73289891881E+02  0.10596128438E+03  0.14625456917E+03  0.21135642809E+03  0.81743126033E+02 0.  0.
         24    2    1    2    0    0 -0.17817828665E+02 -0.53534845496E+02  0.17271603735E+03  0.19930008640E+03  0.81891636816E+02 0.  0.
        -11    1    5    5    0    0 -0.11757263544E+02 -0.27965892990E+02  0.17022247120E+03  0.17290463880E+03  0.00000000000E+00 0.  1.
         12    1    5    5    0    0 -0.60605651213E+01 -0.25568952506E+02  0.24935661487E+01  0.26395447600E+02  0.00000000000E+00 0. -1.
         13    1    4    4    0    0  0.61862083501E+02  0.10779525708E+03  0.88802643512E+02  0.15275026782E+03  0.00000000000E+00 0. -1.
        -14    1    4    4    0    0  0.11427808380E+02 -0.18339727012E+01  0.57451925655E+02  0.58606160271E+02  0.00000000000E+00 0.  1.
          5    1    3    3  501    0 -0.65223996642E+02 -0.82136370730E+02  0.10486020889E+03  0.14837010799E+03  0.41800000000E+01 0.  1.
         -5    1    3    3    0  501  0.97519334265E+01  0.29709931846E+02 -0.47256397325E+00  0.31551164362E+02  0.41800000000E+01 0.  1.
</event>
<event>
11    1  0.2450992E-009  0.2167536E+03  0.7561462E-02  0.1043270E+00
         22   -1    0    0    0    0  0.00000000000E+00  0.00000000000E+00  0.40845377506E+03  0.40845377506E+03  0.00000000000E+00 0.  1.
         22   -1    0    0    0    0 -0.00000000000E+00 -0.00000000000E+00 -0.44198808611E+03  0.44198808611E+03  0.00000000000E+00 0.  1.
         25    2    1    2    0    0 -0.85368149254E+02 -0.70988725004E+02 -0.18897227188E+03  0.25235912836E+03  0.12508992822E+03 0.  0.
         24    2    1    2    0    0 -0.10405221782E+03  0.10098094833E+03 -0.15310218376E+03  0.22521653140E+03  0.79108731404E+02 0.  0.
        -24    2    1    2    0    0  0.18942036707E+03 -0.29992223325E+02  0.30854014459E+03  0.37286620141E+03  0.83979607092E+02 0.  0.
        -11    1    4    4    0    0 -0.51797143056E+02  0.20798501831E+01 -0.62983552554E+02  0.81573265828E+02  0.00000000000E+00 0.  1.
         12    1    4    4    0    0 -0.52255074759E+02  0.98901098146E+02 -0.90118631207E+02  0.14364326557E+03  0.00000000000E+00 0. -1.
         13    1    5    5    0    0  0.56450571019E+02  0.98086455227E+01  0.37862581004E+02  0.68676426346E+02  0.00000000000E+00 0. -1.
        -14    1    5    5    0    0  0.13296979605E+03 -0.39800868848E+02  0.27067756359E+03  0.30418977506E+03  0.00000000000E+00 0.  1.
          5    1    3    3  501    0 -0.89091805769E+02  0.62210075501E+01 -0.92150139712E+02  0.12839459272E+03  0.41800000000E+01 0.  1.
         -5    1    3    3    0  501  0.37236565149E+01 -0.77209732554E+02 -0.96822132170E+02  0.12396453564E+03  0.41800000000E+01 0.  1.
</event>
<event>
11    1  0.2450992E-009  0.1508269E+03  0.7561462E-02  0.1096037E+00
         22   -1    0    0    0    0  0.00000000000E+00  0.00000000000E+00  0.24295977318E+03  0.24295977318E+03  0.00000000000E+00 0. -1.
         22   -1    0    0    0    0 -0.00000000000E+00 -0.00000000000E+00 -0.64962419841E+03  0.64962419841E+03  0.00000000000E+00 0.  1.
         25    2    1    2    0    0  0.94541588708E+02  0.51211463150E+02 -0.45610940882E+03  0.48502227289E+03  0.12510030549E+03 0.  0.
         24    2    1    2    0    0 -0.22881059358E+02 -0.83482259379E+01 -0.15291774135E+03  0.17465422008E+03  0.80790006928E+02 0.  0.
        -24    2    1    2    0    0 -0.71660529349E+02 -0.42863237212E+02  0.20236272494E+03  0.23290747862E+03  0.79515612173E+02 0.  0.
        -11    1    4    4    0    0 -0.41214848653E+02 -0.14619509689E+02 -0.14846618352E+03  0.15477274134E+03  0.00000000000E+00 0.  1.
         12    1    4    4    0    0  0.18333789294E+02  0.62712837511E+01 -0.44515578273E+01  0.19881478739E+02  0.00000000000E+00 0. -1.
         11    1    5    5    0    0  0.37921813246E+01 -0.12357311161E+02  0.10595362028E+03  0.10673918413E+03  0.00000000000E+00 0. -1.
        -12    1    5    5    0    0 -0.75452710674E+02 -0.30505926051E+02  0.96409104664E+02  0.12616829449E+03  0.00000000000E+00 0.  1.
          5    1    3    3  501    0  0.40003746998E+02  0.63808568167E+02 -0.39463157715E+03  0.40177529445E+03  0.41800000000E+01 0. -1.
         -5    1    3    3    0  501  0.54537841710E+02 -0.12597105017E+02 -0.61477831668E+02  0.83246978443E+02  0.41800000000E+01 0. -1.
</event>
<event>
11    1  0.2450992E-009  0.3898814E+03  0.7561462E-02  0.9680094E-01
         22   -1    0    0    0    0  0.00000000000E+00  0.00000000000E+00  0.49419323458E+03  0.49419323458E+03  0.00000000000E+00 0.  1.
         22   -1    0    0    0    0 -0.00000000000E+00 -0.00000000000E+00 -0.11590797611E+04  0.11590797611E+04  0.00000000000E+00 0.  1.
         25    2    1    2    0    0 -0.90543789719E+01  0.31158768591E+03 -0.44503412229E+03  0.55755859767E+03  0.12508937624E+03 0.  0.
         24    2    1    2    0    0  0.24821757633E+03 -0.45791856900E+03 -0.47374362090E+03  0.70858879803E+03  0.79772710331E+02 0.  0.
        -24    2    1    2    0    0 -0.23916319736E+03  0.14633088309E+03  0.25389121667E+03  0.38712559998E+03  0.82424013109E+02 0.  0.
        -13    1    4    4    0    0  0.13658832852E+03 -0.25881402443E+03 -0.31853595111E+03  0.43255776825E+03  0.00000000000E+00 0.  1.
         14    1    4    4    0    0  0.11162924782E+03 -0.19910454457E+03 -0.15520766979E+03  0.27603102977E+03  0.00000000000E+00 0. -1.
         13    1    5    5    0    0  0.16262283544E+01  0.19247133902E+02  0.10810605998E+02  0.22135175268E+02  0.00000000000E+00 0. -1.
        -14    1    5    5    0    0 -0.24078942572E+03  0.12708374919E+03  0.24308061067E+03  0.36499042471E+03  0.00000000000E+00 0.  1.
          5    1    3    3  501    0  0.11156879701E+01  0.20027457430E+03 -0.17774782774E+03  0.26781133758E+03  0.41800000000E+01 0. -1.
         -5    1    3    3    0  501 -0.10170066942E+02  0.11131311161E+03 -0.26728629455E+03  0.28974726010E+03  0.41800000000E+01 0. -1.
</event>
<event>
11    1  0.2450992E-009  0.3767871E+03  0.7561462E-02  0.9720846E-01
         22   -1    0    0    0    0  0.00000000000E+00  0.00000000000E+00  0.23434501704E+03  0.23434501704E+03  0.00000000000E+00 0. -1.
         22   -1    0    0    0    0 -0.00000000000E+00 -0.00000000000E+00 -0.52758231977E+03  0.52758231977E+03  0.00000000000E+00 0. -1.
         25    2    1    2    0    0 -0.61772031580E+02 -0.39693038684E+02 -0.13983424312E+03  0.20146566366E+03  0.12507388568E+03 0.  0.
        -24    2    1    2    0    0 -0.80115647772E+02 -0.19898172871E+03 -0.14660740620E+03  0.27183906592E+03  0.79940608144E+02 0.  0.
         24    2    1    2    0    0  0.14188767935E+03  0.23867476739E+03 -0.67956534065E+01  0.28862260723E+03  0.78479744895E+02 0.  0.
        -13    1    5    5    0    0  0.52241415964E+01  0.91011222511E+01 -0.18417982990E+02  0.21197739952E+02  0.00000000000E+00 0.  1.
         14    1    5    5    0    0  0.13666353776E+03  0.22957364514E+03  0.11622329583E+02  0.26742486728E+03  0.00000000000E+00 0. -1.
         13    1    4    4    0    0 -0.78335089805E+02 -0.88179033123E+02 -0.70658515883E+02  0.13749383275E+03  0.00000000000E+00 0. -1.
        -14    1    4    4    0    0 -0.17805579674E+01 -0.11080269558E+03 -0.75948890320E+02  0.13434523317E+03  0.00000000000E+00 0.  1.
          5    1    3    3  501    0 -0.33054667492E+02 -0.84728351779E+02 -0.95279292694E+02  0.13178437181E+03  0.41800000000E+01 0. -1.
         -5    1    3    3    0  501 -0.28717364089E+02  0.45035313095E+02 -0.44554950427E+02  0.69681291846E+02  0.41800000000E+01 0. -1.
</event>
<event>
11    1  0.2450992E-009  0.1592721E+03  0.7561462E-02  0.1087764E+00
         22   -1    0    0    0    0  0.00000000000E+00  0.00000000000E+00  0.30734305622E+03  0.30734305622E+03  0.00000000000E+00 0. -1.
         22   -1    0    0    0    0 -0.00000000000E+00 -0.00000000000E+00 -0.25158391414E+03  0.25158391414E+03  0.00000000000E+00 0. -1.
         25    2    1    2    0    0  0.42427469580E+02 -0.76223010689E+02 -0.14353401117E+03  0.20942729255E+03  0.12509093080E+03 0.  0.
        -24    2    1    2    0    0 -0.10363240303E+03  0.11903230038E+03  0.11707927467E+03  0.21211248689E+03  0.79848525627E+02 0.  0.
         24    2    1    2    0    0  0.61204933449E+02 -0.42809289688E+02  0.82213878573E+02  0.13738719093E+03  0.80854432401E+02 0.  0.
        -11    1    5    5    0    0 -0.86912343142E+01 -0.32402351975E+02  0.48800002622E+02  0.59219002215E+02  0.00000000000E+00 0.  1.
         12    1    5    5    0    0  0.69896167763E+02 -0.10406937713E+02  0.33413875951E+02  0.78168188712E+02  0.00000000000E+00 0. -1.
         11    1    4    4    0    0 -0.10888444422E+03  0.76624753664E+02  0.78623326839E+02  0.15462471533E+03  0.00000000000E+00 0. -1.
        -12    1    4    4    0    0  0.52520411920E+01  0.42407546712E+02  0.38455947834E+02  0.57487771557E+02  0.00000000000E+00 0.  1.
          5    1    3    3  501    0 -0.25187203500E+02 -0.54431862137E+02 -0.14150765426E+02  0.61765195685E+02  0.41800000000E+01 0.  1.
         -5    1    3    3    0  501  0.67614673080E+02 -0.21791148551E+02 -0.12938324574E+03  0.14766209686E+03  0.41800000000E+01 0.  1.
</event>
<event>
11    1  0.2450992E-009  0.1422437E+04  0.7561462E-02  0.8356522E-01
         22   -1    0    0    0    0  0.00000000000E+00  0.00000000000E+00  0.36215970961E+03  0.36215970961E+03  0.00000000000E+00 0. -1.
         22   -1    0    0    0    0 -0.00000000000E+00 -0.00000000000E+00 -0.13967095113E+04  0.13967095113E+04  0.00000000000E+00 0. -1.
         25    2    1    2    0    0 -0.41493088584E+03  0.23621690187E+03 -0.11168054825E+04  0.12210111736E+04  0.12509090918E+03 0.  0.
        -24    2    1    2    0    0  0.25680685298E+03 -0.17555115638E+03 -0.22655413617E+02  0.32286954805E+03  0.83447642553E+02 0.  0.
         24    2    1    2    0    0  0.15812403286E+03 -0.60665745488E+02  0.10491109442E+03  0.21498849927E+03  0.80809495997E+02 0.  0.
        -13    1    5    5    0    0  0.60815266813E+02  0.16532446158E+02  0.42176796602E+02  0.75833374085E+02  0.00000000000E+00 0.  1.
         14    1    5    5    0    0  0.97308766046E+02 -0.77198191646E+02  0.62734297813E+02  0.13915512518E+03  0.00000000000E+00 0. -1.
         11    1    4    4    0    0  0.23917490653E+03 -0.15741824543E+03  0.36825077508E+01  0.28635415270E+03  0.00000000000E+00 0. -1.
        -12    1    4    4    0    0  0.17631946447E+02 -0.18132910953E+02 -0.26337921368E+02  0.36515395344E+02  0.00000000000E+00 0.  1.
          5    1    3    3  501    0 -0.40207650790E+03  0.20503950929E+03 -0.10819969646E+04  0.11723658227E+04  0.41800000000E+01 0. -1.
         -5    1    3    3    0  501 -0.12854377933E+02  0.31177392584E+02 -0.34808517935E+02  0.48645350869E+02  0.41800000000E+01 0. -1.
</event>
<event>
11    1  0.2450992E-009  0.2023230E+03  0.7561462E-02  0.1052893E+00
         22   -1    0    0    0    0  0.00000000000E+00  0.00000000000E+00  0.10664444071E+04  0.10664444071E+04  0.00000000000E+00 0.  1.
         22   -1    0    0    0    0 -0.00000000000E+00 -0.00000000000E+00 -0.14706398748E+03  0.14706398748E+03  0.00000000000E+00 0. -1.
         25    2    1    2    0    0  0.54625567963E+02 -0.13536767170E+03  0.40076079859E+02  0.19637282597E+03  0.12509130821E+03 0.  0.
         24    2    1    2    0    0 -0.19169360328E+03  0.21001011161E+00  0.14776385979E+03  0.25570823231E+03  0.82498849511E+02 0.  0.
        -24    2    1    2    0    0  0.13706803531E+03  0.13515766158E+03  0.73154047997E+03  0.76142733630E+03  0.86976288930E+02 0.  0.
        -11    1    4    4    0    0 -0.46477247038E+01  0.12358765867E+02  0.33932391551E+02  0.36410817555E+02  0.00000000000E+00 0.  1.
         12    1    4    4    0    0 -0.18704587857E+03 -0.12148755756E+02  0.11383146824E+03  0.21929741475E+03  0.00000000000E+00 0. -1.
         13    1    5    5    0    0  0.64244302478E+02  0.73465110755E+02  0.21458779805E+03  0.23573793919E+03  0.00000000000E+00 0. -1.
        -14    1    5    5    0    0  0.72823732836E+02  0.61692550829E+02  0.51695268192E+03  0.52568939712E+03  0.00000000000E+00 0.  1.
          5    1    3    3  501    0  0.31731912546E+02 -0.20971713323E+02 -0.39575369106E+02  0.55049153249E+02  0.41800000000E+01 0. -1.
         -5    1    3    3    0  501  0.22893655416E+02 -0.11439595837E+03  0.79651448965E+02  0.14132367273E+03  0.41800000000E+01 0. -1.
</event>
<event>
11    1  0.2450992E-009  0.2350256E+03  0.7561462E-02  0.1032193E+00
         22   -1    0    0    0    0  0.00000000000E+00  0.00000000000E+00  0.12857252403E+04  0.12857252403E+04  0.00000000000E+00 0. -1.
         22   -1    0    0    0    0 -0.00000000000E+00 -0.00000000000E+00 -0.15422408520E+03  0.15422408520E+03  0.00000000000E+00 0. -1.
         25    2    1    2    0    0  0.17183966296E+03 -0.10241669889E+03  0.70460622830E+02  0.24622986837E+03  0.12508556564E+03 0.  0.
        -24    2    1    2    0    0 -0.15369937655E+03  0.12633570538E+03  0.11553991691E+03  0.24442113557E+03  0.82510667846E+02 0.  0.
         24    2    1    2    0    0 -0.18140286406E+02 -0.23919006488E+02  0.94550061535E+03  0.94929832154E+03  0.79339150458E+02 0.  0.
        -13    1    5    5    0    0 -0.29453002340E+02  0.18233765843E+02  0.60821587826E+03  0.60920152998E+03  0.00000000000E+00 0.  1.
         14    1    5    5    0    0  0.11312715934E+02 -0.42152772332E+02  0.33728473709E+03  0.34009679156E+03  0.00000000000E+00 0. -1.
         11    1    4    4    0    0 -0.63587092502E+02  0.22041817709E+02  0.45417341783E+01  0.67452111977E+02  0.00000000000E+00 0. -1.
        -12    1    4    4    0    0 -0.90112284047E+02  0.10429388767E+03  0.11099818274E+03  0.17696902359E+03  0.00000000000E+00 0.  1.
          5    1    3    3  501    0  0.24280669283E+02  0.29166533240E+02  0.10974243280E+02  0.39725860313E+02  0.41800000000E+01 0. -1.
         -5    1    3    3    0  501  0.14755899367E+03 -0.13158323213E+03  0.59486379550E+02  0.20650400806E+03  0.41800000000E+01 0. -1.
</event>
<event>
11    1  0.2450992E-009  0.1474755E+03  0.7561462E-02  0.1099487E+00
         22   -1    0    0    0    0  0.00000000000E+00  0.00000000000E+00  0.32947981248E+04  0.32947981248E+04  0.00000000000E+00 0.  1.
         22   -1    0    0    0    0 -0.00000000000E+00 -0.00000000000E+00 -0.13833365024E+03  0.13833365024E+03  0.00000000000E+00 0. -1.
         25    2    1    2    0    0  0.56826210703E+02  0.47525935559E+02 -0.80687131049E+02  0.16626468039E+03  0.12508236508E+03 0.  0.
        -24    2    1    2    0    0 -0.78565111261E+02 -0.75414842046E+02  0.30921261323E+03  0.33763170100E+03  0.80764164293E+02 0.  0.
         24    2    1    2    0    0  0.21738900558E+02  0.27888906488E+02  0.29279389924E+04  0.29292353937E+04  0.79642183713E+02 0.  0.
        -11    1    5    5    0    0 -0.12737058063E+02  0.14247967599E+02  0.23647807355E+04  0.23648579586E+04  0.00000000000E+00 0.  1.
         12    1    5    5    0    0  0.34475958621E+02  0.13640938888E+02  0.56315825694E+03  0.56437743514E+03  0.00000000000E+00 0. -1.
         11    1    4    4    0    0 -0.10571067179E+02 -0.26123920968E+02  0.15529850708E+02  0.32177367372E+02  0.00000000000E+00 0. -1.
        -12    1    4    4    0    0 -0.67994044083E+02 -0.49290921079E+02  0.29368276252E+03  0.30545433363E+03  0.00000000000E+00 0.  1.
          5    1    3    3  501    0  0.84629842353E+02  0.74904502574E+01 -0.80829973589E+02  0.11734255022E+03  0.41800000000E+01 0. -1.
         -5    1    3    3    0  501 -0.27803631649E+02  0.40035485301E+02  0.14284253967E+00  0.48922130168E+02  0.41800000000E+01 0. -1.
</event>
<event>
11    1  0.2450992E-009  0.3954347E+03  0.7561462E-02  0.9663325E-01
         22   -1    0    0    0    0  0.00000000000E+00  0.00000000000E+00  0.42193403478E+04  0.42193403478E+04  0.00000000000E+00 0.  1.
         22   -1    0    0    0    0 -0.00000000000E+00 -0.00000000000E+00 -0.20992314677E+03  0.20992314677E+03  0.00000000000E+00 0.  1.
         25    2    1    2    0    0 -0.40153400590E+03 -0.52808429289E+02  0.18411017648E+03  0.46214125603E+03  0.12513870440E+03 0.  0.
         24    2    1    2    0    0  0.32712839295E+03 -0.17286801060E+03  0.47767537222E+03  0.61009193790E+03  0.84510809389E+02 0.  0.
        -24    2    1    2    0    0  0.74405612956E+02  0.22567643989E+03  0.33476316524E+04  0.33570303007E+04  0.80924093880E+02 0.  0.
        -13    1    4    4    0    0  0.13763693273E+03 -0.53491918651E+02  0.25247201808E+03  0.29248492359E+03  0.00000000000E+00 0.  1.
         14    1    4    4    0    0  0.18949146022E+03 -0.11937609195E+03  0.22520335414E+03  0.31760701431E+03  0.00000000000E+00 0. -1.
         13    1    5    5    0    0  0.28162763323E+02  0.74664505989E+02  0.66819378337E+03  0.67294194536E+03  0.00000000000E+00 0. -1.
        -14    1    5    5    0    0  0.46242849633E+02  0.15101193390E+03  0.26794378690E+04  0.26840883553E+04  0.00000000000E+00 0.  1.
          5    1    3    3  501    0 -0.22949335999E+03  0.22029497122E+02  0.63882725745E+02  0.23927176196E+03  0.41800000000E+01 0. -1.
         -5    1    3    3    0  501 -0.17204064591E+03 -0.74837926411E+02  0.12022745074E+03  0.22286949407E+03  0.41800000000E+01 0. -1.
</event>
<event>
11    1  0.2450992E-009  0.1654822E+03  0.7561462E-02  0.1082031E+00
         22   -1    0    0    0    0  0.00000000000E+00  0.00000000000E+00  0.34901512275E+03  0.34901512275E+03  0.00000000000E+00 0. -1.
         22   -1    0    0    0    0 -0.00000000000E+00 -0.00000000000E+00 -0.93853857493E+03  0.93853857493E+03  0.00000000000E+00 0. -1.
         25    2    1    2    0    0  0.92806927655E+02  0.43055257996E+02 -0.74677581356E+03  0.76405996693E+03  0.12508651520E+03 0.  0.
        -24    2    1    2    0    0 -0.82789142782E+02 -0.17140011299E+03 -0.93283634634E+02  0.22684660545E+03  0.80780598051E+02 0.  0.
         24    2    1    2    0    0 -0.10017784874E+02  0.12834485499E+03  0.25053599601E+03  0.29664712530E+03  0.93050920678E+02 0.  0.
        -13    1    5    5    0    0  0.40169334886E+01  0.27068122176E+02  0.15270653812E+03  0.15513898858E+03  0.00000000000E+00 0.  1.
         14    1    5    5    0    0 -0.14034718362E+02  0.10127673281E+03  0.97829457893E+02  0.14150813673E+03  0.00000000000E+00 0. -1.
         11    1    4    4    0    0 -0.55266542600E+02 -0.16427097416E+03 -0.60788857929E+02  0.18366989119E+03  0.00000000000E+00 0. -1.
        -12    1    4    4    0    0 -0.27522600181E+02 -0.71291388231E+01 -0.32494776705E+02  0.43176714259E+02  0.00000000000E+00 0.  1.
          5    1    3    3  501    0  0.46207619367E+01  0.31456716787E+02 -0.51139787354E+03  0.51240231648E+03  0.41800000000E+01 0. -1.
         -5    1    3    3    0  501  0.88186165718E+02  0.11598541209E+02 -0.23537794002E+03  0.25165765045E+03  0.41800000000E+01 0. -1.
</event>
<event>
11    1  0.2450992E-009  0.1551641E+03  0.7561462E-02  0.1091716E+00
         22   -1    0    0    0    0  0.00000000000E+00  0.00000000000E+00  0.22058353362E+03  0.22058353362E+03  0.00000000000E+00 0.  1.
         22   -1    0    0    0    0 -0.00000000000E+00 -0.00000000000E+00 -0.11524075959E+04  0.11524075959E+04  0.00000000000E+00 0. -1.
         25    2    1    2    0    0  0.83102574917E+02  0.44211498493E+02 -0.93397634780E+03  0.94700562927E+03  0.12508856485E+03 0.  0.
         24    2    1    2    0    0 -0.20753512853E+02 -0.11636049346E+03 -0.16458514819E+03  0.21755669607E+03  0.79197047077E+02 0.  0.
        -24    2    1    2    0    0 -0.62349062064E+02  0.72148994968E+02  0.16673743375E+03  0.20842880414E+03  0.80921638426E+02 0.  0.
        -11    1    4    4    0    0 -0.49704628897E+02 -0.62445400010E+02 -0.78597695462E+02  0.11201596247E+03  0.00000000000E+00 0.  1.
         12    1    4    4    0    0  0.28951116044E+02 -0.53915093451E+02 -0.85987452724E+02  0.10554073360E+03  0.00000000000E+00 0. -1.
         13    1    5    5    0    0  0.10666435648E+02 -0.59092968349E+01  0.24587103782E+01  0.12439368764E+02  0.00000000000E+00 0. -1.
        -14    1    5    5    0    0 -0.73015497713E+02  0.78058291802E+02  0.16427872337E+03  0.19598943537E+03  0.00000000000E+00 0.  1.
          5    1    3    3  501    0 -0.14502477119E+02 -0.16508897016E+02 -0.40733848948E+03  0.40795218217E+03  0.41800000000E+01 0. -1.
         -5    1    3    3    0  501  0.97605052037E+02  0.60720395509E+02 -0.52663785832E+03  0.53905344710E+03  0.41800000000E+01 0. -1.
</event>
<event>
11    1  0.2450992E-009  0.2140322E+03  0.7561462E-02  0.1045022E+00
         22   -1    0    0    0    0  0.00000000000E+00  0.00000000000E+00  0.27189954452E+03  0.27189954452E+03  0.00000000000E+00 0. -1.
         22   -1    0    0    0    0 -0.00000000000E+00 -0.00000000000E+00 -0.40242396048E+03  0.40242396048E+03  0.00000000000E+00 0.  1.
         25    2    1    2    0    0 -0.69613216221E+02 -0.12392592209E+02 -0.18719964820E+03  0.23598905157E+03  0.12509015932E+03 0.  0.
        -24    2    1    2    0    0 -0.44864623444E+02  0.18859057770E+03  0.35054204042E+02  0.21241709417E+03  0.79454290268E+02 0.  0.
         24    2    1    2    0    0  0.11447783967E+03 -0.17619798549E+03  0.21621028199E+02  0.22591735926E+03  0.80126640316E+02 0.  0.
        -13    1    5    5    0    0  0.11234606810E+03 -0.17368991528E+03  0.28672369944E+01  0.20687688787E+03  0.00000000000E+00 0.  1.
         14    1    5    5    0    0  0.21317715653E+01 -0.25080702152E+01  0.18753791205E+02  0.19040471390E+02  0.00000000000E+00 0. -1.
         13    1    4    4    0    0 -0.35965026061E+02  0.18129435425E+03  0.51936286489E+02  0.19198568654E+03  0.00000000000E+00 0. -1.
        -14    1    4    4    0    0 -0.88995973826E+01  0.72962234554E+01 -0.16882082447E+02  0.20431407637E+02  0.00000000000E+00 0.  1.
          5    1    3    3  501    0  0.11216178017E+02  0.36695294667E+02 -0.10037538468E+03  0.10754086456E+03  0.41800000000E+01 0.  1.
         -5    1    3    3    0  501 -0.80829394238E+02 -0.49087886876E+02 -0.86824263519E+02  0.12844818701E+03  0.41800000000E+01 0.  1.
</event>
<event>
11    1  0.2450992E-009  0.1750100E+03  0.7561462E-02  0.1073752E+00
         22   -1    0    0    0    0  0.00000000000E+00  0.00000000000E+00  0.30363113501E+02  0.30363113501E+02  0.00000000000E+00 0.  1.
         22   -1    0    0    0    0 -0.00000000000E+00 -0.00000000000E+00 -0.18480164752E+04  0.18480164752E+04  0.00000000000E+00 0.  1.
         25    2    1    2    0    0  0.89210538200E+02 -0.58466859981E+02 -0.97635350545E+03  0.99009646575E+03  0.12509176648E+03 0.  0.
        -24    2    1    2    0    0 -0.10022010230E+03  0.12337088366E+03 -0.56362519474E+03  0.59174263032E+03  0.84979624352E+02 0.  0.
         24    2    1    2    0    0  0.11009564100E+02 -0.64904023681E+02 -0.27767466149E+03  0.29654049261E+03  0.80618256821E+02 0.  0.
        -13    1    5    5    0    0 -0.20317258519E+02 -0.69440274239E+02 -0.19832824135E+03  0.21111332028E+03  0.00000000000E+00 0.  1.
         14    1    5    5    0    0  0.31326822619E+02  0.45362505574E+01 -0.79346420141E+02  0.85427172338E+02  0.00000000000E+00 0. -1.
         13    1    4    4    0    0 -0.93054669222E+00  0.51047184202E+02 -0.24490545524E+03  0.25017066762E+03  0.00000000000E+00 0. -1.
        -14    1    4    4    0    0 -0.99289555608E+02  0.72323699460E+02 -0.31871973950E+03  0.34157196270E+03  0.00000000000E+00 0.  1.
          5    1    3    3  501    0 -0.19081717638E+02 -0.57145223502E+01 -0.43550877747E+03  0.43598409990E+03  0.41800000000E+01 0. -1.
         -5    1    3    3    0  501  0.10829225584E+03 -0.52752337631E+02 -0.54084472798E+03  0.55411236584E+03  0.41800000000E+01 0. -1.
</event>
<event>
11    1  0.2450992E-009  0.2245935E+03  0.7561462E-02  0.1038378E+00
         22   -1    0    0    0    0  0.00000000000E+00  0.00000000000E+00  0.55181674695E+03  0.55181674695E+03  0.00000000000E+00 0.  1.
         22   -1    0    0    0    0 -0.00000000000E+00 -0.00000000000E+00 -0.17740869737E+03  0.17740869737E+03  0.00000000000E+00 0.  1.
         25    2    1    2    0    0 -0.12371515570E+02 -0.18631699993E+03 -0.21527601392E+02  0.22578204590E+03  0.12508803207E+03 0.  0.
         24    2    1    2    0    0 -0.42330582502E+02  0.18692680015E+03  0.20019370142E+03  0.28816256021E+03  0.78909037425E+02 0.  0.
        -24    2    1    2    0    0  0.54702098072E+02 -0.60980021368E+00  0.19574194955E+03  0.21528083822E+03  0.70980540294E+02 0.  0.
        -13    1    4    4    0    0 -0.70586550079E+01  0.16617439585E+03  0.16224762449E+03  0.23235327865E+03  0.00000000000E+00 0.  1.
         14    1    4    4    0    0 -0.35271927495E+02  0.20752404296E+02  0.37946076928E+02  0.55809281553E+02  0.00000000000E+00 0. -1.
         13    1    5    5    0    0  0.66891571034E+01 -0.19955835131E+02  0.11663727600E+02  0.24062890933E+02  0.00000000000E+00 0. -1.
        -14    1    5    5    0    0  0.48012940969E+02  0.19346034918E+02  0.18407822195E+03  0.19121794728E+03  0.00000000000E+00 0.  1.
          5    1    3    3  501    0 -0.20523907598E+02 -0.17725558393E+03 -0.57539554902E+02  0.18753411849E+03  0.41800000000E+01 0.  1.
         -5    1    3    3    0  501  0.81523920281E+01 -0.90614160013E+01  0.36011953510E+02  0.38247927412E+02  0.41800000000E+01 0.  1.
</event>
<event>
11    1  0.2450992E-009  0.1454298E+03  0.7561462E-02  0.1101642E+00
         22   -1    0    0    0    0  0.00000000000E+00  0.00000000000E+00  0.31119322350E+04  0.31119322350E+04  0.00000000000E+00 0.  1.
         22   -1    0    0    0    0 -0.00000000000E+00 -0.00000000000E+00 -0.19067192027E+02  0.19067192027E+02  0.00000000000E+00 0.  1.
         25    2    1    2    0    0 -0.24025159357E+02  0.11474880598E+02  0.40923688419E+03  0.42875532490E+03  0.12508964817E+03 0.  0.
        -24    2    1    2    0    0  0.10763090042E+03 -0.88139600226E+02  0.98039496135E+03  0.99334682755E+03  0.78807611995E+02 0.  0.
         24    2    1    2    0    0 -0.83605741064E+02  0.76664719628E+02  0.17032331974E+04  0.17088972745E+04  0.80368968245E+02 0.  0.
        -13    1    5    5    0    0 -0.61846387542E+02  0.15351269902E+02  0.52223447249E+03  0.52610786100E+03  0.00000000000E+00 0.  1.
         14    1    5    5    0    0 -0.21759353522E+02  0.61313449726E+02  0.11809987249E+04  0.11827894135E+04  0.00000000000E+00 0. -1.
         13    1    4    4    0    0  0.55382720501E+02 -0.56502511221E+02  0.30144863246E+03  0.31165855919E+03  0.00000000000E+00 0. -1.
        -14    1    4    4    0    0  0.52248179920E+02 -0.31637089005E+02  0.67894632889E+03  0.68168826836E+03  0.00000000000E+00 0.  1.
          5    1    3    3  501    0  0.24358923176E+02  0.48800469302E+02  0.10479501621E+03  0.11821298898E+03  0.41800000000E+01 0. -1.
         -5    1    3    3    0  501 -0.48384082533E+02 -0.37325588704E+02  0.30444186799E+03  0.31054233592E+03  0.41800000000E+01 0. -1.
</event>
<event>
11    1  0.2450992E-009  0.2595984E+03  0.7561462E-02  0.1018907E+00
         22   -1    0    0    0    0  0.00000000000E+00  0.00000000000E+00  0.29596962152E+04  0.29596962152E+04  0.00000000000E+00 0. -1.
         22   -1    0    0    0    0 -0.00000000000E+00 -0.00000000000E+00 -0.22270230874E+03  0.22270230874E+03  0.00000000000E+00 0.  1.
         25    2    1    2    0    0  0.16569170493E+02 -0.23086135730E+03 -0.11715419184E+03  0.28799989842E+03  0.12508930059E+03 0.  0.
        -24    2    1    2    0    0  0.11730919890E+03  0.12259718625E+03  0.52678467211E+03  0.55933618497E+03  0.81014559318E+02 0.  0.
         24    2    1    2    0    0 -0.13387836939E+03  0.10826417104E+03  0.23273634262E+04  0.23350624405E+04  0.79066649895E+02 0.  0.
        -11    1    5    5    0    0 -0.30263381206E+02  0.11021346550E+02  0.16999152415E+03  0.17301578138E+03  0.00000000000E+00 0.  1.
         12    1    5    5    0    0 -0.10361498818E+03  0.97242824494E+02  0.21573719020E+04  0.21620466592E+04  0.00000000000E+00 0. -1.
         13    1    4    4    0    0  0.88617730523E+02  0.93629983129E+02  0.48123960272E+03  0.49820801994E+03  0.00000000000E+00 0. -1.
        -14    1    4    4    0    0  0.28691468374E+02  0.28967203124E+02  0.45545069390E+02  0.61128165031E+02  0.00000000000E+00 0.  1.
          5    1    3    3  501    0  0.66053567805E+02 -0.14708550845E+03 -0.98049768425E+02  0.18875500021E+03  0.41800000000E+01 0. -1.
         -5    1    3    3    0  501 -0.49484397312E+02 -0.83775848848E+02 -0.19104423418E+02  0.99244898215E+02  0.41800000000E+01 0. -1.
</event>
<event>
11    1  0.2450992E-009  0.1408086E+03  0.7561462E-02  0.1106659E+00
         22   -1    0    0    0    0  0.00000000000E+00  0.00000000000E+00  0.24646380166E+04  0.24646380166E+04  0.00000000000E+00 0. -1.
         22   -1    0    0    0    0 -0.00000000000E+00 -0.00000000000E+00 -0.19040944444E+03  0.19040944444E+03  0.00000000000E+00 0. -1.
         25    2    1    2    0    0 -0.46097862012E+02 -0.86973327177E+01 -0.88816498909E+02  0.16042837896E+03  0.12509291674E+03 0.  0.
        -24    2    1    2    0    0  0.11960829759E+03 -0.22921910403E+02  0.41975751400E+02  0.17032036029E+03  0.11142487422E+03 0.  0.
         24    2    1    2    0    0 -0.73510435579E+02  0.31619243121E+02  0.23210693196E+04  0.23242987217E+04  0.92726483344E+02 0.  0.
        -11    1    5    5    0    0  0.16059820721E+02  0.27334650155E+02  0.47897664312E+03  0.48002471352E+03  0.00000000000E+00 0.  1.
         12    1    5    5    0    0 -0.89570256300E+02  0.42845929659E+01  0.18420926765E+04  0.18442740082E+04  0.00000000000E+00 0. -1.
         11    1    4    4    0    0 -0.19860068446E+02  0.20757374257E+01 -0.57968828658E+01  0.20792663502E+02  0.00000000000E+00 0. -1.
        -12    1    4    4    0    0  0.13946836604E+03 -0.24997647829E+02  0.47772634265E+02  0.14952769679E+03  0.00000000000E+00 0.  1.
          5    1    3    3  501    0 -0.48479134115E+01  0.55543705825E+02 -0.26912290736E+02  0.62051183017E+02  0.41800000000E+01 0. -1.
         -5    1    3    3    0  501 -0.41249948601E+02 -0.64241038542E+02 -0.61904208172E+02  0.98377195945E+02  0.41800000000E+01 0. -1.
</event>
<event>
11    1  0.2450992E-009  0.2512069E+03  0.7561462E-02  0.1023258E+00
         22   -1    0    0    0    0  0.00000000000E+00  0.00000000000E+00  0.44490777979E+03  0.44490777979E+03  0.00000000000E+00 0. -1.
         22   -1    0    0    0    0 -0.00000000000E+00 -0.00000000000E+00 -0.30272296569E+03  0.30272296569E+03  0.00000000000E+00 0. -1.
         25    2    1    2    0    0  0.21317003837E+03 -0.14765989180E+03 -0.36804351267E+02  0.29024140436E+03  0.12506239895E+03 0.  0.
        -24    2    1    2    0    0 -0.20101721920E+03 -0.33576172804E+02  0.75102377798E+02  0.23270597707E+03  0.83524983180E+02 0.  0.
         24    2    1    2    0    0 -0.12152819161E+02  0.18123606460E+03  0.10388678757E+03  0.22468336405E+03  0.81828768321E+02 0.  0.
        -13    1    5    5    0    0 -0.15564833478E+02  0.26514644771E+01  0.24665149516E+02  0.29285899435E+02  0.00000000000E+00 0.  1.
         14    1    5    5    0    0  0.34120143175E+01  0.17858460013E+03  0.79221638052E+02  0.19539746462E+03  0.00000000000E+00 0. -1.
         11    1    4    4    0    0 -0.19452867205E+03 -0.92087943920E+01  0.70231659230E+02  0.20702340955E+03  0.00000000000E+00 0. -1.
        -12    1    4    4    0    0 -0.64885471526E+01 -0.24367378412E+02  0.48707185678E+01  0.25682567515E+02  0.00000000000E+00 0.  1.
          5    1    3    3  501    0  0.18823189187E+03 -0.16489543380E+03 -0.52686923702E+02  0.25576382374E+03  0.41800000000E+01 0. -1.
         -5    1    3    3    0  501  0.24938146495E+02  0.17235541997E+02  0.15882572435E+02  0.34477580624E+02  0.41800000000E+01 0. -1.
</event>
<event>
11    1  0.2450992E-009  0.1255851E+03  0.7561462E-02  0.1124816E+00
         22   -1    0    0    0    0  0.00000000000E+00  0.00000000000E+00  0.26576297487E+03  0.26576297487E+03  0.00000000000E+00 0. -1.
         22   -1    0    0    0    0 -0.00000000000E+00 -0.00000000000E+00 -0.85033455234E+03  0.85033455234E+03  0.00000000000E+00 0.  1.
         25    2    1    2    0    0  0.18061450545E+00 -0.69220250169E+01 -0.49222370648E+03  0.50791946686E+03  0.12510020199E+03 0.  0.
        -24    2    1    2    0    0 -0.71766084498E+01  0.12034008271E+02 -0.33913125821E+03  0.34892362360E+03  0.80878697756E+02 0.  0.
         24    2    1    2    0    0  0.69959939443E+01 -0.51119832537E+01  0.24678338722E+03  0.25925443675E+03  0.78966742741E+02 0.  0.
        -13    1    5    5    0    0  0.19619308203E+02 -0.37622506217E+00  0.98838534498E+01  0.21971557948E+02  0.00000000000E+00 0.  1.
         14    1    5    5    0    0 -0.12623314259E+02 -0.47357581916E+01  0.23689953377E+03  0.23728287880E+03  0.00000000000E+00 0. -1.
         13    1    4    4    0    0 -0.21672561512E+02 -0.77926233842E+01 -0.25613341147E+02  0.34445146921E+02  0.00000000000E+00 0. -1.
        -14    1    4    4    0    0  0.14495953062E+02  0.19826631655E+02 -0.31351791706E+03  0.31447847668E+03  0.00000000000E+00 0.  1.
          5    1    3    3  501    0  0.61685767693E+02  0.43718347118E+01 -0.21918350841E+03  0.22777868565E+03  0.41800000000E+01 0.  1.
         -5    1    3    3    0  501 -0.61505153187E+02 -0.11293859729E+02 -0.27304019807E+03  0.28014078121E+03  0.41800000000E+01 0.  1.
</event>
<event>
11    1  0.2450992E-009  0.1315037E+03  0.7561462E-02  0.1117435E+00
         22   -1    0    0    0    0  0.00000000000E+00  0.00000000000E+00  0.93685582433E+02  0.93685582433E+02  0.00000000000E+00 0. -1.
         22   -1    0    0    0    0 -0.00000000000E+00 -0.00000000000E+00 -0.31374516311E+03  0.31374516311E+03  0.00000000000E+00 0. -1.
         25    2    1    2    0    0 -0.46316824957E+02 -0.22185989726E+02 -0.15771554676E+03  0.20774636273E+03  0.12508753386E+03 0.  0.
        -24    2    1    2    0    0  0.32618281718E+02  0.43490804115E+01 -0.76459958906E+02  0.11620736261E+03  0.81087354166E+02 0.  0.
         24    2    1    2    0    0  0.13698543239E+02  0.17836909314E+02  0.14115924983E+02  0.83477020203E+02  0.79141317547E+02 0.  0.
        -13    1    5    5    0    0  0.11223123241E+02 -0.83973283095E+00 -0.31860698654E+02  0.33790054235E+02  0.00000000000E+00 0.  1.
         14    1    5    5    0    0  0.24754199984E+01  0.18676642145E+02  0.45976623637E+02  0.49686965968E+02  0.00000000000E+00 0. -1.
         11    1    4    4    0    0  0.41599245086E+02 -0.27681027211E+02 -0.62783472360E+02  0.80240269571E+02  0.00000000000E+00 0. -1.
        -12    1    4    4    0    0 -0.89809633681E+01  0.32030107622E+02 -0.13676486546E+02  0.35967093037E+02  0.00000000000E+00 0.  1.
          5    1    3    3  501    0  0.33687463492E+02  0.27311827490E+00 -0.56595031070E+01  0.34415434990E+02  0.41800000000E+01 0.  1.
         -5    1    3    3    0  501 -0.80004288449E+02 -0.22459108000E+02 -0.15205604365E+03  0.17333092774E+03  0.41800000000E+01 0.  1.
</event>
<event>
11    1  0.2450992E-009  0.3725810E+03  0.7561462E-02  0.9734313E-01
         22   -1    0    0    0    0  0.00000000000E+00  0.00000000000E+00  0.19866421880E+04  0.19866421880E+04  0.00000000000E+00 0. -1.
         22   -1    0    0    0    0 -0.00000000000E+00 -0.00000000000E+00 -0.23877686684E+03  0.23877686684E+03  0.00000000000E+00 0.  1.
         25    2    1    2    0    0  0.57056304877E+02  0.40033555092E+03  0.17908407763E+03  0.45961101291E+03  0.12508877274E+03 0.  0.
        -24    2    1    2    0    0 -0.47600971190E+02 -0.30315411525E+03  0.16799827463E+03  0.35923719610E+03  0.81606817936E+02 0.  0.
         24    2    1    2    0    0 -0.94553336867E+01 -0.97181435673E+02  0.14007829689E+04  0.14065708458E+04  0.81945003439E+02 0.  0.
        -13    1    5    5    0    0  0.11353140262E+00  0.14395365190E+02  0.10976691362E+03  0.11070688666E+03  0.00000000000E+00 0.  1.
         14    1    5    5    0    0 -0.95688650894E+01 -0.11157680086E+03  0.12910160553E+04  0.12958639592E+04  0.00000000000E+00 0. -1.
         11    1    4    4    0    0  0.81889026843E+01 -0.87818454524E+02  0.15533373196E+02  0.89556824223E+02  0.00000000000E+00 0. -1.
        -12    1    4    4    0    0 -0.55789873875E+02 -0.21533566073E+03  0.15246490144E+03  0.26968037188E+03  0.00000000000E+00 0.  1.
          5    1    3    3  501    0  0.92524468848E+02  0.34488386726E+03  0.15653853047E+03  0.38990696730E+03  0.41800000000E+01 0.  1.
         -5    1    3    3    0  501 -0.35468163971E+02  0.55451683665E+02  0.22545547156E+02  0.69704045602E+02  0.41800000000E+01 0.  1.
</event>
<event>
11    1  0.2450992E-009  0.1396055E+03  0.7561462E-02  0.1108000E+00
         22   -1    0    0    0    0  0.00000000000E+00  0.00000000000E+00  0.25122833727E+03  0.25122833727E+03  0.00000000000E+00 0. -1.
         22   -1    0    0    0    0 -0.00000000000E+00 -0.00000000000E+00 -0.91282190686E+03  0.91282190686E+03  0.00000000000E+00 0.  1.
         25    2    1    2    0    0 -0.19859782080E+02  0.58306628833E+02 -0.86740672147E+03  0.87854164137E+03  0.12508765430E+03 0.  0.
         24    2    1    2    0    0 -0.36496075419E+02 -0.82618049964E+00  0.72031041438E+02  0.11033268663E+03  0.75181012978E+02 0.  0.
        -24    2    1    2    0    0  0.56355857499E+02 -0.57480448334E+02  0.13378211044E+03  0.17517591614E+03  0.79428986549E+02 0.  0.
        -11    1    4    4    0    0 -0.32675526341E+02  0.15496935015E+02 -0.21738902967E+00  0.36164793301E+02  0.00000000000E+00 0.  1.
         12    1    4    4    0    0 -0.38205490783E+01 -0.16323115515E+02  0.72248430467E+02  0.74167893326E+02  0.00000000000E+00 0. -1.
         13    1    5    5    0    0 -0.51638464118E+01 -0.28402869629E+02  0.89376253365E+02  0.93922856529E+02  0.00000000000E+00 0. -1.
        -14    1    5    5    0    0  0.61519703911E+02 -0.29077578705E+02  0.44405857077E+02  0.81253059606E+02  0.00000000000E+00 0.  1.
          5    1    3    3  501    0 -0.68785007780E+02  0.31691120247E+02 -0.34973202169E+03  0.35786263258E+03  0.41800000000E+01 0.  1.
         -5    1    3    3    0  501  0.48925225700E+02  0.26615508586E+02 -0.51767469978E+03  0.52067900879E+03  0.41800000000E+01 0.  1.
</event>
<event>
11    1  0.2450992E-009  0.1364361E+04  0.7561462E-02  0.8393398E-01
         22   -1    0    0    0    0  0.00000000000E+00  0.00000000000E+00  0.24863965038E+04  0.24863965038E+04  0.00000000000E+00 0.  1.
         22   -1    0    0    0    0 -0.00000000000E+00 -0.00000000000E+00 -0.18716645016E+03  0.18716645016E+03  0.00000000000E+00 0.  1.
         25    2    1    2    0    0  0.95635272291E+01  0.38180277390E+03  0.77630975421E+02  0.40931655672E+03  0.12509458841E+03 0.  0.
         24    2    1    2    0    0  0.51030737396E+02 -0.24764085827E+03  0.15941290839E+04  0.16160153220E+04  0.79547808841E+02 0.  0.
        -24    2    1    2    0    0 -0.60594264625E+02 -0.13416191562E+03  0.62746999438E+03  0.64823107532E+03  0.69381904379E+02 0.  0.
        -13    1    4    4    0    0  0.52743092233E+02 -0.14565895075E+03  0.11461435286E+04  0.11565653254E+04  0.00000000000E+00 0.  1.
         14    1    4    4    0    0 -0.17123548369E+01 -0.10198190752E+03  0.44798555529E+03  0.45944999659E+03  0.00000000000E+00 0. -1.
         13    1    5    5    0    0 -0.24813062899E+01 -0.56347098838E+02  0.34381229633E+03  0.34840787525E+03  0.00000000000E+00 0. -1.
        -14    1    5    5    0    0 -0.58112958336E+02 -0.77814816786E+02  0.28365769805E+03  0.29982320007E+03  0.00000000000E+00 0.  1.
          5    1    3    3  501    0  0.16993040162E+02  0.13412286058E+03 -0.30936574958E+02  0.13875247463E+03  0.41800000000E+01 0.  1.
         -5    1    3    3    0  501 -0.74295129326E+01  0.24767991331E+03  0.10856755038E+03  0.27056408209E+03  0.41800000000E+01 0.  1.
</event>
<event>
11    1  0.2450992E-009  0.2540182E+03  0.7561462E-02  0.1021780E+00
         22   -1    0    0    0    0  0.00000000000E+00  0.00000000000E+00  0.48508024147E+03  0.48508024147E+03  0.00000000000E+00 0. -1.
         22   -1    0    0    0    0 -0.00000000000E+00 -0.00000000000E+00 -0.21207631637E+03  0.21207631637E+03  0.00000000000E+00 0. -1.
         25    2    1    2    0    0 -0.23523648723E+03 -0.57095827258E+02 -0.23023381582E+02  0.27344752246E+03  0.12508930020E+03 0.  0.
         24    2    1    2    0    0  0.18688601753E+03  0.17205608349E+02  0.15816864543E+03  0.25685505575E+03  0.75728348438E+02 0.  0.
        -24    2    1    2    0    0  0.48350469698E+02  0.39890218909E+02  0.13785866125E+03  0.16685397963E+03  0.70044575453E+02 0.  0.
        -13    1    4    4    0    0  0.91416273830E+02 -0.13313524874E+02  0.11555517592E+03  0.14794317742E+03  0.00000000000E+00 0.  1.
         14    1    4    4    0    0  0.95469743704E+02  0.30519133223E+02  0.42613469513E+02  0.10891187832E+03  0.00000000000E+00 0. -1.
         13    1    5    5    0    0  0.14336842894E+02 -0.85532652435E+01  0.87679594324E+02  0.89254773942E+02  0.00000000000E+00 0. -1.
        -14    1    5    5    0    0  0.34013626804E+02  0.48443484152E+02  0.50179066928E+02  0.77599205685E+02  0.00000000000E+00 0.  1.
          5    1    3    3  501    0 -0.10737180460E+03  0.18490285743E+02 -0.53980464104E+02  0.12166329765E+03  0.41800000000E+01 0. -1.
         -5    1    3    3    0  501 -0.12786468263E+03 -0.75586113001E+02  0.30957082522E+02  0.15178422481E+03  0.41800000000E+01 0. -1.
</event>
<event>
11    1  0.2450992E-009  0.4852495E+03  0.7561462E-02  0.9427099E-01
         22   -1    0    0    0    0  0.00000000000E+00  0.00000000000E+00  0.13235583377E+04  0.13235583377E+04  0.00000000000E+00 0.  1.
         22   -1    0    0    0    0 -0.00000000000E+00 -0.00000000000E+00 -0.48899259891E+03  0.48899259891E+03  0.00000000000E+00 0.  1.
         25    2    1    2    0    0 -0.15851516797E+03 -0.42236537016E+03 -0.22337047865E+03  0.51871142136E+03  0.12509038143E+03 0.  0.
        -24    2    1    2    0    0  0.25570488613E+03  0.52070131540E+03  0.81408325825E+03  0.10024201548E+04  0.74831588549E+02 0.  0.
         24    2    1    2    0    0 -0.97189718159E+02 -0.98335945242E+02  0.24385295918E+03  0.29141936049E+03  0.79656628892E+02 0.  0.
        -13    1    5    5    0    0 -0.11850287111E+00 -0.43374036164E+02  0.39808434275E+02  0.58873020098E+02  0.00000000000E+00 0.  1.
         14    1    5    5    0    0 -0.97071215288E+02 -0.54961909078E+02  0.20404452490E+03  0.23254634039E+03  0.00000000000E+00 0. -1.
         11    1    4    4    0    0  0.21642370103E+03  0.36867329614E+03  0.61119596409E+03  0.74586843623E+03  0.00000000000E+00 0. -1.
        -12    1    4    4    0    0  0.39281185103E+02  0.15202801926E+03  0.20288729417E+03  0.25655171853E+03  0.00000000000E+00 0.  1.
          5    1    3    3  501    0 -0.16412635492E+03 -0.42847658814E+03 -0.21849124262E+03  0.50821800683E+03  0.41800000000E+01 0. -1.
         -5    1    3    3    0  501  0.56111869474E+01  0.61112179833E+01 -0.48792360246E+01  0.10493414524E+02  0.41800000000E+01 0. -1.
</event>
<event>
11    1  0.2450992E-009  0.1981861E+03  0.7561462E-02  0.1055814E+00
         22   -1    0    0    0    0  0.00000000000E+00  0.00000000000E+00  0.19576021798E+03  0.19576021798E+03  0.00000000000E+00 0. -1.
         22   -1    0    0    0    0 -0.00000000000E+00 -0.00000000000E+00 -0.31769792288E+03  0.31769792288E+03  0.00000000000E+00 0. -1.
         25    2    1    2    0    0  0.93989898383E+02 -0.92724144973E+02 -0.85683466704E+02  0.20104693596E+03  0.12508535459E+03 0.  0.
         24    2    1    2    0    0 -0.15734839192E+03  0.10911481624E+03 -0.15777327745E+02  0.20845371636E+03  0.80866978613E+02 0.  0.
        -24    2    1    2    0    0  0.63358493542E+02 -0.16390671267E+02 -0.20476910458E+02  0.10395748854E+03  0.78133877115E+02 0.  0.
        -11    1    4    4    0    0  0.41627163234E+01  0.18143692361E+02 -0.13631559760E+02  0.23072520478E+02  0.00000000000E+00 0.  1.
         12    1    4    4    0    0 -0.16151110825E+03  0.90971123879E+02 -0.21457679845E+01  0.18538119588E+03  0.00000000000E+00 0. -1.
         13    1    5    5    0    0  0.40909968090E+02 -0.43173703610E+02 -0.31512311811E+02  0.67309880168E+02  0.00000000000E+00 0. -1.
        -14    1    5    5    0    0  0.22448525451E+02  0.26783032342E+02  0.11035401352E+02  0.36647608372E+02  0.00000000000E+00 0.  1.
          5    1    3    3  501    0  0.12147886094E+03 -0.56777971861E+02 -0.77303274666E+02  0.15483578533E+03  0.41800000000E+01 0. -1.
         -5    1    3    3    0  501 -0.27488962559E+02 -0.35946173112E+02 -0.83801920383E+01  0.46211150630E+02  0.41800000000E+01 0. -1.
</event>
<event>
11    1  0.2450992E-009  0.2804339E+03  0.7561462E-02  0.1008830E+00
         22   -1    0    0    0    0  0.00000000000E+00  0.00000000000E+00  0.95491655274E+03  0.95491655274E+03  0.00000000000E+00 0. -1.
         22   -1    0    0    0    0 -0.00000000000E+00 -0.00000000000E+00 -0.51972902381E+03  0.51972902381E+03  0.00000000000E+00 0. -1.
         25    2    1    2    0    0  0.86703147723E+02  0.12405164641E+03 -0.29036280568E+03  0.35052006109E+03  0.12508999762E+03 0.  0.
         24    2    1    2    0    0 -0.44533037576E+02  0.13090974672E+03 -0.14263156123E+03  0.21411550992E+03  0.79882013665E+02 0.  0.
        -24    2    1    2    0    0 -0.42170110147E+02 -0.25496139313E+03  0.86818189585E+03  0.91001000552E+03  0.87148010339E+02 0.  0.
        -13    1    4    4    0    0 -0.21759085324E+01  0.84311377873E+01 -0.59531691468E+02  0.60165114073E+02  0.00000000000E+00 0.  1.
         14    1    4    4    0    0 -0.42357129043E+02  0.12247860894E+03 -0.83099869765E+02  0.15395039585E+03  0.00000000000E+00 0. -1.
         11    1    5    5    0    0 -0.44789751913E+01 -0.21927441606E+03  0.73669843411E+03  0.76865201072E+03  0.00000000000E+00 0. -1.
        -12    1    5    5    0    0 -0.37691134955E+02 -0.35686977065E+02  0.13148346173E+03  0.14135799481E+03  0.00000000000E+00 0.  1.
          5    1    3    3  501    0  0.53099999712E+00  0.38186694782E+02 -0.18678274209E+03  0.19069287024E+03  0.41800000000E+01 0. -1.
         -5    1    3    3    0  501  0.86172147725E+02  0.85864951623E+02 -0.10358006359E+03  0.15982719085E+03  0.41800000000E+01 0. -1.
</event>
<event>
11    1  0.2450992E-009  0.1356101E+03  0.7561462E-02  0.1112562E+00
         22   -1    0    0    0    0  0.00000000000E+00  0.00000000000E+00  0.56456729641E+03  0.56456729641E+03  0.00000000000E+00 0. -1.
         22   -1    0    0    0    0 -0.00000000000E+00 -0.00000000000E+00 -0.23249591983E+03  0.23249591983E+03  0.00000000000E+00 0. -1.
         25    2    1    2    0    0 -0.34918673433E+02 -0.36064784521E+02 -0.17848723618E+03  0.22366383250E+03  0.12509130286E+03 0.  0.
         24    2    1    2    0    0  0.33975503079E+01 -0.61291849906E+02  0.98387678555E+02  0.14151096019E+03  0.81098596472E+02 0.  0.
        -24    2    1    2    0    0  0.31521123125E+02  0.97356634427E+02  0.41217093420E+03  0.43188842355E+03  0.78554668394E+02 0.  0.
        -13    1    4    4    0    0 -0.11955818266E+02  0.15528710603E+02  0.62489010296E+01  0.20570153317E+02  0.00000000000E+00 0.  1.
         14    1    4    4    0    0  0.15353368573E+02 -0.76820560509E+02  0.92138777526E+02  0.12094080687E+03  0.00000000000E+00 0. -1.
         13    1    5    5    0    0  0.74090685439E+01  0.10378631287E+03  0.33156763398E+03  0.34751055947E+03  0.00000000000E+00 0. -1.
        -14    1    5    5    0    0  0.24112054581E+02 -0.64296784467E+01  0.80603300217E+02  0.84377864081E+02  0.00000000000E+00 0.  1.
          5    1    3    3  501    0  0.42973788068E+02 -0.33114429563E+02 -0.53539699306E+02  0.76336647214E+02  0.41800000000E+01 0.  1.
         -5    1    3    3    0  501 -0.77892461501E+02 -0.29503549586E+01 -0.12494753687E+03  0.14732718528E+03  0.41800000000E+01 0.  1.
</event>
<event>
11    1  0.2450992E-009  0.1949378E+03  0.7561462E-02  0.1058162E+00
         22   -1    0    0    0    0  0.00000000000E+00  0.00000000000E+00  0.69975602115E+03  0.69975602115E+03  0.00000000000E+00 0. -1.
         22   -1    0    0    0    0 -0.00000000000E+00 -0.00000000000E+00 -0.18163448644E+03  0.18163448644E+03  0.00000000000E+00 0. -1.
         25    2    1    2    0    0  0.84179077099E+02 -0.76493000115E+02  0.20690483929E+02  0.17033371251E+03  0.12509269125E+03 0.  0.
         24    2    1    2    0    0 -0.10387831260E+03 -0.11065174355E+03 -0.13581506104E+01  0.17146994974E+03  0.79784628296E+02 0.  0.
        -24    2    1    2    0    0  0.19699235504E+02  0.18714474367E+03  0.49878920139E+03  0.53958684533E+03  0.83379141659E+02 0.  0.
        -13    1    4    4    0    0 -0.37393854757E+02 -0.75054738092E+02 -0.32428099461E+02  0.89906038275E+02  0.00000000000E+00 0.  1.
         14    1    4    4    0    0 -0.66484457846E+02 -0.35597005458E+02  0.31069948850E+02  0.81563911470E+02  0.00000000000E+00 0. -1.
         13    1    5    5    0    0  0.33863535976E+02  0.65534829891E+02  0.27240942686E+03  0.28222056772E+03  0.00000000000E+00 0. -1.
        -14    1    5    5    0    0 -0.14164300472E+02  0.12160991377E+03  0.22637977453E+03  0.25736627761E+03  0.00000000000E+00 0.  1.
          5    1    3    3  501    0 -0.16173715711E+02 -0.18856781819E+02 -0.33960034597E+02  0.42283846210E+02  0.41800000000E+01 0. -1.
         -5    1    3    3    0  501  0.10035279281E+03 -0.57636218296E+02  0.54650518526E+02  0.12804986630E+03  0.41800000000E+01 0. -1.
</event>
<event>
11    1  0.2450992E-009  0.4209692E+03  0.7561462E-02  0.9589836E-01
         22   -1    0    0    0    0  0.00000000000E+00  0.00000000000E+00  0.20021980361E+03  0.20021980361E+03  0.00000000000E+00 0.  1.
         22   -1    0    0    0    0 -0.00000000000E+00 -0.00000000000E+00 -0.22982132260E+04  0.22982132260E+04  0.00000000000E+00 0.  1.
         25    2    1    2    0    0  0.39058709750E+03  0.18462515006E+03 -0.18040215939E+04  0.18592433467E+04  0.12508870469E+03 0.  0.
        -24    2    1    2    0    0 -0.33317240016E+03 -0.71191728345E+01 -0.26328668074E+03  0.43229002153E+03  0.80624162703E+02 0.  0.
         24    2    1    2    0    0 -0.57414697344E+02 -0.17750597722E+03 -0.30685147707E+02  0.20689966139E+03  0.84030186071E+02 0.  0.
        -13    1    5    5    0    0 -0.42558074881E+02 -0.84928712273E+02  0.24499408735E+02  0.98103501132E+02  0.00000000000E+00 0.  1.
         14    1    5    5    0    0 -0.14856622464E+02 -0.92577264948E+02 -0.55184556442E+02  0.10879616025E+03  0.00000000000E+00 0. -1.
         11    1    4    4    0    0 -0.20707873545E+03  0.28579490231E+02 -0.18805408580E+03  0.28118095441E+03  0.00000000000E+00 0. -1.
        -12    1    4    4    0    0 -0.12609366471E+03 -0.35698663066E+02 -0.75232594934E+02  0.15110906712E+03  0.00000000000E+00 0.  1.
          5    1    3    3  501    0  0.37100800945E+03  0.15281724529E+03 -0.14939200437E+04  0.15468725297E+04  0.41800000000E+01 0.  1.
         -5    1    3    3    0  501  0.19579088051E+02  0.31807904764E+02 -0.31010155018E+03  0.31237081700E+03  0.41800000000E+01 0.  1.
</event>
<event>
11    1  0.2450992E-009  0.2018210E+03  0.7561462E-02  0.1053243E+00
         22   -1    0    0    0    0  0.00000000000E+00  0.00000000000E+00  0.19539494839E+04  0.19539494839E+04  0.00000000000E+00 0. -1.
         22   -1    0    0    0    0 -0.00000000000E+00 -0.00000000000E+00 -0.75220362843E+03  0.75220362843E+03  0.00000000000E+00 0. -1.
         25    2    1    2    0    0  0.13794917477E+03 -0.59906953579E+02 -0.70276896607E+03  0.72948590434E+03  0.12508655825E+03 0.  0.
         24    2    1    2    0    0  0.19899041247E+02  0.45828075007E+02  0.37074771235E+02  0.10077036894E+03  0.79271333357E+02 0.  0.
        -24    2    1    2    0    0 -0.15784821602E+03  0.14078878571E+02  0.18674400503E+04  0.18758968390E+04  0.80884703167E+02 0.  0.
        -11    1    4    4    0    0  0.78495293353E+01 -0.56211837393E+01 -0.20477394603E+02  0.22639269139E+02  0.00000000000E+00 0.  1.
         12    1    4    4    0    0  0.12049511911E+02  0.51449258747E+02  0.57552165839E+02  0.78131099798E+02  0.00000000000E+00 0. -1.
         11    1    5    5    0    0 -0.64340103566E+02 -0.27727063408E+02  0.99525900882E+03  0.99772187187E+03  0.00000000000E+00 0. -1.
        -12    1    5    5    0    0 -0.93508112455E+02  0.41805941979E+02  0.87218104145E+03  0.87817496716E+03  0.00000000000E+00 0.  1.
          5    1    3    3  501    0  0.39733248614E+02 -0.19915468531E+02 -0.45640623280E+02  0.63842742936E+02  0.41800000000E+01 0.  1.
         -5    1    3    3    0  501  0.98215926160E+02 -0.39991485048E+02 -0.65712834279E+03  0.66564316140E+03  0.41800000000E+01 0.  1.
</event>
<event>
11    1  0.2450992E-009  0.1654534E+03  0.7561462E-02  0.1082057E+00
         22   -1    0    0    0    0  0.00000000000E+00  0.00000000000E+00  0.22633362475E+04  0.22633362475E+04  0.00000000000E+00 0.  1.
         22   -1    0    0    0    0 -0.00000000000E+00 -0.00000000000E+00 -0.37711758510E+03  0.37711758510E+03  0.00000000000E+00 0.  1.
         25    2    1    2    0    0  0.12337696977E+03 -0.49480317018E+02 -0.20950759415E+03  0.27786852860E+03  0.12508920311E+03 0.  0.
        -24    2    1    2    0    0 -0.86028900785E+02  0.23259315147E+02 -0.10547294700E+03  0.15960628650E+03  0.80047839636E+02 0.  0.
         24    2    1    2    0    0 -0.37348068987E+02  0.26221001871E+02  0.22011992035E+04  0.22029790175E+04  0.75869615981E+02 0.  0.
        -13    1    5    5    0    0  0.57449069670E+01  0.42117635749E+02  0.10066333499E+04  0.10075304464E+04  0.00000000000E+00 0.  1.
         14    1    5    5    0    0 -0.43092975954E+02 -0.15896633878E+02  0.11945658536E+04  0.11954485711E+04  0.00000000000E+00 0. -1.
         13    1    4    4    0    0 -0.12504917183E+02 -0.20160157536E+02 -0.56247545717E+02  0.61045813164E+02  0.00000000000E+00 0. -1.
        -14    1    4    4    0    0 -0.73523983602E+02  0.43419472683E+02 -0.49225401281E+02  0.98560473335E+02  0.00000000000E+00 0.  1.
          5    1    3    3  501    0  0.13416017938E+03 -0.70575463524E+02 -0.20215399088E+03  0.25271240217E+03  0.41800000000E+01 0.  1.
         -5    1    3    3    0  501 -0.10783209606E+02  0.21095146506E+02 -0.73536032695E+01  0.25156126422E+02  0.41800000000E+01 0.  1.
</event>
<event>
11    1  0.2450992E-009  0.4006441E+03  0.7561462E-02  0.9647859E-01
         22   -1    0    0    0    0  0.00000000000E+00  0.00000000000E+00  0.67859546124E+03  0.67859546124E+03  0.00000000000E+00 0. -1.
         22   -1    0    0    0    0 -0.00000000000E+00 -0.00000000000E+00 -0.59135256244E+02  0.59135256244E+02  0.00000000000E+00 0.  1.
         25    2    1    2    0    0 -0.12139617101E+03  0.34515951046E+02  0.18759350436E+03  0.25839148149E+03  0.12508578503E+03 0.  0.
        -24    2    1    2    0    0  0.68767076203E+02 -0.11886885908E+02  0.18199911081E+03  0.21074362269E+03  0.80118595487E+02 0.  0.
         24    2    1    2    0    0  0.52629094802E+02 -0.22629065138E+02  0.24986758983E+03  0.26859561330E+03  0.80174153132E+02 0.  0.
        -13    1    5    5    0    0  0.39169349736E+02 -0.30953352842E+01  0.35605213558E+02  0.53024053898E+02  0.00000000000E+00 0.  1.
         14    1    5    5    0    0  0.13459745066E+02 -0.19533729854E+02  0.21426237627E+03  0.21557155941E+03  0.00000000000E+00 0. -1.
         13    1    4    4    0    0  0.13889151786E+02 -0.14478362298E+02  0.14041526413E+03  0.14184138294E+03  0.00000000000E+00 0. -1.
        -14    1    4    4    0    0  0.54877924417E+02  0.25914763892E+01  0.41583846672E+02  0.68902239748E+02  0.00000000000E+00 0.  1.
          5    1    3    3  501    0 -0.63478838418E+02  0.37842900754E+02  0.14026518621E+02  0.75338328154E+02  0.41800000000E+01 0. -1.
         -5    1    3    3    0  501 -0.57917332587E+02 -0.33269497082E+01  0.17356698574E+03  0.18305315334E+03  0.41800000000E+01 0. -1.
</event>
<event>
11    1  0.2450992E-009  0.1543391E+03  0.7561462E-02  0.1092526E+00
         22   -1    0    0    0    0  0.00000000000E+00  0.00000000000E+00  0.38996153180E+03  0.38996153180E+03  0.00000000000E+00 0. -1.
         22   -1    0    0    0    0 -0.00000000000E+00 -0.00000000000E+00 -0.32212437101E+03  0.32212437101E+03  0.00000000000E+00 0. -1.
         25    2    1    2    0    0  0.33420155718E+02  0.96426742596E+02 -0.21938556526E+03  0.27238509421E+03  0.12509432365E+03 0.  0.
        -24    2    1    2    0    0  0.36688833122E+01 -0.14521264061E+02 -0.40266675528E+02  0.90909530321E+02  0.80117474563E+02 0.  0.
         24    2    1    2    0    0 -0.37089039030E+02 -0.81905478535E+02  0.32748940157E+03  0.34879127828E+03  0.79510649789E+02 0.  0.
        -13    1    5    5    0    0 -0.27488218963E+02 -0.34228292613E+02  0.47780382610E+02  0.64885615966E+02  0.00000000000E+00 0.  1.
         14    1    5    5    0    0 -0.96008200672E+01 -0.47677185922E+02  0.27970901896E+03  0.28390566231E+03  0.00000000000E+00 0. -1.
         11    1    4    4    0    0  0.52209921467E+01 -0.47705310002E+02 -0.27568173893E+02  0.55344914610E+02  0.00000000000E+00 0. -1.
        -12    1    4    4    0    0 -0.15521088345E+01  0.33184045941E+02 -0.12698501634E+02  0.35564615711E+02  0.00000000000E+00 0.  1.
          5    1    3    3  501    0  0.56793137599E+02  0.97257818788E+02 -0.10004233210E+03  0.15069998144E+03  0.41800000000E+01 0. -1.
         -5    1    3    3    0  501 -0.23372981881E+02 -0.83107619204E+00 -0.11934323316E+03  0.12168511278E+03  0.41800000000E+01 0. -1.
</event>
<event>
11    1  0.2450992E-009  0.5916711E+03  0.7561462E-02  0.9209195E-01
         22   -1    0    0    0    0  0.00000000000E+00  0.00000000000E+00  0.25597068625E+03  0.25597068625E+03  0.00000000000E+00 0. -1.
         22   -1    0    0    0    0 -0.00000000000E+00 -0.00000000000E+00 -0.29778927069E+04  0.29778927069E+04  0.00000000000E+00 0. -1.
         25    2    1    2    0    0 -0.53613728380E+03 -0.31887154963E+03 -0.21671796432E+04  0.22586373196E+04  0.12511068595E+03 0.  0.
         24    2    1    2    0    0  0.45815345193E+03  0.18447569530E+03 -0.61240223712E+03  0.79035721591E+03  0.75446411710E+02 0.  0.
        -24    2    1    2    0    0  0.77983831870E+02  0.13439585433E+03  0.57659859595E+02  0.18486885764E+03  0.81903061123E+02 0.  0.
        -11    1    4    4    0    0  0.66848652750E+02  0.31262682013E+02 -0.13877966649E+03  0.15718108504E+03  0.00000000000E+00 0.  1.
         12    1    4    4    0    0  0.39130479918E+03  0.15321301328E+03 -0.47362257063E+03  0.63317613087E+03  0.00000000000E+00 0. -1.
         11    1    5    5    0    0  0.35403622926E+02  0.70230643743E+02 -0.13755153790E+02  0.79843372253E+02  0.00000000000E+00 0. -1.
        -12    1    5    5    0    0  0.42580208944E+02  0.64165210587E+02  0.71415013386E+02  0.10502548538E+03  0.00000000000E+00 0.  1.
          5    1    3    3  501    0 -0.37850325269E+03 -0.28753262063E+03 -0.16363636089E+04  0.17040079381E+04  0.41800000000E+01 0. -1.
         -5    1    3    3    0  501 -0.15763403110E+03 -0.31338929001E+02 -0.53081603424E+03  0.55462938151E+03  0.41800000000E+01 0. -1.
</event>
<event>
11    1  0.2450992E-009  0.8345805E+03  0.7561462E-02  0.8854540E-01
         22   -1    0    0    0    0  0.00000000000E+00  0.00000000000E+00  0.95962149598E+03  0.95962149598E+03  0.00000000000E+00 0.  1.
         22   -1    0    0    0    0 -0.00000000000E+00 -0.00000000000E+00 -0.17373068994E+04  0.17373068994E+04  0.00000000000E+00 0.  1.
         25    2    1    2    0    0 -0.62643228608E+03 -0.53749110536E+03 -0.10002135870E+04  0.13028396089E+04  0.12509887876E+03 0.  0.
         24    2    1    2    0    0  0.81310725263E+03  0.29213509213E+03 -0.17515479477E+03  0.88514087668E+03  0.79428289049E+02 0.  0.
        -24    2    1    2    0    0 -0.18667496655E+03  0.24535601323E+03  0.39768297835E+03  0.50894790982E+03  0.76348590532E+02 0.  0.
        -13    1    4    4    0    0  0.87464027145E+02  0.23963614325E+02 -0.42836958228E+02  0.10029564221E+03  0.00000000000E+00 0.  1.
         14    1    4    4    0    0  0.72564322549E+03  0.26817147780E+03 -0.13231783654E+03  0.78484523447E+03  0.00000000000E+00 0. -1.
         13    1    5    5    0    0 -0.13239137287E+03  0.17994808403E+03  0.22822624907E+03  0.31936814074E+03  0.00000000000E+00 0. -1.
        -14    1    5    5    0    0 -0.54283593685E+02  0.65407929199E+02  0.16945672929E+03  0.18957976909E+03  0.00000000000E+00 0.  1.
          5    1    3    3  501    0 -0.25884488898E+03 -0.20673488951E+03 -0.49715232328E+03  0.59742605905E+03  0.41800000000E+01 0. -1.
         -5    1    3    3    0  501 -0.36758739710E+03 -0.33075621585E+03 -0.50306126375E+03  0.70541354985E+03  0.41800000000E+01 0. -1.
</event>
<event>
11    1  0.2450992E-009  0.3026864E+03  0.7561462E-02  0.9990606E-01
         22   -1    0    0    0    0  0.00000000000E+00  0.00000000000E+00  0.10456086065E+03  0.10456086065E+03  0.00000000000E+00 0.  1.
         22   -1    0    0    0    0 -0.00000000000E+00 -0.00000000000E+00 -0.13692210731E+04  0.13692210731E+04  0.00000000000E+00 0. -1.
         25    2    1    2    0    0 -0.24255766945E+03  0.13713555851E+03 -0.68176766710E+03  0.74705750181E+03  0.12508946674E+03 0.  0.
        -24    2    1    2    0    0  0.28287142075E+03 -0.32120054564E+02 -0.40904432822E+03  0.50479469187E+03  0.80327329723E+02 0.  0.
         24    2    1    2    0    0 -0.40313751308E+02 -0.10501550395E+03 -0.17384821717E+03  0.22192974011E+03  0.79850812890E+02 0.  0.
        -11    1    5    5    0    0  0.18743733998E+02 -0.18030764281E+02 -0.11333373158E+02  0.28370431296E+02  0.00000000000E+00 0.  1.
         12    1    5    5    0    0 -0.59057485306E+02 -0.86984739668E+02 -0.16251484401E+03  0.19355930881E+03  0.00000000000E+00 0. -1.
         13    1    4    4    0    0  0.21342494871E+03  0.89019674957E+01 -0.31892226924E+03  0.38385005871E+03  0.00000000000E+00 0. -1.
        -14    1    4    4    0    0  0.69446472048E+02 -0.41022022059E+02 -0.90122058988E+02  0.12094463316E+03  0.00000000000E+00 0.  1.
          5    1    3    3  501    0 -0.78665179588E+02  0.51126955606E+01 -0.30940283536E+03  0.31931479306E+03  0.41800000000E+01 0. -1.
         -5    1    3    3    0  501 -0.16389248986E+03  0.13202286295E+03 -0.37236483174E+03  0.42774270875E+03  0.41800000000E+01 0. -1.
</event>
<event>
11    1  0.2450992E-009  0.3603830E+03  0.7561462E-02  0.9774472E-01
         22   -1    0    0    0    0  0.00000000000E+00  0.00000000000E+00  0.77730714636E+03  0.77730714636E+03  0.00000000000E+00 0.  1.
         22   -1    0    0    0    0 -0.00000000000E+00 -0.00000000000E+00 -0.94160023550E+03  0.94160023550E+03  0.00000000000E+00 0. -1.
         25    2    1    2    0    0 -0.33147277955E+03  0.23185729487E+03 -0.65887031933E+03  0.78319286897E+03  0.12509581748E+03 0.  0.
         24    2    1    2    0    0  0.23363733300E+03  0.92673675397E+02 -0.69845220401E+02  0.27266480152E+03  0.79327962861E+02 0.  0.
        -24    2    1    2    0    0  0.97835446552E+02 -0.32453097027E+03  0.56442245060E+03  0.66304971137E+03  0.78549931516E+02 0.  0.
        -13    1    4    4    0    0  0.11084233079E+03  0.80482236443E+02 -0.57815789938E+02  0.14868112941E+03  0.00000000000E+00 0.  1.
         14    1    4    4    0    0  0.12279500221E+03  0.12191438954E+02 -0.12029430464E+02  0.12398367210E+03  0.00000000000E+00 0. -1.
         13    1    5    5    0    0 -0.25580960816E+01 -0.55457001885E+02  0.54395552702E+02  0.77723220902E+02  0.00000000000E+00 0. -1.
        -14    1    5    5    0    0  0.10039354263E+03 -0.26907396839E+03  0.51002689790E+03  0.58532649047E+03  0.00000000000E+00 0.  1.
          5    1    3    3  501    0 -0.17318749871E+03  0.16278424563E+03 -0.47339499684E+03  0.52972909659E+03  0.41800000000E+01 0.  1.
         -5    1    3    3    0  501 -0.15828528084E+03  0.69073049243E+02 -0.18547532249E+03  0.25346377239E+03  0.41800000000E+01 0.  1.
</event>
<event>
11    1  0.2450992E-009  0.4594019E+03  0.7561462E-02  0.9489115E-01
         22   -1    0    0    0    0  0.00000000000E+00  0.00000000000E+00  0.97386242927E+03  0.97386242927E+03  0.00000000000E+00 0.  1.
         22   -1    0    0    0    0 -0.00000000000E+00 -0.00000000000E+00 -0.14634673034E+04  0.14634673034E+04  0.00000000000E+00 0. -1.
         25    2    1    2    0    0 -0.44961007303E+03  0.21239319649E+01 -0.13140018053E+04  0.13944179726E+04  0.12508800569E+03 0.  0.
        -24    2    1    2    0    0  0.15910856116E+03  0.99479537748E+02  0.56574539167E+02  0.21192293875E+03  0.80616008472E+02 0.  0.
         24    2    1    2    0    0  0.29050151188E+03 -0.10160346971E+03  0.76782239199E+03  0.83098882130E+03  0.79226271058E+02 0.  0.
        -13    1    5    5    0    0  0.21827857066E+03 -0.38422075262E+02  0.52216402096E+03  0.56725395993E+03  0.00000000000E+00 0.  1.
         14    1    5    5    0    0  0.72222941218E+02 -0.63181394451E+02  0.24565837104E+03  0.26373486137E+03  0.00000000000E+00 0. -1.
         13    1    4    4    0    0  0.13871269839E+03  0.11333488581E+03  0.45039573370E+02  0.18470130537E+03  0.00000000000E+00 0. -1.
        -14    1    4    4    0    0  0.20395862767E+02 -0.13855348061E+02  0.11534965797E+02  0.27221633379E+02  0.00000000000E+00 0.  1.
          5    1    3    3  501    0 -0.72169699248E+02  0.28916727050E+02 -0.35540417253E+03  0.36383270997E+03  0.41800000000E+01 0. -1.
         -5    1    3    3    0  501 -0.37744037379E+03 -0.26792795085E+02 -0.95859763275E+03  0.10305852626E+04  0.41800000000E+01 0. -1.
</event>
<event>
11    1  0.2450992E-009  0.1608556E+03  0.7561462E-02  0.1086275E+00
         22   -1    0    0    0    0  0.00000000000E+00  0.00000000000E+00  0.17712603886E+04  0.17712603886E+04  0.00000000000E+00 0. -1.
         22   -1    0    0    0    0 -0.00000000000E+00 -0.00000000000E+00 -0.64237797372E+02  0.64237797372E+02  0.00000000000E+00 0. -1.
         25    2    1    2    0    0  0.16663818292E+01  0.11535998491E+03  0.80190793146E+02  0.18812304928E+03  0.12509602478E+03 0.  0.
        -24    2    1    2    0    0 -0.18886309453E+02 -0.66394469462E+02  0.31142757976E+03  0.32855805556E+03  0.78729538146E+02 0.  0.
         24    2    1    2    0    0  0.17219927624E+02 -0.48965515453E+02  0.13154042183E+04  0.13188170811E+04  0.79347894164E+02 0.  0.
        -13    1    5    5    0    0 -0.22268997591E+02  0.61576863406E+01  0.52553176117E+03  0.52603940665E+03  0.00000000000E+00 0.  1.
         14    1    5    5    0    0  0.39488925215E+02 -0.55123201793E+02  0.78987245711E+03  0.79277767444E+03  0.00000000000E+00 0. -1.
         13    1    4    4    0    0  0.41758632686E+00 -0.80526269437E+02  0.24931650093E+03  0.26199880169E+03  0.00000000000E+00 0. -1.
        -14    1    4    4    0    0 -0.19303895780E+02  0.14131799975E+02  0.62111078825E+02  0.66559253869E+02  0.00000000000E+00 0.  1.
          5    1    3    3  501    0  0.58000580939E+02  0.43739665462E+02  0.60904632003E+02  0.94889790407E+02  0.41800000000E+01 0. -1.
         -5    1    3    3    0  501 -0.56334199110E+02  0.71620319453E+02  0.19286161142E+02  0.93233258870E+02  0.41800000000E+01 0. -1.
</event>
<event>
11    1  0.2450992E-009  0.7922058E+03  0.7561462E-02  0.8906469E-01
         22   -1    0    0    0    0  0.00000000000E+00  0.00000000000E+00  0.10609101536E+04  0.10609101536E+04  0.00000000000E+00 0. -1.
         22   -1    0    0    0    0 -0.00000000000E+00 -0.00000000000E+00 -0.14788953658E+03  0.14788953658E+03  0.00000000000E+00 0.  1.
         25    2    1    2    0    0 -0.96340535344E+02  0.20441702180E+03  0.11120563402E+02  0.25853335169E+03  0.12509200397E+03 0.  0.
         24    2    1    2    0    0  0.41383438105E+02 -0.10797378500E+03  0.28003904034E+03  0.31381980139E+03  0.81792887397E+02 0.  0.
        -24    2    1    2    0    0  0.54957097239E+02 -0.96443236794E+02  0.62186101332E+03  0.63644653716E+03  0.77662695741E+02 0.  0.
        -13    1    4    4    0    0 -0.13359695328E+02 -0.74006945319E+01  0.94975719843E+02  0.96195837221E+02  0.00000000000E+00 0.  1.
         14    1    4    4    0    0  0.54743133433E+02 -0.10057309047E+03  0.18506332050E+03  0.21762396417E+03  0.00000000000E+00 0. -1.
         13    1    5    5    0    0  0.71020268384E+02 -0.80653271749E+02  0.56780856964E+03  0.57788874407E+03  0.00000000000E+00 0. -1.
        -14    1    5    5    0    0 -0.16063171145E+02 -0.15789965046E+02  0.54052443677E+02  0.58557793084E+02  0.00000000000E+00 0.  1.
          5    1    3    3  501    0 -0.93302908157E+02  0.54245250583E+02  0.28170060403E+01  0.10804345332E+03  0.41800000000E+01 0.  1.
         -5    1    3    3    0  501 -0.30376271865E+01  0.15017177121E+03  0.83035573613E+01  0.15048989838E+03  0.41800000000E+01 0.  1.
</event>
<event>
11    1  0.2450992E-009  0.8307937E+03  0.7561462E-02  0.8859048E-01
         22   -1    0    0    0    0  0.00000000000E+00  0.00000000000E+00  0.35761271521E+03  0.35761271521E+03  0.00000000000E+00 0.  1.
         22   -1    0    0    0    0 -0.00000000000E+00 -0.00000000000E+00 -0.25803451177E+04  0.25803451177E+04  0.00000000000E+00 0.  1.
         25    2    1    2    0    0 -0.20949243357E+03 -0.78048935572E+03 -0.16159893666E+04  0.18111098759E+04  0.12508651170E+03 0.  0.
        -24    2    1    2    0    0  0.24852403507E+03  0.81600038548E+03 -0.56005298324E+03  0.10232680713E+04  0.76140505066E+02 0.  0.
         24    2    1    2    0    0 -0.39031601501E+02 -0.35511029759E+02 -0.46690052607E+02  0.10357988573E+03  0.75923201763E+02 0.  0.
        -11    1    5    5    0    0  0.80639430491E+01  0.17495480867E+02 -0.20129278052E+02  0.27862283883E+02  0.00000000000E+00 0.  1.
         12    1    5    5    0    0 -0.47095544550E+02 -0.53006510626E+02 -0.26560774555E+02  0.75717601851E+02  0.00000000000E+00 0. -1.
         13    1    4    4    0    0  0.14104267937E+03  0.33413997398E+03 -0.23942598407E+03  0.43458872680E+03  0.00000000000E+00 0. -1.
        -14    1    4    4    0    0  0.10748135570E+03  0.48186041150E+03 -0.32062699916E+03  0.58867934445E+03  0.00000000000E+00 0.  1.
          5    1    3    3  501    0  0.16687730434E+02 -0.70608032336E+02 -0.14630252586E+03  0.16335812208E+03  0.41800000000E+01 0.  1.
         -5    1    3    3    0  501 -0.22618016401E+03 -0.70988132338E+03 -0.14696868408E+04  0.16477517538E+04  0.41800000000E+01 0.  1.
</event>
<event>
11    1  0.2450992E-009  0.7481293E+03  0.7561462E-02  0.8964238E-01
         22   -1    0    0    0    0  0.00000000000E+00  0.00000000000E+00  0.15118907083E+04  0.15118907083E+04  0.00000000000E+00 0. -1.
         22   -1    0    0    0    0 -0.00000000000E+00 -0.00000000000E+00 -0.52720583934E+03  0.52720583934E+03  0.00000000000E+00 0. -1.
         25    2    1    2    0    0  0.74771618204E+03 -0.20170256734E+03  0.24010998980E+03  0.82040727005E+03  0.12510742181E+03 0.  0.
        -24    2    1    2    0    0 -0.70813906082E+03 -0.33367298185E+02  0.52186496465E+03  0.88399342963E+03  0.80790075154E+02 0.  0.
         24    2    1    2    0    0 -0.39577121219E+02  0.23506986553E+03  0.22270991449E+03  0.33469584793E+03  0.74815870025E+02 0.  0.
        -11    1    5    5    0    0 -0.38703855497E+02  0.78730321600E+02  0.47092951239E+02  0.99570065913E+02  0.00000000000E+00 0.  1.
         12    1    5    5    0    0 -0.87326572192E+00  0.15633954393E+03  0.17561696325E+03  0.23512578202E+03  0.00000000000E+00 0. -1.
         13    1    4    4    0    0 -0.60091416296E+03 -0.49473629827E+02  0.41658836604E+03  0.73286515677E+03  0.00000000000E+00 0. -1.
        -14    1    4    4    0    0 -0.10722489787E+03  0.16106331642E+02  0.10527659861E+03  0.15112827286E+03  0.00000000000E+00 0.  1.
          5    1    3    3  501    0  0.53199420731E+02  0.14935981376E+02  0.30635983917E+02  0.63319016230E+02  0.41800000000E+01 0.  1.
         -5    1    3    3    0  501  0.69451676131E+03 -0.21663854872E+03  0.20947400588E+03  0.75708825382E+03  0.41800000000E+01 0.  1.
</event>
<event>
11    1  0.2450992E-009  0.1476796E+03  0.7561462E-02  0.1099274E+00
         22   -1    0    0    0    0  0.00000000000E+00  0.00000000000E+00  0.11257885998E+03  0.11257885998E+03  0.00000000000E+00 0.  1.
         22   -1    0    0    0    0 -0.00000000000E+00 -0.00000000000E+00 -0.71475329923E+03  0.71475329923E+03  0.00000000000E+00 0.  1.
         25    2    1    2    0    0 -0.55483321931E+02  0.89222487116E+02 -0.45852305518E+03  0.48675403329E+03  0.12508815121E+03 0.  0.
         24    2    1    2    0    0  0.48949981224E+02 -0.12233169310E+02 -0.19498912101E+03  0.21692051885E+03  0.80548141469E+02 0.  0.
        -24    2    1    2    0    0  0.65333407073E+01 -0.76989317806E+02  0.51337736931E+02  0.12365760708E+03  0.81765524268E+02 0.  0.
        -13    1    4    4    0    0  0.15947737990E+02 -0.45482954196E+02 -0.98474761475E+02  0.10963716577E+03  0.00000000000E+00 0.  1.
         14    1    4    4    0    0  0.33002243234E+02  0.33249784886E+02 -0.96514359530E+02  0.10728335308E+03  0.00000000000E+00 0. -1.
         13    1    5    5    0    0  0.16768611543E+02 -0.73775814671E+02  0.47015515441E+01  0.75803441547E+02  0.00000000000E+00 0. -1.
        -14    1    5    5    0    0 -0.10235270836E+02 -0.32135031342E+01  0.46636185387E+02  0.47854165533E+02  0.00000000000E+00 0.  1.
          5    1    3    3  501    0 -0.21898773367E+02  0.63861322310E+02 -0.75360284157E+02  0.10126435498E+03  0.41800000000E+01 0.  1.
         -5    1    3    3    0  501 -0.33584548564E+02  0.25361164806E+02 -0.38316277102E+03  0.38548967830E+03  0.41800000000E+01 0.  1.
</event>
<event>
11    1  0.2450992E-009  0.7649594E+03  0.7561462E-02  0.8941697E-01
         22   -1    0    0    0    0  0.00000000000E+00  0.00000000000E+00  0.57421056472E+03  0.57421056472E+03  0.00000000000E+00 0. -1.
         22   -1    0    0    0    0 -0.00000000000E+00 -0.00000000000E+00 -0.20415341265E+04  0.20415341265E+04  0.00000000000E+00 0. -1.
         25    2    1    2    0    0  0.34735465807E+03 -0.62372334909E+03 -0.81002764336E+03  0.10869583709E+04  0.12509053642E+03 0.  0.
        -24    2    1    2    0    0 -0.52758682539E+03  0.61298449151E+03 -0.90393999587E+03  0.12155546651E+04  0.79798386151E+02 0.  0.
         24    2    1    2    0    0  0.18023216732E+03  0.10738857583E+02  0.24664407749E+03  0.31323165527E+03  0.68423765613E+02 0.  0.
        -13    1    5    5    0    0  0.22658025910E+02  0.23598172032E+02  0.25973674773E+02  0.41771900156E+02  0.00000000000E+00 0.  1.
         14    1    5    5    0    0  0.15757414141E+03 -0.12859314449E+02  0.22067040272E+03  0.27145975511E+03  0.00000000000E+00 0. -1.
         13    1    4    4    0    0 -0.38739033308E+03  0.41021088082E+03 -0.58950064754E+03  0.81599954066E+03  0.00000000000E+00 0. -1.
        -14    1    4    4    0    0 -0.14019649232E+03  0.20277361069E+03 -0.31443934833E+03  0.39955512439E+03  0.00000000000E+00 0.  1.
          5    1    3    3  501    0  0.27331535813E+03 -0.53989214575E+03 -0.61968371932E+03  0.86614675339E+03  0.41800000000E+01 0.  1.
         -5    1    3    3    0  501  0.74039299943E+02 -0.83831203341E+02 -0.19034392404E+03  0.22081161747E+03  0.41800000000E+01 0.  1.
</event>
<event>
11    1  0.2450992E-009  0.3061296E+03  0.7561462E-02  0.9976299E-01
         22   -1    0    0    0    0  0.00000000000E+00  0.00000000000E+00  0.27800992536E+04  0.27800992536E+04  0.00000000000E+00 0. -1.
         22   -1    0    0    0    0 -0.00000000000E+00 -0.00000000000E+00 -0.19254169424E+03  0.19254169424E+03  0.00000000000E+00 0.  1.
         25    2    1    2    0    0  0.21533289812E+03  0.37657665722E+02 -0.17419886750E+01  0.25186655540E+03  0.12508944962E+03 0.  0.
         24    2    1    2    0    0 -0.37256953809E+03 -0.25284952040E+03  0.90999552068E+03  0.10185422736E+04  0.81213144143E+02 0.  0.
        -24    2    1    2    0    0  0.15723663997E+03  0.21519185468E+03  0.16793040274E+04  0.17022321188E+04  0.80630483220E+02 0.  0.
        -13    1    4    4    0    0 -0.13064437783E+03 -0.72984778486E+02  0.22593035212E+03  0.27099678109E+03  0.00000000000E+00 0.  1.
         14    1    4    4    0    0 -0.24192516027E+03 -0.17986474191E+03  0.68406516856E+03  0.74754549252E+03  0.00000000000E+00 0. -1.
         11    1    5    5    0    0  0.97336938061E+02  0.18996403623E+03  0.12857210226E+04  0.13033185959E+04  0.00000000000E+00 0. -1.
        -12    1    5    5    0    0  0.59899701913E+02  0.25227818443E+02  0.39358300480E+03  0.39891352293E+03  0.00000000000E+00 0.  1.
          5    1    3    3  501    0  0.11778425720E+03  0.75742642438E+02  0.28119185421E+02  0.14289240748E+03  0.41800000000E+01 0. -1.
         -5    1    3    3    0  501  0.97548640919E+02 -0.38084976716E+02 -0.29861174096E+02  0.10897414792E+03  0.41800000000E+01 0. -1.
</event>
<event>
11    1  0.2450992E-009  0.1596486E+03  0.7561462E-02  0.1087408E+00
         22   -1    0    0    0    0  0.00000000000E+00  0.00000000000E+00  0.29430652747E+03  0.29430652747E+03  0.00000000000E+00 0. -1.
         22   -1    0    0    0    0 -0.00000000000E+00 -0.00000000000E+00 -0.57663920368E+03  0.57663920368E+03  0.00000000000E+00 0. -1.
         25    2    1    2    0    0  0.66005068751E+02 -0.16881855407E+02 -0.18548246199E+03  0.23386361007E+03  0.12508708273E+03 0.  0.
        -24    2    1    2    0    0 -0.56737127958E+02 -0.12120684800E+03 -0.32344261725E+03  0.35919639326E+03  0.80602236840E+02 0.  0.
         24    2    1    2    0    0 -0.92679407933E+01  0.13808870341E+03  0.22659240303E+03  0.27788572783E+03  0.81987656900E+02 0.  0.
        -13    1    5    5    0    0  0.28703658206E+02  0.26137593128E+02  0.32513075693E+02  0.50637672339E+02  0.00000000000E+00 0.  1.
         14    1    5    5    0    0 -0.37971599000E+02  0.11195111028E+03  0.19407932734E+03  0.22724805549E+03  0.00000000000E+00 0. -1.
         11    1    4    4    0    0 -0.75662315535E+02 -0.77170567737E+02 -0.21505884149E+03  0.24068732376E+03  0.00000000000E+00 0. -1.
        -12    1    4    4    0    0  0.18925187577E+02 -0.44036280264E+02 -0.10838377576E+03  0.11850906950E+03  0.00000000000E+00 0.  1.
          5    1    3    3  501    0  0.71914264991E+02  0.41693541823E+02 -0.11435661631E+03  0.14143875365E+03  0.41800000000E+01 0. -1.
         -5    1    3    3    0  501 -0.59091962397E+01 -0.58575397230E+02 -0.71125845678E+02  0.92424856420E+02  0.41800000000E+01 0. -1.
</event>
<event>
11    1  0.2450992E-009  0.1485761E+03  0.7561462E-02  0.1098343E+00
         22   -1    0    0    0    0  0.00000000000E+00  0.00000000000E+00  0.25123846776E+04  0.25123846776E+04  0.00000000000E+00 0.  1.
         22   -1    0    0    0    0 -0.00000000000E+00 -0.00000000000E+00 -0.10020360307E+03  0.10020360307E+03  0.00000000000E+00 0.  1.
         25    2    1    2    0    0 -0.11160695320E+03  0.34147235453E+02  0.33115126700E+02  0.17426019509E+03  0.12509139972E+03 0.  0.
         24    2    1    2    0    0  0.32925818911E+02 -0.22631722540E+02  0.41983963350E+02  0.98645698355E+02  0.79824909705E+02 0.  0.
        -24    2    1    2    0    0  0.78681134285E+02 -0.11515512913E+02  0.23370819845E+04  0.23396823873E+04  0.76407741912E+02 0.  0.
        -11    1    4    4    0    0  0.41257539964E+02  0.17119665247E+02  0.36454537612E+02  0.57655883087E+02  0.00000000000E+00 0.  1.
         12    1    4    4    0    0 -0.83317210529E+01 -0.39751387788E+02  0.55294257380E+01  0.40989815268E+02  0.00000000000E+00 0. -1.
         13    1    5    5    0    0  0.16543490181E+01 -0.24096336708E+01  0.25990762642E+01  0.39113172370E+01  0.00000000000E+00 0. -1.
        -14    1    5    5    0    0  0.77026785267E+02 -0.91058792421E+01  0.23344829082E+04  0.23357710700E+04  0.00000000000E+00 0.  1.
          5    1    3    3  501    0 -0.91047354767E+02 -0.92976230197E+00  0.73282467949E+02  0.11695416956E+03  0.41800000000E+01 0.  1.
         -5    1    3    3    0  501 -0.20559598429E+02  0.35076997755E+02 -0.40167341249E+02  0.57306025531E+02  0.41800000000E+01 0.  1.
</event>
<event>
11    1  0.2450992E-009  0.6963562E+03  0.7561462E-02  0.9037692E-01
         22   -1    0    0    0    0  0.00000000000E+00  0.00000000000E+00  0.20212951649E+03  0.20212951649E+03  0.00000000000E+00 0.  1.
         22   -1    0    0    0    0 -0.00000000000E+00 -0.00000000000E+00 -0.59975398508E+03  0.59975398508E+03  0.00000000000E+00 0.  1.
         25    2    1    2    0    0 -0.26360690566E+02 -0.16334638155E+03 -0.49065700835E+03  0.53270089050E+03  0.12509601322E+03 0.  0.
        -24    2    1    2    0    0  0.49895629448E+02  0.11472725872E+03  0.78998778450E+02  0.16592381532E+03  0.75086535160E+02 0.  0.
         24    2    1    2    0    0 -0.23534938883E+02  0.48619122827E+02  0.14033761308E+02  0.10325879575E+03  0.86877615012E+02 0.  0.
        -11    1    5    5    0    0 -0.16632384391E+02  0.32608983601E+01 -0.33283331891E+02  0.37350366135E+02  0.00000000000E+00 0.  1.
         12    1    5    5    0    0 -0.69025544924E+01  0.45358224467E+02  0.47317093199E+02  0.65908429613E+02  0.00000000000E+00 0. -1.
         13    1    4    4    0    0  0.31319939884E+02  0.27938749583E+02 -0.67542168271E+01  0.42510372940E+02  0.00000000000E+00 0. -1.
        -14    1    4    4    0    0  0.18575689565E+02  0.86788509142E+02  0.85752995278E+02  0.12341344238E+03  0.00000000000E+00 0.  1.
          5    1    3    3  501    0 -0.60430546405E+02 -0.45267504137E+02 -0.26661260287E+03  0.27712948287E+03  0.41800000000E+01 0. -1.
         -5    1    3    3    0  501  0.34069855839E+02 -0.11807887741E+03 -0.22404440548E+03  0.25557140763E+03  0.41800000000E+01 0. -1.
</event>
<event>
11    1  0.2450992E-009  0.1821023E+03  0.7561462E-02  0.1067955E+00
         22   -1    0    0    0    0  0.00000000000E+00  0.00000000000E+00  0.13440676120E+04  0.13440676120E+04  0.00000000000E+00 0.  1.
         22   -1    0    0    0    0 -0.00000000000E+00 -0.00000000000E+00 -0.11920341135E+03  0.11920341135E+03  0.00000000000E+00 0.  1.
         25    2    1    2    0    0 -0.23705228800E+02  0.12320691864E+02  0.78578064456E+02  0.15011809677E+03  0.12508874228E+03 0.  0.
        -24    2    1    2    0    0  0.12602437718E+03  0.11482270280E+03  0.40499284627E+02  0.19254867726E+03  0.79802282777E+02 0.  0.
         24    2    1    2    0    0 -0.10231914838E+03 -0.12714339466E+03  0.11057868515E+04  0.11206042493E+04  0.79716193886E+02 0.  0.
        -11    1    5    5    0    0 -0.53335030833E+02 -0.12072994723E+03  0.77823663360E+03  0.78934948125E+03  0.00000000000E+00 0.  1.
         12    1    5    5    0    0 -0.48984117548E+02 -0.64134474279E+01  0.32755021792E+03  0.33125476803E+03  0.00000000000E+00 0. -1.
         11    1    4    4    0    0  0.54715488237E+02  0.97117482388E+02  0.41836412466E+02  0.11906248547E+03  0.00000000000E+00 0. -1.
        -12    1    4    4    0    0  0.71308888945E+02  0.17705220407E+02 -0.13371278389E+01  0.73486191785E+02  0.00000000000E+00 0.  1.
          5    1    3    3  501    0  0.27404096780E+02 -0.41283948753E+02  0.13732698355E+02  0.51588839385E+02  0.41800000000E+01 0. -1.
         -5    1    3    3    0  501 -0.51109325580E+02  0.53604640617E+02  0.64845366101E+02  0.98529257389E+02  0.41800000000E+01 0. -1.
</event>
<event>
11    1  0.2450992E-009  0.1875368E+03  0.7561462E-02  0.1063704E+00
         22   -1    0    0    0    0  0.00000000000E+00  0.00000000000E+00  0.13095231330E+03  0.13095231330E+03  0.00000000000E+00 0. -1.
         22   -1    0    0    0    0 -0.00000000000E+00 -0.00000000000E+00 -0.46395011086E+03  0.46395011086E+03  0.00000000000E+00 0. -1.
         25    2    1    2    0    0 -0.11087455152E+03 -0.82561991467E+02 -0.19332444765E+03  0.26857256428E+03  0.12508889485E+03 0.  0.
        -24    2    1    2    0    0  0.88858851533E+02  0.11249994576E+03 -0.16522257874E+03  0.23325746311E+03  0.80984012480E+02 0.  0.
         24    2    1    2    0    0  0.22015699985E+02 -0.29937954291E+02  0.25549228834E+02  0.93072396779E+02  0.81417048554E+02 0.  0.
        -11    1    5    5    0    0 -0.26355837027E+02  0.78784776365E+01  0.30341415551E+01  0.27675017078E+02  0.00000000000E+00 0.  1.
         12    1    5    5    0    0  0.48371537012E+02 -0.37816431927E+02  0.22515087279E+02  0.65397379701E+02  0.00000000000E+00 0. -1.
         13    1    4    4    0    0  0.14788914907E+02 -0.52122688860E+01 -0.50784729992E+02  0.53150433219E+02  0.00000000000E+00 0. -1.
        -14    1    4    4    0    0  0.74069936626E+02  0.11771221464E+03 -0.11443784875E+03  0.18010702989E+03  0.00000000000E+00 0.  1.
          5    1    3    3  501    0 -0.22232131152E+02  0.29332986635E+02 -0.14644127074E+02  0.39832331318E+02  0.41800000000E+01 0.  1.
         -5    1    3    3    0  501 -0.88642420366E+02 -0.11189497810E+03 -0.17868032058E+03  0.22874023296E+03  0.41800000000E+01 0.  1.
</event>
<event>
11    1  0.2450992E-009  0.2307981E+03  0.7561462E-02  0.1034656E+00
         22   -1    0    0    0    0  0.00000000000E+00  0.00000000000E+00  0.41673972341E+03  0.41673972341E+03  0.00000000000E+00 0.  1.
         22   -1    0    0    0    0 -0.00000000000E+00 -0.00000000000E+00 -0.10540482110E+04  0.10540482110E+04  0.00000000000E+00 0. -1.
         25    2    1    2    0    0 -0.19776033831E+03 -0.98621590269E+02 -0.70849775125E+03  0.75263188617E+03  0.12510125131E+03 0.  0.
         24    2    1    2    0    0  0.58106301284E+01  0.12988397746E+03 -0.27347172524E+03  0.31400398794E+03  0.83115034246E+02 0.  0.
        -24    2    1    2    0    0  0.19194970818E+03 -0.31262387191E+02  0.34466098890E+03  0.40415206029E+03  0.82010141111E+02 0.  0.
        -11    1    4    4    0    0 -0.35010504621E+02  0.92589281125E+02 -0.17245051255E+03  0.19884086524E+03  0.00000000000E+00 0.  1.
         12    1    4    4    0    0  0.40821134749E+02  0.37294696335E+02 -0.10102121269E+03  0.11516312270E+03  0.00000000000E+00 0. -1.
         13    1    5    5    0    0  0.41693741097E+02 -0.31448797781E+02  0.45030170072E+02  0.68957313936E+02  0.00000000000E+00 0. -1.
        -14    1    5    5    0    0  0.15025596709E+03  0.18641059037E+00  0.29963081883E+03  0.33519474636E+03  0.00000000000E+00 0.  1.
          5    1    3    3  501    0 -0.12867559358E+03 -0.69060130811E+02 -0.61748526781E+03  0.63453308693E+03  0.41800000000E+01 0.  1.
         -5    1    3    3    0  501 -0.69084744727E+02 -0.29561459458E+02 -0.91012483436E+02  0.11809879923E+03  0.41800000000E+01 0.  1.
</event>
<event>
11    1  0.2450992E-009  0.3290285E+03  0.7561462E-02  0.9886029E-01
         22   -1    0    0    0    0  0.00000000000E+00  0.00000000000E+00  0.38131775022E+03  0.38131775022E+03  0.00000000000E+00 0. -1.
         22   -1    0    0    0    0 -0.00000000000E+00 -0.00000000000E+00 -0.11457704400E+04  0.11457704400E+04  0.00000000000E+00 0. -1.
         25    2    1    2    0    0  0.90335840222E+02  0.34294593420E+03 -0.77447276139E+03  0.86094579244E+03  0.12508845503E+03 0.  0.
         24    2    1    2    0    0  0.13639748218E+03 -0.23557520646E+03 -0.18506617964E+03  0.33824647794E+03  0.77853952712E+02 0.  0.
        -24    2    1    2    0    0 -0.22673332240E+03 -0.10737072774E+03  0.19508625120E+03  0.32789591988E+03  0.80750332516E+02 0.  0.
        -13    1    4    4    0    0  0.63747586767E+02 -0.46606291398E+02 -0.69103482603E+02  0.10493422952E+03  0.00000000000E+00 0.  1.
         14    1    4    4    0    0  0.72649895411E+02 -0.18896891506E+03 -0.11596269704E+03  0.23331224842E+03  0.00000000000E+00 0. -1.
         11    1    5    5    0    0 -0.15489372531E+03 -0.90561459024E+02  0.93446877782E+02  0.20230116898E+03  0.00000000000E+00 0. -1.
        -12    1    5    5    0    0 -0.71839597085E+02 -0.16809268718E+02  0.10163937342E+03  0.12559475090E+03  0.00000000000E+00 0.  1.
          5    1    3    3  501    0  0.98853681333E+02  0.13244839485E+03 -0.34517481949E+03  0.38272412522E+03  0.41800000000E+01 0.  1.
         -5    1    3    3    0  501 -0.85178411110E+01  0.21049753934E+03 -0.42929794190E+03  0.47822166722E+03  0.41800000000E+01 0.  1.
</event>
<event>
11    1  0.2450992E-009  0.2309724E+03  0.7561462E-02  0.1034554E+00
         22   -1    0    0    0    0  0.00000000000E+00  0.00000000000E+00  0.29705207845E+03  0.29705207845E+03  0.00000000000E+00 0.  1.
         22   -1    0    0    0    0 -0.00000000000E+00 -0.00000000000E+00 -0.32454495548E+03  0.32454495548E+03  0.00000000000E+00 0.  1.
         25    2    1    2    0    0 -0.18434649380E+03  0.26028931013E+02 -0.16056041350E+03  0.27584233973E+03  0.12509282545E+03 0.  0.
        -24    2    1    2    0    0  0.21612269606E+03 -0.18545530511E+02  0.80174274829E+02  0.24479225327E+03  0.80264415917E+02 0.  0.
         24    2    1    2    0    0 -0.31776202266E+02 -0.74834005013E+01  0.52893261646E+02  0.10096244092E+03  0.79561228223E+02 0.  0.
        -13    1    5    5    0    0 -0.54533443691E+02 -0.18002295540E+02  0.22785499637E+02  0.61783154008E+02  0.00000000000E+00 0.  1.
         14    1    5    5    0    0  0.22757241425E+02  0.10518895038E+02  0.30107762010E+02  0.39179286917E+02  0.00000000000E+00 0. -1.
         11    1    4    4    0    0  0.94974789863E+02 -0.24666252333E+02  0.74776107629E+02  0.12336977339E+03  0.00000000000E+00 0. -1.
        -12    1    4    4    0    0  0.12114790620E+03  0.61207218220E+01  0.53981672004E+01  0.12142247988E+03  0.00000000000E+00 0.  1.
          5    1    3    3  501    0 -0.32683741299E+02  0.56527298475E+02 -0.73010139722E+02  0.98038335973E+02  0.41800000000E+01 0.  1.
         -5    1    3    3    0  501 -0.15166275250E+03 -0.30498367462E+02 -0.87550273781E+02  0.17780400376E+03  0.41800000000E+01 0.  1.
</event>
<event>
11    1  0.2450992E-009  0.1643960E+03  0.7561462E-02  0.1083014E+00
         22   -1    0    0    0    0  0.00000000000E+00  0.00000000000E+00  0.12182729973E+04  0.12182729973E+04  0.00000000000E+00 0. -1.
         22   -1    0    0    0    0 -0.00000000000E+00 -0.00000000000E+00 -0.53184891808E+03  0.53184891808E+03  0.00000000000E+00 0.  1.
         25    2    1    2    0    0 -0.71413048093E+02  0.29179691593E+01 -0.45146749464E+03  0.47389501288E+03  0.12508095992E+03 0.  0.
         24    2    1    2    0    0 -0.29087630945E+02 -0.39682511422E+02 -0.31081383012E+02  0.99656442763E+02  0.80898468635E+02 0.  0.
        -24    2    1    2    0    0  0.10050067904E+03  0.36764542263E+02  0.11689729569E+04  0.11765704597E+04  0.79801345807E+02 0.  0.
        -13    1    4    4    0    0 -0.48437328254E+01  0.24449899365E+02 -0.15483175394E+02  0.29342597822E+02  0.00000000000E+00 0.  1.
         14    1    4    4    0    0 -0.24243898120E+02 -0.64132410787E+02 -0.15598207618E+02  0.70313844941E+02  0.00000000000E+00 0. -1.
         11    1    5    5    0    0  0.77252466827E+02  0.38589819623E+01  0.99461522343E+03  0.99761830279E+03  0.00000000000E+00 0. -1.
        -12    1    5    5    0    0  0.23248212211E+02  0.32905560300E+02  0.17435773343E+03  0.17895215694E+03  0.00000000000E+00 0.  1.
          5    1    3    3  501    0 -0.98724727818E+02 -0.23827753345E+02 -0.37161798890E+03  0.38526839448E+03  0.41800000000E+01 0. -1.
         -5    1    3    3    0  501  0.27311679725E+02  0.26745722504E+02 -0.79849505739E+02  0.88626618397E+02  0.41800000000E+01 0. -1.
</event>
<event>
11    1  0.2450992E-009  0.3984260E+03  0.7561462E-02  0.9654414E-01
         22   -1    0    0    0    0  0.00000000000E+00  0.00000000000E+00  0.20600689757E+04  0.20600689757E+04  0.00000000000E+00 0. -1.
         22   -1    0    0    0    0 -0.00000000000E+00 -0.00000000000E+00 -0.11173328907E+04  0.11173328907E+04  0.00000000000E+00 0. -1.
         25    2    1    2    0    0  0.17371230052E+03  0.88260081767E+02 -0.71364471354E+03  0.75026778250E+03  0.12508862018E+03 0.  0.
        -24    2    1    2    0    0  0.21385058472E+03 -0.17888723383E+03 -0.30674691359E+03  0.42242409327E+03  0.81337141351E+02 0.  0.
         24    2    1    2    0    0 -0.38756288524E+03  0.90627152060E+02  0.19631277121E+04  0.20047099906E+04  0.81076888563E+02 0.  0.
        -13    1    5    5    0    0 -0.77758140354E+02  0.37488170254E+01  0.54548616567E+03  0.55101319309E+03  0.00000000000E+00 0.  1.
         14    1    5    5    0    0 -0.30980474489E+03  0.86878335035E+02  0.14176415464E+04  0.14536967975E+04  0.00000000000E+00 0. -1.
         13    1    4    4    0    0  0.20963566737E+03 -0.14900221560E+03 -0.29104938493E+03  0.38840509492E+03  0.00000000000E+00 0. -1.
        -14    1    4    4    0    0  0.42149173541E+01 -0.29885018229E+02 -0.15697528653E+02  0.34018998349E+02  0.00000000000E+00 0.  1.
          5    1    3    3  501    0  0.40028197791E+02 -0.22436775351E+02 -0.71455366152E+02  0.85023568841E+02  0.41800000000E+01 0.  1.
         -5    1    3    3    0  501  0.13368410272E+03  0.11069685712E+03 -0.64218934739E+03  0.66524421366E+03  0.41800000000E+01 0.  1.
</event>
<event>
11    1  0.2450992E-009  0.3160806E+03  0.7561462E-02  0.9936062E-01
         22   -1    0    0    0    0  0.00000000000E+00  0.00000000000E+00  0.10848171574E+04  0.10848171574E+04  0.00000000000E+00 0. -1.
         22   -1    0    0    0    0 -0.00000000000E+00 -0.00000000000E+00 -0.43758263277E+03  0.43758263277E+03  0.00000000000E+00 0.  1.
         25    2    1    2    0    0  0.26514659952E+03 -0.62975393726E+02 -0.15920155625E+03  0.33950185096E+03  0.12509097427E+03 0.  0.
        -24    2    1    2    0    0 -0.34890597466E+03 -0.13016739849E+03  0.38889910125E+02  0.38290142404E+03  0.80138284466E+02 0.  0.
         24    2    1    2    0    0  0.83759375142E+02  0.19314279222E+03  0.76754617071E+03  0.79999651513E+03  0.80916802516E+02 0.  0.
        -13    1    5    5    0    0 -0.10236684462E+02  0.30695403731E+02  0.18956979083E+03  0.19231147421E+03  0.00000000000E+00 0.  1.
         14    1    5    5    0    0  0.93996059604E+02  0.16244738848E+03  0.57797637988E+03  0.60768504091E+03  0.00000000000E+00 0. -1.
         11    1    4    4    0    0 -0.19511608133E+03 -0.67559447033E+02  0.61208893682E+02  0.21536270044E+03  0.00000000000E+00 0. -1.
        -12    1    4    4    0    0 -0.15378989334E+03 -0.62607951456E+02 -0.22318983557E+02  0.16753872360E+03  0.00000000000E+00 0.  1.
          5    1    3    3  501    0  0.25183996383E+03 -0.52271768531E+02 -0.17872074635E+03  0.31323199509E+03  0.41800000000E+01 0.  1.
         -5    1    3    3    0  501  0.13306635688E+02 -0.10703625195E+02  0.19519190102E+02  0.26269855879E+02  0.41800000000E+01 0.  1.
</event>
<event>
11    1  0.2450992E-009  0.6923739E+03  0.7561462E-02  0.9043619E-01
         22   -1    0    0    0    0  0.00000000000E+00  0.00000000000E+00  0.20761006593E+03  0.20761006593E+03  0.00000000000E+00 0. -1.
         22   -1    0    0    0    0 -0.00000000000E+00 -0.00000000000E+00 -0.57726205820E+03  0.57726205820E+03  0.00000000000E+00 0.  1.
         25    2    1    2    0    0 -0.76650891013E+02  0.13051044621E+03 -0.45888268345E+03  0.49912535844E+03  0.12507785815E+03 0.  0.
         24    2    1    2    0    0  0.13823248516E+02 -0.10650053621E+02 -0.30925164856E+02  0.88082069315E+02  0.80607563366E+02 0.  0.
        -24    2    1    2    0    0  0.62827642497E+02 -0.11986039258E+03  0.12015585604E+03  0.19766469638E+03  0.79498906161E+02 0.  0.
        -11    1    4    4    0    0 -0.77316243310E+01 -0.39894895433E+02 -0.41379056265E+00  0.40639290336E+02  0.00000000000E+00 0.  1.
         12    1    4    4    0    0  0.21554872847E+02  0.29244841812E+02 -0.30511374293E+02  0.47442778979E+02  0.00000000000E+00 0. -1.
         13    1    5    5    0    0  0.68349185500E+02 -0.99602461425E+02  0.12729364152E+03  0.17548769943E+03  0.00000000000E+00 0. -1.
        -14    1    5    5    0    0 -0.55215430028E+01 -0.20257931159E+02 -0.71377854790E+01  0.22176996946E+02  0.00000000000E+00 0.  1.
          5    1    3    3  501    0  0.10870825198E+01  0.75663319307E+02 -0.87642376147E+02  0.11586534483E+03  0.41800000000E+01 0.  1.
         -5    1    3    3    0  501 -0.77737973532E+02  0.54847126898E+02 -0.37124030731E+03  0.38326001360E+03  0.41800000000E+01 0.  1.
</event>
<event>
11    1  0.2450992E-009  0.1974871E+03  0.7561462E-02  0.1056315E+00
         22   -1    0    0    0    0  0.00000000000E+00  0.00000000000E+00  0.38500408486E+03  0.38500408486E+03  0.00000000000E+00 0.  1.
         22   -1    0    0    0    0 -0.00000000000E+00 -0.00000000000E+00 -0.25818264185E+03  0.25818264185E+03  0.00000000000E+00 0.  1.
         25    2    1    2    0    0  0.47856292598E+01  0.13193860452E+03 -0.85559551562E+02  0.20100586945E+03  0.12510885291E+03 0.  0.
         24    2    1    2    0    0 -0.12110553673E+03 -0.13897577509E+02 -0.14300127290E+02  0.15003975140E+03  0.86300287779E+02 0.  0.
        -24    2    1    2    0    0  0.11631990747E+03 -0.11804102701E+03  0.22668112187E+03  0.29214110587E+03  0.80610730008E+02 0.  0.
        -11    1    4    4    0    0 -0.93391658454E+02  0.16938421815E+02  0.19078011305E+02  0.96813648406E+02  0.00000000000E+00 0.  1.
         12    1    4    4    0    0 -0.27713878279E+02 -0.30835999323E+02 -0.33378138595E+02  0.53226102990E+02  0.00000000000E+00 0. -1.
         13    1    5    5    0    0  0.86030532864E+01 -0.39225356405E+02  0.10148489873E+03  0.10914131106E+03  0.00000000000E+00 0. -1.
        -14    1    5    5    0    0  0.10771685419E+03 -0.78815670610E+02  0.12519622314E+03  0.18299979481E+03  0.00000000000E+00 0.  1.
          5    1    3    3  501    0 -0.18799644940E+02  0.12907721522E+03 -0.21126315022E+02  0.13220494591E+03  0.41800000000E+01 0.  1.
         -5    1    3    3    0  501  0.23585274200E+02  0.28613893079E+01 -0.64433236540E+02  0.68800923532E+02  0.41800000000E+01 0.  1.
</event>
<event>
11    1  0.2450992E-009  0.4279607E+04  0.7561462E-02  0.7488744E-01
         22   -1    0    0    0    0  0.00000000000E+00  0.00000000000E+00  0.24106893461E+04  0.24106893461E+04  0.00000000000E+00 0. -1.
         22   -1    0    0    0    0 -0.00000000000E+00 -0.00000000000E+00 -0.18993563811E+04  0.18993563811E+04  0.00000000000E+00 0. -1.
         25    2    1    2    0    0  0.16927691533E+04  0.20133869019E+03 -0.91508471676E+03  0.19388223842E+04  0.12509006288E+03 0.  0.
         24    2    1    2    0    0 -0.81652380972E+03 -0.36809113891E+03  0.33479777654E+03  0.95916730192E+03  0.75565491558E+02 0.  0.
        -24    2    1    2    0    0 -0.87624534360E+03  0.16675244872E+03  0.10916199052E+04  0.14120560411E+04  0.81584094990E+02 0.  0.
        -13    1    4    4    0    0 -0.74226264779E+03 -0.34803386098E+03  0.32392286331E+03  0.88148024826E+03  0.00000000000E+00 0.  1.
         14    1    4    4    0    0 -0.74261161923E+02 -0.20057277926E+02  0.10874913228E+02  0.77687053656E+02  0.00000000000E+00 0. -1.
         13    1    5    5    0    0 -0.28287011340E+03  0.25627590672E+02  0.30664194057E+03  0.41797315007E+03  0.00000000000E+00 0. -1.
        -14    1    5    5    0    0 -0.59337523021E+03  0.14112485805E+03  0.78497796461E+03  0.99408289106E+03  0.00000000000E+00 0.  1.
          5    1    3    3  501    0  0.71870245222E+03  0.99975498553E+02 -0.32173529254E+03  0.79376280210E+03  0.41800000000E+01 0.  1.
         -5    1    3    3    0  501  0.97406670110E+03  0.10136319163E+03 -0.59334942423E+03  0.11450595820E+04  0.41800000000E+01 0.  1.
</event>
<event>
11    1  0.2450992E-009  0.1636683E+03  0.7561462E-02  0.1083677E+00
         22   -1    0    0    0    0  0.00000000000E+00  0.00000000000E+00  0.83709537571E+02  0.83709537571E+02  0.00000000000E+00 0. -1.
         22   -1    0    0    0    0 -0.00000000000E+00 -0.00000000000E+00 -0.10233004255E+04  0.10233004255E+04  0.00000000000E+00 0. -1.
         25    2    1    2    0    0  0.10179063307E+03  0.26045797122E+02 -0.64953126940E+03  0.66975947146E+03  0.12508862121E+03 0.  0.
         24    2    1    2    0    0 -0.11625543031E+03  0.95253577222E+02 -0.21313447531E+03  0.27294686887E+03  0.80530240346E+02 0.  0.
        -24    2    1    2    0    0  0.14464797237E+02 -0.12129937434E+03 -0.76925143239E+02  0.16430362276E+03  0.78456575336E+02 0.  0.
        -11    1    4    4    0    0 -0.79623698148E+02  0.27061837799E+02 -0.15425804060E+03  0.17569240012E+03  0.00000000000E+00 0.  1.
         12    1    4    4    0    0 -0.36631732163E+02  0.68191739423E+02 -0.58876434707E+02  0.97254468744E+02  0.00000000000E+00 0. -1.
         13    1    5    5    0    0 -0.21838200642E+02 -0.10053816031E+03 -0.60644541040E+02  0.11942608193E+03  0.00000000000E+00 0. -1.
        -14    1    5    5    0    0  0.36302997879E+02 -0.20761214032E+02 -0.16280602198E+02  0.44877540831E+02  0.00000000000E+00 0.  1.
          5    1    3    3  501    0  0.86164109782E+02  0.32733103710E+02 -0.20412465207E+03  0.22400905311E+03  0.41800000000E+01 0.  1.
         -5    1    3    3    0  501  0.15626523292E+02 -0.66873065875E+01 -0.44540661732E+03  0.44575041834E+03  0.41800000000E+01 0.  1.
</event>
<event>
11    1  0.2450992E-009  0.1756289E+04  0.7561462E-02  0.8174952E-01
         22   -1    0    0    0    0  0.00000000000E+00  0.00000000000E+00  0.86936833254E+03  0.86936833254E+03  0.00000000000E+00 0. -1.
         22   -1    0    0    0    0 -0.00000000000E+00 -0.00000000000E+00 -0.88700947390E+03  0.88700947390E+03  0.00000000000E+00 0. -1.
         25    2    1    2    0    0 -0.11926830668E+01 -0.82726557821E+03 -0.13211397689E+03  0.84703725622E+03  0.12509297000E+03 0.  0.
        -24    2    1    2    0    0  0.12295225334E+03  0.66669734376E+03  0.62200433190E+02  0.68567999461E+03  0.81765251429E+02 0.  0.
         24    2    1    2    0    0 -0.12175957027E+03  0.16056823446E+03  0.52272402340E+02  0.22366055561E+03  0.81756279385E+02 0.  0.
        -11    1    5    5    0    0 -0.41190016688E+02  0.74071110409E+02 -0.17295861287E+02  0.86500252540E+02  0.00000000000E+00 0.  1.
         12    1    5    5    0    0 -0.80569553583E+02  0.86497124047E+02  0.69568263627E+02  0.13716030307E+03  0.00000000000E+00 0. -1.
         11    1    4    4    0    0  0.45389492513E+02  0.90263574797E+02  0.34568279705E+01  0.10109237669E+03  0.00000000000E+00 0. -1.
        -12    1    4    4    0    0  0.77562760824E+02  0.57643376896E+03  0.58743605219E+02  0.58458761791E+03  0.00000000000E+00 0.  1.
          5    1    3    3  501    0 -0.50208366634E+02 -0.29621476135E+03 -0.14027613253E+02  0.30079612906E+03  0.41800000000E+01 0. -1.
         -5    1    3    3    0  501  0.49015683567E+02 -0.53105081686E+03 -0.11808636364E+03  0.54624112716E+03  0.41800000000E+01 0. -1.
</event>
<event>
11    1  0.2450992E-009  0.4099733E+03  0.7561462E-02  0.9620781E-01
         22   -1    0    0    0    0  0.00000000000E+00  0.00000000000E+00  0.44036046090E+03  0.44036046090E+03  0.00000000000E+00 0.  1.
         22   -1    0    0    0    0 -0.00000000000E+00 -0.00000000000E+00 -0.14276718003E+04  0.14276718003E+04  0.00000000000E+00 0. -1.
         25    2    1    2    0    0 -0.19546767534E+03  0.10141888254E+03 -0.54215700621E+03  0.59839389321E+03  0.12509048810E+03 0.  0.
         24    2    1    2    0    0  0.66532903064E+02 -0.47582547844E+03 -0.65332900263E+03  0.81503209404E+03  0.81252787733E+02 0.  0.
        -24    2    1    2    0    0  0.12893477227E+03  0.37440659590E+03  0.20817466947E+03  0.45460627392E+03  0.80781784614E+02 0.  0.
        -11    1    4    4    0    0  0.57548337991E+02 -0.47474815580E+03 -0.64072746870E+03  0.79951817477E+03  0.00000000000E+00 0.  1.
         12    1    4    4    0    0  0.89845650734E+01 -0.10773226348E+01 -0.12601533933E+02  0.15513919269E+02  0.00000000000E+00 0. -1.
         11    1    5    5    0    0  0.79508625212E+02  0.16058930382E+03  0.56700821711E+02  0.18795086902E+03  0.00000000000E+00 0. -1.
        -12    1    5    5    0    0  0.49426147061E+02  0.21381729208E+03  0.15147384776E+03  0.26665540490E+03  0.00000000000E+00 0.  1.
          5    1    3    3  501    0  0.18722402865E+01  0.29738005423E+02 -0.15556799239E+03  0.15845102368E+03  0.41800000000E+01 0. -1.
         -5    1    3    3    0  501 -0.19733991562E+03  0.71680877117E+02 -0.38658901382E+03  0.43994286953E+03  0.41800000000E+01 0. -1.
</event>
<event>
11    1  0.2450992E-009  0.1851613E+03  0.7561462E-02  0.1065543E+00
         22   -1    0    0    0    0  0.00000000000E+00  0.00000000000E+00  0.69125913881E+03  0.69125913881E+03  0.00000000000E+00 0.  1.
         22   -1    0    0    0    0 -0.00000000000E+00 -0.00000000000E+00 -0.83819381028E+03  0.83819381028E+03  0.00000000000E+00 0. -1.
         25    2    1    2    0    0  0.10949538405E+03 -0.63408428225E+02 -0.75874104464E+03  0.77932395241E+03  0.12509189457E+03 0.  0.
        -24    2    1    2    0    0 -0.17983078929E+02 -0.38168316246E+02 -0.23702306461E+02  0.95116683444E+02  0.81885118581E+02 0.  0.
         24    2    1    2    0    0 -0.91512305120E+02  0.10157674447E+03  0.63550867963E+03  0.65501231323E+03  0.80482989500E+02 0.  0.
        -11    1    5    5    0    0 -0.34128255358E+02  0.36253508471E+02  0.41506787821E+03  0.41804353626E+03  0.00000000000E+00 0.  1.
         12    1    5    5    0    0 -0.57384049761E+02  0.65323236000E+02  0.22044080142E+03  0.23696877697E+03  0.00000000000E+00 0. -1.
         11    1    4    4    0    0  0.29262769172E+02 -0.33462878761E+02 -0.84637675779E+01  0.45251621808E+02  0.00000000000E+00 0. -1.
        -12    1    4    4    0    0 -0.47245848101E+02 -0.47054374847E+01 -0.15238538883E+02  0.49865061636E+02  0.00000000000E+00 0.  1.
          5    1    3    3  501    0  0.11236631978E+03  0.38685198070E+00 -0.43346270496E+03  0.44780992448E+03  0.41800000000E+01 0.  1.
         -5    1    3    3    0  501 -0.28709357338E+01 -0.63795280205E+02 -0.32527833968E+03  0.33151402793E+03  0.41800000000E+01 0.  1.
</event>
<event>
11    1  0.2450992E-009  0.3060981E+03  0.7561462E-02  0.9976429E-01
         22   -1    0    0    0    0  0.00000000000E+00  0.00000000000E+00  0.26340988349E+04  0.26340988349E+04  0.00000000000E+00 0.  1.
         22   -1    0    0    0    0 -0.00000000000E+00 -0.00000000000E+00 -0.13352194762E+03  0.13352194762E+03  0.00000000000E+00 0.  1.
         25    2    1    2    0    0  0.13694671737E+03  0.26040548703E+03  0.19385205352E+03  0.37388680932E+03  0.12508919401E+03 0.  0.
        -24    2    1    2    0    0  0.10979116139E+03 -0.29589669296E+03  0.78756210302E+03  0.85213729830E+03  0.79214626261E+02 0.  0.
         24    2    1    2    0    0 -0.24673787875E+03  0.35491205929E+02  0.15191627307E+04  0.15415966749E+04  0.80781799385E+02 0.  0.
        -13    1    5    5    0    0 -0.18251347228E+03  0.20517629007E+02  0.87504294181E+03  0.89410977551E+03  0.00000000000E+00 0.  1.
         14    1    5    5    0    0 -0.64224406472E+02  0.14973576922E+02  0.64411978894E+03  0.64748689940E+03  0.00000000000E+00 0. -1.
         13    1    4    4    0    0  0.16355041499E+02 -0.40409891664E+02  0.19941310100E+03  0.20412258958E+03  0.00000000000E+00 0. -1.
        -14    1    4    4    0    0  0.93436119887E+02 -0.25548680130E+03  0.58814900202E+03  0.64801470872E+03  0.00000000000E+00 0.  1.
          5    1    3    3  501    0  0.14905050538E+03  0.26444986923E+03  0.17399848709E+03  0.34991817958E+03  0.41800000000E+01 0. -1.
         -5    1    3    3    0  501 -0.12103788014E+02 -0.40443821988E+01  0.19853566436E+02  0.23968629745E+02  0.41800000000E+01 0. -1.
</event>
<event>
11    1  0.2450992E-009  0.7010955E+03  0.7561462E-02  0.9030692E-01
         22   -1    0    0    0    0  0.00000000000E+00  0.00000000000E+00  0.59242279913E+03  0.59242279913E+03  0.00000000000E+00 0. -1.
         22   -1    0    0    0    0 -0.00000000000E+00 -0.00000000000E+00 -0.21156775750E+04  0.21156775750E+04  0.00000000000E+00 0. -1.
         25    2    1    2    0    0 -0.63773971041E+03 -0.26599794546E+03 -0.14942504959E+04  0.16510299392E+04  0.12509384624E+03 0.  0.
        -24    2    1    2    0    0  0.69897937870E+03  0.91354181569E+02 -0.25537578399E+03  0.75406612077E+03  0.80505683680E+02 0.  0.
         24    2    1    2    0    0 -0.61239668283E+02  0.17464376389E+03  0.22637150398E+03  0.30300431422E+03  0.79478395709E+02 0.  0.
        -13    1    5    5    0    0 -0.14121519532E+02  0.17952741157E+01  0.48501919057E+02  0.50547764295E+02  0.00000000000E+00 0.  1.
         14    1    5    5    0    0 -0.47118148751E+02  0.17284848977E+03  0.17786958492E+03  0.25245654992E+03  0.00000000000E+00 0. -1.
         13    1    4    4    0    0  0.59987915050E+03  0.63810147989E+02 -0.19123356591E+03  0.63284832853E+03  0.00000000000E+00 0. -1.
        -14    1    4    4    0    0  0.99100228196E+02  0.27544033579E+02 -0.64142218081E+02  0.12121779224E+03  0.00000000000E+00 0.  1.
          5    1    3    3  501    0 -0.63046594506E+03 -0.27660628540E+03 -0.14594793929E+04  0.16137211394E+04  0.41800000000E+01 0.  1.
         -5    1    3    3    0  501 -0.72737653546E+01  0.10608339946E+02 -0.34771102922E+02  0.37308799729E+02  0.41800000000E+01 0.  1.
</event>
<event>
11    1  0.2450992E-009  0.2799470E+03  0.7561462E-02  0.1009054E+00
         22   -1    0    0    0    0  0.00000000000E+00  0.00000000000E+00  0.16647313001E+04  0.16647313001E+04  0.00000000000E+00 0.  1.
         22   -1    0    0    0    0 -0.00000000000E+00 -0.00000000000E+00 -0.27183994284E+03  0.27183994284E+03  0.00000000000E+00 0.  1.
         25    2    1    2    0    0 -0.90079311922E+02 -0.10945901111E+03  0.84597350052E+01  0.18924953090E+03  0.12509300651E+03 0.  0.
         24    2    1    2    0    0 -0.18443794569E+03  0.10027186198E+03 -0.92061811122E+02  0.24326156349E+03  0.81418726895E+02 0.  0.
        -24    2    1    2    0    0  0.27451725761E+03  0.91871491281E+01  0.14764934333E+04  0.15040601485E+04  0.81975259894E+02 0.  0.
        -11    1    4    4    0    0 -0.16531621013E+03  0.75846773354E+02 -0.45800522158E+02  0.18756297660E+03  0.00000000000E+00 0.  1.
         12    1    4    4    0    0 -0.19121735560E+02  0.24425088631E+02 -0.46261288964E+02  0.55698586895E+02  0.00000000000E+00 0. -1.
         13    1    5    5    0    0  0.15663807413E+02 -0.75657052950E+01  0.31638424031E+02  0.36105188470E+02  0.00000000000E+00 0. -1.
        -14    1    5    5    0    0  0.25885345020E+03  0.16752854423E+02  0.14448550093E+04  0.14679549600E+04  0.00000000000E+00 0.  1.
          5    1    3    3  501    0  0.25994044135E+02 -0.52653760061E+02  0.11199233345E+02  0.59924986496E+02  0.41800000000E+01 0.  1.
         -5    1    3    3    0  501 -0.11607335606E+03 -0.56805251052E+02 -0.27394983402E+01  0.12932454440E+03  0.41800000000E+01 0.  1.
</event>
<event>
11    1  0.2450992E-009  0.1471811E+03  0.7561462E-02  0.1099794E+00
         22   -1    0    0    0    0  0.00000000000E+00  0.00000000000E+00  0.27859279303E+02  0.27859279303E+02  0.00000000000E+00 0.  1.
         22   -1    0    0    0    0 -0.00000000000E+00 -0.00000000000E+00 -0.14857059334E+04  0.14857059334E+04  0.00000000000E+00 0.  1.
         25    2    1    2    0    0  0.58249605181E+02  0.49450589221E+02 -0.10433974631E+04  0.10536435518E+04  0.12509232935E+03 0.  0.
        -24    2    1    2    0    0 -0.64684963226E+02 -0.48891528341E+02 -0.19925890983E+03  0.23009011957E+03  0.81626123049E+02 0.  0.
         24    2    1    2    0    0  0.64353580457E+01 -0.55906087989E+00 -0.21519028113E+03  0.22983154135E+03  0.80460884438E+02 0.  0.
        -13    1    5    5    0    0 -0.50348593562E+01  0.29277181287E+02 -0.31182554535E+02  0.43068025961E+02  0.00000000000E+00 0.  1.
         14    1    5    5    0    0  0.11470217402E+02 -0.29836242167E+02 -0.18400772660E+03  0.18676351539E+03  0.00000000000E+00 0. -1.
         11    1    4    4    0    0  0.13619382600E+01  0.12172859404E+02 -0.78833103680E+02  0.79779017402E+02  0.00000000000E+00 0. -1.
        -12    1    4    4    0    0 -0.66046901486E+02 -0.61064387745E+02 -0.12042580615E+03  0.15031110216E+03  0.00000000000E+00 0.  1.
          5    1    3    3  501    0  0.48203799095E+02  0.67912404220E+02 -0.10131417476E+04  0.10165674469E+04  0.41800000000E+01 0.  1.
         -5    1    3    3    0  501  0.10045806085E+02 -0.18461814999E+02 -0.30255715495E+02  0.37076104881E+02  0.41800000000E+01 0.  1.
</event>
<event>
11    1  0.2450992E-009  0.1968536E+03  0.7561462E-02  0.1056771E+00
         22   -1    0    0    0    0  0.00000000000E+00  0.00000000000E+00  0.12895913848E+04  0.12895913848E+04  0.00000000000E+00 0.  1.
         22   -1    0    0    0    0 -0.00000000000E+00 -0.00000000000E+00 -0.74117897451E+02  0.74117897451E+02  0.00000000000E+00 0. -1.
         25    2    1    2    0    0 -0.40964304116E+02  0.13881805409E+03  0.13297029032E+03  0.23297327969E+03  0.12508766762E+03 0.  0.
        -24    2    1    2    0    0 -0.66618480783E+02  0.21765255179E+02  0.22923762847E+03  0.25232041048E+03  0.78765163136E+02 0.  0.
         24    2    1    2    0    0  0.10758278490E+03 -0.16058330926E+03  0.85326556860E+03  0.87841559212E+03  0.78681427892E+02 0.  0.
        -11    1    5    5    0    0  0.74275308452E+02 -0.15001908163E+03  0.77225896683E+03  0.79019393705E+03  0.00000000000E+00 0.  1.
         12    1    5    5    0    0  0.33307476447E+02 -0.10564227634E+02  0.81006601776E+02  0.88221655074E+02  0.00000000000E+00 0. -1.
         11    1    4    4    0    0 -0.68617760825E+02  0.27535755748E+02  0.10774069639E+03  0.13067009070E+03  0.00000000000E+00 0. -1.
        -12    1    4    4    0    0  0.19992800414E+01 -0.57705005691E+01  0.12149693208E+03  0.12165031978E+03  0.00000000000E+00 0.  1.
          5    1    3    3  501    0  0.27289783754E+02  0.10589076659E+03  0.10620773237E+03  0.15249636573E+03  0.41800000000E+01 0. -1.
         -5    1    3    3    0  501 -0.68254087870E+02  0.32927287499E+02  0.26762557949E+02  0.80476913963E+02  0.41800000000E+01 0. -1.
</event>
<event>
11    1  0.2450992E-009  0.1884530E+03  0.7561462E-02  0.1063003E+00
         22   -1    0    0    0    0  0.00000000000E+00  0.00000000000E+00  0.38010320591E+03  0.38010320591E+03  0.00000000000E+00 0. -1.
         22   -1    0    0    0    0 -0.00000000000E+00 -0.00000000000E+00 -0.17785290734E+03  0.17785290734E+03  0.00000000000E+00 0.  1.
         25    2    1    2    0    0 -0.19197150358E+02 -0.29296186818E+02  0.23893424984E+01  0.12990943429E+03  0.12507579709E+03 0.  0.
        -24    2    1    2    0    0 -0.10315505830E+03  0.14212080010E+03  0.10943522372E+03  0.22211313473E+03  0.80739634353E+02 0.  0.
         24    2    1    2    0    0  0.12235220866E+03 -0.11282461328E+03  0.90425732356E+02  0.20593354422E+03  0.80822987067E+02 0.  0.
        -13    1    5    5    0    0  0.10252023434E+03 -0.74211660636E+02  0.27543421243E+02  0.12952377804E+03  0.00000000000E+00 0.  1.
         14    1    5    5    0    0  0.19831974317E+02 -0.38612952646E+02  0.62882311113E+02  0.76409766184E+02  0.00000000000E+00 0. -1.
         11    1    4    4    0    0 -0.92179410720E+01  0.79279834513E+02  0.52802853965E+02  0.95699550599E+02  0.00000000000E+00 0. -1.
        -12    1    4    4    0    0 -0.93937117228E+02  0.62840965587E+02  0.56632369756E+02  0.12641358413E+03  0.00000000000E+00 0.  1.
          5    1    3    3  501    0 -0.82325570493E+01 -0.43406525136E+02  0.57034146321E+02  0.72265259057E+02  0.41800000000E+01 0. -1.
         -5    1    3    3    0  501 -0.10964593308E+02  0.14110338318E+02 -0.54644803823E+02  0.57644175237E+02  0.41800000000E+01 0. -1.
</event>
<event>
11    1  0.2450992E-009  0.1424294E+04  0.7561462E-02  0.8355374E-01
         22   -1    0    0    0    0  0.00000000000E+00  0.00000000000E+00  0.27641477169E+03  0.27641477169E+03  0.00000000000E+00 0.  1.
         22   -1    0    0    0    0 -0.00000000000E+00 -0.00000000000E+00 -0.18347555879E+04  0.18347555879E+04  0.00000000000E+00 0.  1.
         25    2    1    2    0    0  0.21838663740E+03 -0.28926104189E+03 -0.16465205893E+04  0.16905743234E+04  0.12508724177E+03 0.  0.
        -24    2    1    2    0    0 -0.15754617643E+03  0.14515177535E+03  0.14252875715E+02  0.22977714383E+03  0.81881351777E+02 0.  0.
         24    2    1    2    0    0 -0.60840460970E+02  0.14410926654E+03  0.73926897385E+02  0.19081889239E+03  0.80483670018E+02 0.  0.
        -11    1    5    5    0    0 -0.43046750066E+02  0.15075828448E+03  0.68238950905E+02  0.17099016770E+03  0.00000000000E+00 0.  1.
         12    1    5    5    0    0 -0.17793710904E+02 -0.66490179390E+01  0.56879464794E+01  0.19828724680E+02  0.00000000000E+00 0. -1.
         11    1    4    4    0    0 -0.51350860806E+02  0.10295334098E+03  0.59146759713E+01  0.11520106213E+03  0.00000000000E+00 0. -1.
        -12    1    4    4    0    0 -0.10619531562E+03  0.42198434366E+02  0.83381997441E+01  0.11457608170E+03  0.00000000000E+00 0.  1.
          5    1    3    3  501    0  0.16079768151E+03 -0.12912433120E+03 -0.10584567315E+04  0.10783678001E+04  0.41800000000E+01 0. -1.
         -5    1    3    3    0  501  0.57588955888E+02 -0.16013671069E+03 -0.58806385778E+03  0.61220652330E+03  0.41800000000E+01 0. -1.
</event>
<event>
11    1  0.2450992E-009  0.7640635E+03  0.7561462E-02  0.8942882E-01
         22   -1    0    0    0    0  0.00000000000E+00  0.00000000000E+00  0.16938912586E+04  0.16938912586E+04  0.00000000000E+00 0.  1.
         22   -1    0    0    0    0 -0.00000000000E+00 -0.00000000000E+00 -0.87187847238E+03  0.87187847238E+03  0.00000000000E+00 0.  1.
         25    2    1    2    0    0  0.35154381056E+03 -0.10235241038E+03 -0.30961304010E+03  0.49554728000E+03  0.12509118862E+03 0.  0.
        -24    2    1    2    0    0 -0.38149486474E+03 -0.67666800676E+03  0.10108818167E+04  0.12772914809E+04  0.78571983012E+02 0.  0.
         24    2    1    2    0    0  0.29951054179E+02  0.77902041714E+03  0.12074400957E+03  0.79293097009E+03  0.79940800106E+02 0.  0.
        -11    1    5    5    0    0  0.35294412830E+02  0.68297571053E+03  0.80314499594E+02  0.68858691216E+03  0.00000000000E+00 0.  1.
         12    1    5    5    0    0 -0.53433586516E+01  0.96044706608E+02  0.40429509981E+02  0.10434405794E+03  0.00000000000E+00 0. -1.
         13    1    4    4    0    0 -0.85822737891E+02 -0.17756050400E+03  0.31082439796E+03  0.36811014830E+03  0.00000000000E+00 0. -1.
        -14    1    4    4    0    0 -0.29567212685E+03 -0.49910750276E+03  0.70005741875E+03  0.90918133255E+03  0.00000000000E+00 0.  1.
          5    1    3    3  501    0  0.29296918350E+02 -0.18557696505E+02  0.74902142951E+01  0.35724966544E+02  0.41800000000E+01 0. -1.
         -5    1    3    3    0  501  0.32224689221E+03 -0.83794713874E+02 -0.31710325439E+03  0.45982231346E+03  0.41800000000E+01 0. -1.
</event>
<event>
11    1  0.2450992E-009  0.1724431E+03  0.7561462E-02  0.1075925E+00
         22   -1    0    0    0    0  0.00000000000E+00  0.00000000000E+00  0.44795020340E+03  0.44795020340E+03  0.00000000000E+00 0. -1.
         22   -1    0    0    0    0 -0.00000000000E+00 -0.00000000000E+00 -0.17730803879E+03  0.17730803879E+03  0.00000000000E+00 0.  1.
         25    2    1    2    0    0  0.42213182511E+02 -0.11776895660E+03 -0.40295789559E+02  0.18145211023E+03  0.12509851212E+03 0.  0.
        -24    2    1    2    0    0 -0.13346702693E+02  0.11226522178E+03  0.19185349768E+02  0.13987499636E+03  0.80095708159E+02 0.  0.
         24    2    1    2    0    0 -0.28866479818E+02  0.55037348217E+01  0.29175260440E+03  0.30393113560E+03  0.79943656751E+02 0.  0.
        -11    1    5    5    0    0 -0.98696631558E+01  0.29511654578E+01 -0.11829705546E+01  0.10369139198E+02  0.00000000000E+00 0.  1.
         12    1    5    5    0    0 -0.18996816663E+02  0.25525693639E+01  0.29293557496E+03  0.29356199640E+03  0.00000000000E+00 0. -1.
         11    1    4    4    0    0  0.31484391195E+02  0.45546641008E+02 -0.58684457040E+01  0.55679458070E+02  0.00000000000E+00 0. -1.
        -12    1    4    4    0    0 -0.44831093888E+02  0.66718580774E+02  0.25053795472E+02  0.84195538286E+02  0.00000000000E+00 0.  1.
          5    1    3    3  501    0  0.43924700843E+02  0.12417160171E+02 -0.29118570221E+01  0.45929473350E+02  0.41800000000E+01 0. -1.
         -5    1    3    3    0  501 -0.17115183317E+01 -0.13018611677E+03 -0.37383932537E+02  0.13552263688E+03  0.41800000000E+01 0. -1.
</event>
<event>
11    1  0.2450992E-009  0.1394411E+03  0.7561462E-02  0.1108184E+00
         22   -1    0    0    0    0  0.00000000000E+00  0.00000000000E+00  0.64953250982E+03  0.64953250982E+03  0.00000000000E+00 0.  1.
         22   -1    0    0    0    0 -0.00000000000E+00 -0.00000000000E+00 -0.58427128878E+02  0.58427128878E+02  0.00000000000E+00 0.  1.
         25    2    1    2    0    0  0.57389936185E+01 -0.57294412565E+02  0.13003782820E+03  0.18940220026E+03  0.12509105062E+03 0.  0.
        -24    2    1    2    0    0 -0.77978233287E+02 -0.11397569215E+01  0.17847140195E+03  0.21011864820E+03  0.78840986150E+02 0.  0.
         24    2    1    2    0    0  0.72239239669E+02  0.58434169487E+02  0.28259615080E+03  0.30843879023E+03  0.81491367401E+02 0.  0.
        -11    1    5    5    0    0  0.35429091421E+02  0.60665440077E+02  0.10034103426E+03  0.12249015999E+03  0.00000000000E+00 0.  1.
         12    1    5    5    0    0  0.36810148248E+02 -0.22312705900E+01  0.18225511654E+03  0.18594863024E+03  0.00000000000E+00 0. -1.
         11    1    4    4    0    0 -0.98789537061E+01 -0.31006576093E+02  0.30923148565E+02  0.44891453579E+02  0.00000000000E+00 0. -1.
        -12    1    4    4    0    0 -0.68099279581E+02  0.29866819171E+02  0.14754825338E+03  0.16522719462E+03  0.00000000000E+00 0.  1.
          5    1    3    3  501    0 -0.23949641959E+02 -0.61464667051E+02  0.11538377403E+02  0.67097669101E+02  0.41800000000E+01 0. -1.
         -5    1    3    3    0  501  0.29688635578E+02  0.41702544856E+01  0.11849945079E+03  0.12230453116E+03  0.41800000000E+01 0. -1.
</event>
<event>
11    1  0.2450992E-009  0.2148583E+03  0.7561462E-02  0.1044487E+00
         22   -1    0    0    0    0  0.00000000000E+00  0.00000000000E+00  0.72489178281E+03  0.72489178281E+03  0.00000000000E+00 0. -1.
         22   -1    0    0    0    0 -0.00000000000E+00 -0.00000000000E+00 -0.33998740355E+03  0.33998740355E+03  0.00000000000E+00 0. -1.
         25    2    1    2    0    0  0.84261740285E+02  0.13298239715E+03 -0.24207546535E+03  0.31469275117E+03  0.12508652161E+03 0.  0.
        -24    2    1    2    0    0  0.80498573622E+02 -0.67400829062E+02  0.51297978813E+02  0.14247476853E+03  0.81514936812E+02 0.  0.
         24    2    1    2    0    0 -0.16476031391E+03 -0.65581568084E+02  0.57568186580E+03  0.60771166666E+03  0.80355186968E+02 0.  0.
        -11    1    5    5    0    0 -0.90563410326E+02  0.64437774855E+01  0.24772600270E+03  0.26383977329E+03  0.00000000000E+00 0.  1.
         12    1    5    5    0    0 -0.74196903581E+02 -0.72025345570E+02  0.32795586311E+03  0.34387189337E+03  0.00000000000E+00 0. -1.
         13    1    4    4    0    0  0.87914714224E+02 -0.44530863525E+02  0.16109992021E+02  0.99857531645E+02  0.00000000000E+00 0. -1.
        -14    1    4    4    0    0 -0.74161406020E+01 -0.22869965536E+02  0.35187986791E+02  0.42617236883E+02  0.00000000000E+00 0.  1.
          5    1    3    3  501    0  0.90663736400E+02  0.27543117060E+02 -0.10331562631E+03  0.14025023150E+03  0.41800000000E+01 0. -1.
         -5    1    3    3    0  501 -0.64019961148E+01  0.10543928009E+03 -0.13875983903E+03  0.17444251967E+03  0.41800000000E+01 0. -1.
</event>
<event>
11    1  0.2450992E-009  0.1618503E+03  0.7561462E-02  0.1085350E+00
         22   -1    0    0    0    0  0.00000000000E+00  0.00000000000E+00  0.59952159343E+02  0.59952159343E+02  0.00000000000E+00 0.  1.
         22   -1    0    0    0    0 -0.00000000000E+00 -0.00000000000E+00 -0.15099274835E+04  0.15099274835E+04  0.00000000000E+00 0. -1.
         25    2    1    2    0    0  0.11466326795E+03 -0.18717261754E+02 -0.83085759594E+03  0.84821551185E+03  0.12508880410E+03 0.  0.
        -24    2    1    2    0    0 -0.91302484026E+02  0.19599825340E+02 -0.62604951458E+03  0.63812622869E+03  0.80912250532E+02 0.  0.
         24    2    1    2    0    0 -0.23360783922E+02 -0.88256358681E+00  0.69317863155E+01  0.83537902354E+02  0.79900102154E+02 0.  0.
        -11    1    5    5    0    0 -0.31527957135E+02  0.24346637275E+01  0.39040894813E+02  0.50240731845E+02  0.00000000000E+00 0.  1.
         12    1    5    5    0    0  0.81671732127E+01 -0.33172273143E+01 -0.32109108498E+02  0.33297170508E+02  0.00000000000E+00 0. -1.
         13    1    4    4    0    0 -0.83322432234E+02  0.37877750456E+02 -0.58881950824E+03  0.59589073242E+03  0.00000000000E+00 0. -1.
        -14    1    4    4    0    0 -0.79800517921E+01 -0.18277925115E+02 -0.37230006341E+02  0.42235496271E+02  0.00000000000E+00 0.  1.
          5    1    3    3  501    0  0.41936474176E+02 -0.35697426850E+02 -0.65215987652E+03  0.65449442404E+03  0.41800000000E+01 0.  1.
         -5    1    3    3    0  501  0.72726793772E+02  0.16980165097E+02 -0.17869771942E+03  0.19372108781E+03  0.41800000000E+01 0.  1.
</event>
<event>
11    1  0.2450992E-009  0.2024520E+03  0.7561462E-02  0.1052803E+00
         22   -1    0    0    0    0  0.00000000000E+00  0.00000000000E+00  0.58779557976E+02  0.58779557976E+02  0.00000000000E+00 0. -1.
         22   -1    0    0    0    0 -0.00000000000E+00 -0.00000000000E+00 -0.21520888851E+04  0.21520888851E+04  0.00000000000E+00 0.  1.
         25    2    1    2    0    0  0.94657316394E+01  0.13843410769E+03 -0.10303527283E+04  0.10471547057E+04  0.12511047401E+03 0.  0.
         24    2    1    2    0    0 -0.12703684406E+03  0.10394019946E+03 -0.53629964683E+03  0.56664314094E+03  0.80778791575E+02 0.  0.
        -24    2    1    2    0    0  0.11757111242E+03 -0.24237430716E+03 -0.52665695206E+03  0.59707059650E+03  0.80978273705E+02 0.  0.
        -11    1    4    4    0    0 -0.20772102356E+02  0.35432723530E+02 -0.25432524700E+03  0.25762043668E+03  0.00000000000E+00 0.  1.
         12    1    4    4    0    0 -0.10626474170E+03  0.68507475934E+02 -0.28197439983E+03  0.30902270426E+03  0.00000000000E+00 0. -1.
         11    1    5    5    0    0  0.27684761151E+02 -0.33799710134E+02 -0.36799999990E+02  0.57123606367E+02  0.00000000000E+00 0. -1.
        -12    1    5    5    0    0  0.89886351266E+02 -0.20857459702E+03 -0.48985695207E+03  0.53994699013E+03  0.00000000000E+00 0.  1.
          5    1    3    3  501    0  0.31871847127E+02  0.13813946734E+03 -0.99521791963E+03  0.10052733494E+04  0.41800000000E+01 0.  1.
         -5    1    3    3    0  501 -0.22406115488E+02  0.29464035087E+00 -0.35134808635E+02  0.41881356258E+02  0.41800000000E+01 0.  1.
</event>
<event>
11    1  0.2450992E-009  0.1936516E+03  0.7561462E-02  0.1059106E+00
         22   -1    0    0    0    0  0.00000000000E+00  0.00000000000E+00  0.33828004372E+03  0.33828004372E+03  0.00000000000E+00 0.  1.
         22   -1    0    0    0    0 -0.00000000000E+00 -0.00000000000E+00 -0.19642747509E+03  0.19642747509E+03  0.00000000000E+00 0.  1.
         25    2    1    2    0    0  0.71129618235E+02 -0.55223448540E+02  0.11104487780E+03  0.18996697297E+03  0.12508970411E+03 0.  0.
         24    2    1    2    0    0 -0.11653088771E+03  0.13541606384E+03 -0.45614666605E+02  0.20233277043E+03  0.83312028220E+02 0.  0.
        -24    2    1    2    0    0  0.45401269476E+02 -0.80192615297E+02  0.76422357433E+02  0.14240777541E+03  0.77119822111E+02 0.  0.
        -13    1    4    4    0    0 -0.87564226794E+02  0.11687785042E+03 -0.10543634470E+01  0.14604464185E+03  0.00000000000E+00 0.  1.
         14    1    4    4    0    0 -0.28966660917E+02  0.18538213421E+02 -0.44560303158E+02  0.56288128580E+02  0.00000000000E+00 0. -1.
         11    1    5    5    0    0  0.18874213846E+02  0.12903530837E+02  0.96838904110E+01  0.24829715864E+02  0.00000000000E+00 0. -1.
        -12    1    5    5    0    0  0.26527055629E+02 -0.93096146134E+02  0.66738467023E+02  0.11757805954E+03  0.00000000000E+00 0.  1.
          5    1    3    3  501    0  0.70924513626E+02 -0.29381478502E+02  0.13443115398E+03  0.15486369966E+03  0.41800000000E+01 0.  1.
         -5    1    3    3    0  501  0.20510460937E+00 -0.25841970038E+02 -0.23386276178E+02  0.35103273306E+02  0.41800000000E+01 0.  1.
</event>
<event>
11    1  0.2450992E-009  0.2761836E+03  0.7561462E-02  0.1010807E+00
         22   -1    0    0    0    0  0.00000000000E+00  0.00000000000E+00  0.84121404180E+03  0.84121404180E+03  0.00000000000E+00 0. -1.
         22   -1    0    0    0    0 -0.00000000000E+00 -0.00000000000E+00 -0.68850000143E+03  0.68850000143E+03  0.00000000000E+00 0.  1.
         25    2    1    2    0    0  0.10866203794E+03  0.21627419777E+03 -0.58811576453E+03  0.64815824974E+03  0.12508795745E+03 0.  0.
        -24    2    1    2    0    0 -0.19396458478E+03 -0.27307283526E+03  0.55983206865E+03  0.65809657346E+03  0.86533932134E+02 0.  0.
         24    2    1    2    0    0  0.85302546844E+02  0.56798637490E+02  0.18099773626E+03  0.22345922003E+03  0.81677614831E+02 0.  0.
        -13    1    5    5    0    0  0.89250595138E+02  0.69443921551E+02  0.17620568667E+03  0.20937184861E+03  0.00000000000E+00 0.  1.
         14    1    5    5    0    0 -0.39480482944E+01 -0.12645284060E+02  0.47920495899E+01  0.14087371422E+02  0.00000000000E+00 0. -1.
         13    1    4    4    0    0 -0.11559749060E+03 -0.22147193674E+03  0.43904982532E+03  0.50515081680E+03  0.00000000000E+00 0. -1.
        -14    1    4    4    0    0 -0.78367094187E+02 -0.51600898519E+02  0.12078224333E+03  0.15294575667E+03  0.00000000000E+00 0.  1.
          5    1    3    3  501    0 -0.26675383918E+02  0.30150572905E+02 -0.63900043804E+02  0.75639415332E+02  0.41800000000E+01 0. -1.
         -5    1    3    3    0  501  0.13533742186E+03  0.18612362487E+03 -0.52421572073E+03  0.57251883441E+03  0.41800000000E+01 0. -1.
</event>
<event>
11    1  0.2450992E-009  0.1919474E+03  0.7561462E-02  0.1060369E+00
         22   -1    0    0    0    0  0.00000000000E+00  0.00000000000E+00  0.75218507370E+03  0.75218507370E+03  0.00000000000E+00 0.  1.
         22   -1    0    0    0    0 -0.00000000000E+00 -0.00000000000E+00 -0.15664645552E+03  0.15664645552E+03  0.00000000000E+00 0. -1.
         25    2    1    2    0    0 -0.21847613378E+03 -0.61414003113E+02  0.12355922002E+03  0.28708296613E+03  0.12508496226E+03 0.  0.
         24    2    1    2    0    0  0.11458220625E+03  0.15105068595E+02  0.12461154480E+02  0.14160451128E+03  0.80866013612E+02 0.  0.
        -24    2    1    2    0    0  0.10389392753E+03  0.46308934518E+02  0.45951824368E+03  0.48014405181E+03  0.80267232530E+02 0.  0.
        -13    1    4    4    0    0 -0.92258582240E+00  0.13999044651E+02  0.21575162243E+02  0.25735423866E+02  0.00000000000E+00 0.  1.
         14    1    4    4    0    0  0.11550479207E+03  0.11060239443E+01 -0.91140077629E+01  0.11586908742E+03  0.00000000000E+00 0. -1.
         13    1    5    5    0    0  0.40077809689E+02 -0.18831134715E+02  0.10235123102E+03  0.11151958104E+03  0.00000000000E+00 0. -1.
        -14    1    5    5    0    0  0.63816117838E+02  0.65140069233E+02  0.35716701267E+03  0.36862447077E+03  0.00000000000E+00 0.  1.
          5    1    3    3  501    0 -0.21151009544E+03 -0.38198946658E+02  0.14086095893E+03  0.25701159926E+03  0.41800000000E+01 0. -1.
         -5    1    3    3    0  501 -0.69660383341E+01 -0.23215056455E+02 -0.17301738917E+02  0.30071366877E+02  0.41800000000E+01 0. -1.
</event>
<event>
11    1  0.2450992E-009  0.3476058E+03  0.7561462E-02  0.9818405E-01
         22   -1    0    0    0    0  0.00000000000E+00  0.00000000000E+00  0.11673855402E+03  0.11673855402E+03  0.00000000000E+00 0.  1.
         22   -1    0    0    0    0 -0.00000000000E+00 -0.00000000000E+00 -0.28311051991E+04  0.28311051991E+04  0.00000000000E+00 0. -1.
         25    2    1    2    0    0 -0.16859734877E+03  0.46450695539E+02 -0.13226098077E+04  0.13399727868E+04  0.12509049840E+03 0.  0.
        -24    2    1    2    0    0  0.70284210212E+02 -0.36467593847E+03 -0.10703563358E+04  0.11357093080E+04  0.79022379072E+02 0.  0.
         24    2    1    2    0    0  0.98313138561E+02  0.31822524293E+03 -0.32140050160E+03  0.47216165835E+03  0.93303648016E+02 0.  0.
        -11    1    5    5    0    0  0.87679801743E+02  0.28390360463E+03 -0.31930357959E+03  0.43616943989E+03  0.00000000000E+00 0.  1.
         12    1    5    5    0    0  0.10633336819E+02  0.34321638298E+02 -0.20969220083E+01  0.35992218455E+02  0.00000000000E+00 0. -1.
         13    1    4    4    0    0  0.28560194118E+02 -0.15854355285E+03 -0.58435936935E+03  0.60615807789E+03  0.00000000000E+00 0. -1.
        -14    1    4    4    0    0  0.41724016094E+02 -0.20613238562E+03 -0.48599696645E+03  0.52955123012E+03  0.00000000000E+00 0.  1.
          5    1    3    3  501    0 -0.10712098660E+03  0.25006229356E+02 -0.11530695975E+04  0.11583122145E+04  0.41800000000E+01 0. -1.
         -5    1    3    3    0  501 -0.61476362170E+02  0.21444466184E+02 -0.16954021019E+03  0.18166057224E+03  0.41800000000E+01 0. -1.
</event>
<event>
11    1  0.2450992E-009  0.8231832E+03  0.7561462E-02  0.8868184E-01
         22   -1    0    0    0    0  0.00000000000E+00  0.00000000000E+00  0.30520540478E+03  0.30520540478E+03  0.00000000000E+00 0.  1.
         22   -1    0    0    0    0 -0.00000000000E+00 -0.00000000000E+00 -0.55506113361E+03  0.55506113361E+03  0.00000000000E+00 0.  1.
         25    2    1    2    0    0  0.59502963864E+02  0.26352510032E+03 -0.40726019836E+03  0.50447417897E+03  0.12508895584E+03 0.  0.
        -24    2    1    2    0    0 -0.35112245665E+02 -0.15840472286E+03  0.11360274081E+03  0.21400180799E+03  0.81032493992E+02 0.  0.
         24    2    1    2    0    0 -0.24390718199E+02 -0.10512037747E+03  0.43801728723E+02  0.14179055143E+03  0.80875015566E+02 0.  0.
        -11    1    5    5    0    0 -0.25947091642E+02 -0.91679674398E+02 -0.69383616004E+00  0.95283239193E+02  0.00000000000E+00 0.  1.
         12    1    5    5    0    0  0.15563734439E+01 -0.13440703068E+02  0.44495564883E+02  0.46507312237E+02  0.00000000000E+00 0. -1.
         11    1    4    4    0    0 -0.26079914482E+02 -0.81610644330E+01  0.35764057997E+01  0.27560036113E+02  0.00000000000E+00 0. -1.
        -12    1    4    4    0    0 -0.90323311827E+01 -0.15024365843E+03  0.11002633501E+03  0.18644177188E+03  0.00000000000E+00 0.  1.
          5    1    3    3  501    0  0.71727340156E+02  0.15776766263E+03 -0.33034168570E+03  0.37306641287E+03  0.41800000000E+01 0. -1.
         -5    1    3    3    0  501 -0.12224376292E+02  0.10575743769E+03 -0.76918512652E+02  0.13140776610E+03  0.41800000000E+01 0. -1.
</event>
<event>
11    1  0.2450992E-009  0.1534616E+03  0.7561462E-02  0.1093393E+00
         22   -1    0    0    0    0  0.00000000000E+00  0.00000000000E+00  0.10962717990E+04  0.10962717990E+04  0.00000000000E+00 0.  1.
         22   -1    0    0    0    0 -0.00000000000E+00 -0.00000000000E+00 -0.11551717697E+03  0.11551717697E+03  0.00000000000E+00 0. -1.
         25    2    1    2    0    0  0.24192539724E+02  0.66492262464E+02  0.32977423289E+00  0.14371964659E+03  0.12509487647E+03 0.  0.
        -24    2    1    2    0    0  0.13778509455E+02  0.14941751718E+02  0.57053498630E+00  0.80732724661E+02  0.78130301764E+02 0.  0.
         24    2    1    2    0    0 -0.37971049180E+02 -0.81434014183E+02  0.97985431281E+03  0.98733660472E+03  0.81521760507E+02 0.  0.
        -13    1    5    5    0    0 -0.19393450717E+02 -0.92862289234E+02  0.88166048219E+03  0.88674952300E+03  0.00000000000E+00 0.  1.
         14    1    5    5    0    0 -0.18577598463E+02  0.11428275051E+02  0.98193830624E+02  0.10058708171E+03  0.00000000000E+00 0. -1.
         13    1    4    4    0    0 -0.17746840540E+02  0.19517372408E+02 -0.27620817091E+02  0.38194079537E+02  0.00000000000E+00 0. -1.
        -14    1    4    4    0    0  0.31525349996E+02 -0.45756206897E+01  0.28191352078E+02  0.42538645124E+02  0.00000000000E+00 0.  1.
          5    1    3    3  501    0 -0.19054006724E+02  0.56976490346E+02 -0.48751972646E+02  0.77482919804E+02  0.41800000000E+01 0. -1.
         -5    1    3    3    0  501  0.43246546448E+02  0.95157721180E+01  0.49081746879E+02  0.66236726786E+02  0.41800000000E+01 0. -1.
</event>
<event>
11    1  0.2450992E-009  0.4661820E+03  0.7561462E-02  0.9472435E-01
         22   -1    0    0    0    0  0.00000000000E+00  0.00000000000E+00  0.68366383707E+03  0.68366383707E+03  0.00000000000E+00 0.  1.
         22   -1    0    0    0    0 -0.00000000000E+00 -0.00000000000E+00 -0.61996553970E+03  0.61996553970E+03  0.00000000000E+00 0.  1.
         25    2    1    2    0    0 -0.25031292067E+03 -0.11889409632E+03 -0.76500851424E+02  0.31351521988E+03  0.12508816265E+03 0.  0.
        -24    2    1    2    0    0  0.37270614104E+02 -0.40125541293E+03  0.46034568580E+02  0.41378864763E+03  0.81895410850E+02 0.  0.
         24    2    1    2    0    0  0.21304230657E+03  0.52014950926E+03  0.94164580211E+02  0.57632550926E+03  0.85683067688E+02 0.  0.
        -11    1    5    5    0    0  0.21662256504E+03  0.46812440148E+03  0.93203090184E+02  0.52416849100E+03  0.00000000000E+00 0.  1.
         12    1    5    5    0    0 -0.35802584689E+01  0.52025107780E+02  0.96149002698E+00  0.52157018256E+02  0.00000000000E+00 0. -1.
         13    1    4    4    0    0  0.50536938500E+02 -0.19335774335E+03 -0.25853319345E+01  0.19986966505E+03  0.00000000000E+00 0. -1.
        -14    1    4    4    0    0 -0.13266324396E+02 -0.20789766958E+03  0.48619900514E+02  0.21391898258E+03  0.00000000000E+00 0.  1.
          5    1    3    3  501    0 -0.69070878050E+02  0.23843013804E+02 -0.22054078099E+02  0.76440370634E+02  0.41800000000E+01 0.  1.
         -5    1    3    3    0  501 -0.18124204262E+03 -0.14273711013E+03 -0.54446773325E+02  0.23707484925E+03  0.41800000000E+01 0.  1.
</event>
<event>
11    1  0.2450992E-009  0.2362297E+03  0.7561462E-02  0.1031502E+00
         22   -1    0    0    0    0  0.00000000000E+00  0.00000000000E+00  0.12820452878E+04  0.12820452878E+04  0.00000000000E+00 0.  1.
         22   -1    0    0    0    0 -0.00000000000E+00 -0.00000000000E+00 -0.57529441342E+03  0.57529441342E+03  0.00000000000E+00 0. -1.
         25    2    1    2    0    0 -0.17858582558E+03 -0.49474082516E+02 -0.26892686150E+03  0.34972653278E+03  0.12508560651E+03 0.  0.
        -24    2    1    2    0    0  0.21683197776E+03  0.39285890396E+02 -0.21206065236E+03  0.31648286789E+03  0.81438305637E+02 0.  0.
         24    2    1    2    0    0 -0.38246152185E+02  0.10188192120E+02  0.11877383882E+04  0.11911303005E+04  0.80637129037E+02 0.  0.
        -11    1    5    5    0    0 -0.30318994297E+02  0.17228418381E+02  0.11696065773E+04  0.11701263203E+04  0.00000000000E+00 0.  1.
         12    1    5    5    0    0 -0.79271578879E+01 -0.70402262608E+01  0.18131810915E+02  0.21003980219E+02  0.00000000000E+00 0. -1.
         11    1    4    4    0    0  0.18456754980E+03  0.73783806479E+01 -0.19334278890E+03  0.26739681180E+03  0.00000000000E+00 0. -1.
        -12    1    4    4    0    0  0.32264427965E+02  0.31907509749E+02 -0.18717863453E+02  0.49086056090E+02  0.00000000000E+00 0.  1.
          5    1    3    3  501    0 -0.56175021835E+02 -0.19667115593E+02 -0.19425837228E+03  0.20321470448E+03  0.41800000000E+01 0. -1.
         -5    1    3    3    0  501 -0.12241080375E+03 -0.29806966923E+02 -0.74668489218E+02  0.14651182830E+03  0.41800000000E+01 0. -1.
</event>
<event>
11    1  0.2450992E-009  0.1341599E+03  0.7561462E-02  0.1114261E+00
         22   -1    0    0    0    0  0.00000000000E+00  0.00000000000E+00  0.72004104273E+03  0.72004104273E+03  0.00000000000E+00 0.  1.
         22   -1    0    0    0    0 -0.00000000000E+00 -0.00000000000E+00 -0.29632825540E+03  0.29632825540E+03  0.00000000000E+00 0.  1.
         25    2    1    2    0    0  0.31975737444E+02  0.26874810031E+02 -0.14794145104E+03  0.19818641155E+03  0.12508588084E+03 0.  0.
        -24    2    1    2    0    0  0.16383067422E+02 -0.33981282887E+02 -0.10405197792E+03  0.13614798370E+03  0.79286359928E+02 0.  0.
         24    2    1    2    0    0 -0.48358804867E+02  0.71064728561E+01  0.67570621630E+03  0.68203490289E+03  0.78763202355E+02 0.  0.
        -11    1    5    5    0    0 -0.26032756038E+02  0.33978690302E+02  0.54696872849E+03  0.54864109009E+03  0.00000000000E+00 0.  1.
         12    1    5    5    0    0 -0.22326048829E+02 -0.26872217446E+02  0.12873748781E+03  0.13339381280E+03  0.00000000000E+00 0. -1.
         11    1    4    4    0    0 -0.15513261666E+02  0.80421990483E+01 -0.72715880158E+02  0.74785944403E+02  0.00000000000E+00 0. -1.
        -12    1    4    4    0    0  0.31896329088E+02 -0.42023481936E+02 -0.31336097763E+02  0.61362039294E+02  0.00000000000E+00 0.  1.
          5    1    3    3  501    0  0.10016159147E+02  0.54721199543E+02 -0.15231580803E+03  0.16221069909E+03  0.41800000000E+01 0. -1.
         -5    1    3    3    0  501  0.21959578298E+02 -0.27846389512E+02  0.43743569875E+01  0.35975712459E+02  0.41800000000E+01 0. -1.
</event>
<event>
11    1  0.2450992E-009  0.1297606E+03  0.7561462E-02  0.1119564E+00
         22   -1    0    0    0    0  0.00000000000E+00  0.00000000000E+00  0.72445493485E+03  0.72445493485E+03  0.00000000000E+00 0.  1.
         22   -1    0    0    0    0 -0.00000000000E+00 -0.00000000000E+00 -0.63702146433E+03  0.63702146433E+03  0.00000000000E+00 0. -1.
         25    2    1    2    0    0  0.23783743969E+02  0.62939841440E+01 -0.37169135037E+03  0.39294703085E+03  0.12509048087E+03 0.  0.
        -24    2    1    2    0    0 -0.14858585038E+02 -0.48039823456E+02 -0.24264178192E+03  0.26078446781E+03  0.81270548948E+02 0.  0.
         24    2    1    2    0    0 -0.89251589309E+01  0.41745839312E+02  0.70176660280E+03  0.70774490052E+03  0.81265649812E+02 0.  0.
        -13    1    5    5    0    0 -0.40146712341E+02  0.28057698869E+02  0.55097781643E+03  0.55315056465E+03  0.00000000000E+00 0.  1.
         14    1    5    5    0    0  0.31221553410E+02  0.13688140443E+02  0.15078878638E+03  0.15459433587E+03  0.00000000000E+00 0. -1.
         13    1    4    4    0    0 -0.72805366088E+01  0.70122754753E+00 -0.18404415222E+03  0.18418943482E+03  0.00000000000E+00 0. -1.
        -14    1    4    4    0    0 -0.75780484294E+01 -0.48741051003E+02 -0.58597629704E+02  0.76595032984E+02  0.00000000000E+00 0.  1.
          5    1    3    3  501    0  0.42729090268E+02  0.26857784703E+02 -0.35794729290E+03  0.36151189835E+03  0.41800000000E+01 0.  1.
         -5    1    3    3    0  501 -0.18945346299E+02 -0.20563800559E+02 -0.13744057466E+02  0.31435132502E+02  0.41800000000E+01 0.  1.
</event>
<event>
11    1  0.2450992E-009  0.5816323E+03  0.7561462E-02  0.9227595E-01
         22   -1    0    0    0    0  0.00000000000E+00  0.00000000000E+00  0.88761377676E+02  0.88761377676E+02  0.00000000000E+00 0. -1.
         22   -1    0    0    0    0 -0.00000000000E+00 -0.00000000000E+00 -0.95282462372E+03  0.95282462372E+03  0.00000000000E+00 0. -1.
         25    2    1    2    0    0  0.11966704031E+03 -0.14683562185E+03 -0.71147448582E+03  0.74680950747E+03  0.12509035172E+03 0.  0.
        -24    2    1    2    0    0 -0.46680378084E+02  0.50342441913E+02 -0.68388319468E+02  0.12709412296E+03  0.82234631970E+02 0.  0.
         24    2    1    2    0    0 -0.72986662225E+02  0.96493179937E+02 -0.84200440749E+02  0.16768237096E+03  0.79935453158E+02 0.  0.
        -13    1    5    5    0    0 -0.30385948738E+02  0.93836743848E+02 -0.75273151951E+02  0.12407533107E+03  0.00000000000E+00 0.  1.
         14    1    5    5    0    0 -0.42600713488E+02  0.26564360891E+01 -0.89272887981E+01  0.43607039886E+02  0.00000000000E+00 0. -1.
         13    1    4    4    0    0 -0.69773310766E+02  0.32745146081E+02 -0.57192128675E+02  0.95976554790E+02  0.00000000000E+00 0. -1.
        -14    1    4    4    0    0  0.23092932682E+02  0.17597295832E+02 -0.11196190793E+02  0.31117568168E+02  0.00000000000E+00 0.  1.
          5    1    3    3  501    0  0.94238683299E+02 -0.70249887709E+02 -0.22718550564E+03  0.25582553142E+03  0.41800000000E+01 0.  1.
         -5    1    3    3    0  501  0.25428357010E+02 -0.76585734141E+02 -0.48428898019E+03  0.49098397606E+03  0.41800000000E+01 0.  1.
</event>
<event>
11    1  0.2450992E-009  0.1457287E+03  0.7561462E-02  0.1101325E+00
         22   -1    0    0    0    0  0.00000000000E+00  0.00000000000E+00  0.11799658655E+03  0.11799658655E+03  0.00000000000E+00 0.  1.
         22   -1    0    0    0    0 -0.00000000000E+00 -0.00000000000E+00 -0.58013968781E+03  0.58013968781E+03  0.00000000000E+00 0.  1.
         25    2    1    2    0    0  0.20797603900E+02  0.43334991804E+02 -0.33313968331E+03  0.35908261004E+03  0.12509120830E+03 0.  0.
        -24    2    1    2    0    0 -0.10883965240E+03 -0.10490960494E+03 -0.11015322788E+03  0.20350879272E+03  0.80187280523E+02 0.  0.
         24    2    1    2    0    0  0.88042048504E+02  0.61574613138E+02 -0.18850190071E+02  0.13554487159E+03  0.80462707274E+02 0.  0.
        -11    1    5    5    0    0  0.88938978939E+02  0.30932118883E+02  0.83869795308E+01  0.94537185165E+02  0.00000000000E+00 0.  1.
         12    1    5    5    0    0 -0.89693043481E+00  0.30642494254E+02 -0.27237169602E+02  0.41007686429E+02  0.00000000000E+00 0. -1.
         11    1    4    4    0    0 -0.29271427423E+02 -0.81740924899E+02 -0.69431638957E+02  0.11117170393E+03  0.00000000000E+00 0. -1.
        -12    1    4    4    0    0 -0.79568224980E+02 -0.23168680042E+02 -0.40721588918E+02  0.92337088786E+02  0.00000000000E+00 0.  1.
          5    1    3    3  501    0  0.92360103924E+01  0.81636326612E+02 -0.28347939928E+03  0.29517424672E+03  0.41800000000E+01 0.  1.
         -5    1    3    3    0  501  0.11561593507E+02 -0.38301334808E+02 -0.49660284037E+02  0.63908363327E+02  0.41800000000E+01 0.  1.
</event>
<event>
11    1  0.2450992E-009  0.2788855E+03  0.7561462E-02  0.1009546E+00
         22   -1    0    0    0    0  0.00000000000E+00  0.00000000000E+00  0.70742866013E+03  0.70742866013E+03  0.00000000000E+00 0.  1.
         22   -1    0    0    0    0 -0.00000000000E+00 -0.00000000000E+00 -0.89215979145E+03  0.89215979145E+03  0.00000000000E+00 0. -1.
         25    2    1    2    0    0  0.74006535138E+01  0.25920668087E+03 -0.82282621233E+03  0.87174260865E+03  0.12509727003E+03 0.  0.
        -24    2    1    2    0    0 -0.69558398097E+02 -0.14498584320E+03  0.21403115424E+03  0.27995559945E+03  0.81893450287E+02 0.  0.
         24    2    1    2    0    0  0.62157744583E+02 -0.11422083767E+03  0.42406392677E+03  0.44789024348E+03  0.62172914072E+02 0.  0.
        -11    1    5    5    0    0  0.66800757224E+02 -0.65674007626E+02  0.24481555154E+03  0.26212605883E+03  0.00000000000E+00 0.  1.
         12    1    5    5    0    0 -0.46430126409E+01 -0.48546830043E+02  0.17924837523E+03  0.18576418465E+03  0.00000000000E+00 0. -1.
         13    1    4    4    0    0 -0.15882955252E+02 -0.29233536482E+02  0.30700086982E+01  0.33410969399E+02  0.00000000000E+00 0. -1.
        -14    1    4    4    0    0 -0.53675442845E+02 -0.11575230672E+03  0.21096114555E+03  0.24654463005E+03  0.00000000000E+00 0.  1.
          5    1    3    3  501    0 -0.49877462836E+02  0.88405108971E+02 -0.21547158816E+03  0.23821986125E+03  0.41800000000E+01 0.  1.
         -5    1    3    3    0  501  0.57278116350E+02  0.17080157190E+03 -0.60735462417E+03  0.63352274740E+03  0.41800000000E+01 0.  1.
</event>
<event>
11    1  0.2450992E-009  0.3987893E+03  0.7561462E-02  0.9653337E-01
         22   -1    0    0    0    0  0.00000000000E+00  0.00000000000E+00  0.16546601023E+04  0.16546601023E+04  0.00000000000E+00 0. -1.
         22   -1    0    0    0    0 -0.00000000000E+00 -0.00000000000E+00 -0.35072015469E+03  0.35072015469E+03  0.00000000000E+00 0.  1.
         25    2    1    2    0    0 -0.37048972660E+03 -0.60485509960E+02 -0.15315451789E+03  0.42429310388E+03  0.12508875736E+03 0.  0.
         24    2    1    2    0    0  0.31936123669E+02 -0.11332519859E+03  0.11337429325E+03  0.18225404588E+03  0.80624377463E+02 0.  0.
        -24    2    1    2    0    0  0.33855360293E+03  0.17381070855E+03  0.13437201723E+04  0.13988331073E+04  0.79507585140E+02 0.  0.
        -11    1    4    4    0    0 -0.24773205802E+02 -0.15213392958E+02  0.18486238129E+02  0.34451415808E+02  0.00000000000E+00 0.  1.
         12    1    4    4    0    0  0.56709329470E+02 -0.98111805629E+02  0.94888055116E+02  0.14780263007E+03  0.00000000000E+00 0. -1.
         11    1    5    5    0    0  0.21109874033E+03  0.80897412181E+02  0.89835715986E+03  0.92636529304E+03  0.00000000000E+00 0. -1.
        -12    1    5    5    0    0  0.12745486260E+03  0.92913296366E+02  0.44536301244E+03  0.47246781423E+03  0.00000000000E+00 0.  1.
          5    1    3    3  501    0 -0.13907705554E+03 -0.17886419266E+01 -0.11897941836E+03  0.18308249783E+03  0.41800000000E+01 0. -1.
         -5    1    3    3    0  501 -0.23141267106E+03 -0.58696868034E+02 -0.34175099535E+02  0.24121060605E+03  0.41800000000E+01 0. -1.
</event>
<event>
11    1  0.2450992E-009  0.1667439E+03  0.7561462E-02  0.1080901E+00
         22   -1    0    0    0    0  0.00000000000E+00  0.00000000000E+00  0.99737283958E+02  0.99737283958E+02  0.00000000000E+00 0. -1.
         22   -1    0    0    0    0 -0.00000000000E+00 -0.00000000000E+00 -0.15302502983E+04  0.15302502983E+04  0.00000000000E+00 0.  1.
         25    2    1    2    0    0 -0.28471324178E+02  0.76640833659E+02 -0.11280405788E+04  0.11378959424E+04  0.12508874768E+03 0.  0.
        -24    2    1    2    0    0  0.11807158294E+03 -0.44923547704E+01 -0.31666527766E+03  0.34716155825E+03  0.79266446257E+02 0.  0.
         24    2    1    2    0    0 -0.89600258758E+02 -0.72148478889E+02  0.14192842050E+02  0.14493008160E+03  0.87003921821E+02 0.  0.
        -13    1    5    5    0    0  0.65442780964E+01 -0.34587140849E+02 -0.14071330016E+02  0.37909104663E+02  0.00000000000E+00 0.  1.
         14    1    5    5    0    0 -0.96144536855E+02 -0.37561338040E+02  0.28264172067E+02  0.10702097694E+03  0.00000000000E+00 0. -1.
         11    1    4    4    0    0  0.12305187699E+03 -0.87632985993E+01 -0.31742754282E+03  0.34055661024E+03  0.00000000000E+00 0. -1.
        -12    1    4    4    0    0 -0.49802940557E+01  0.42709438289E+01  0.76226516268E+00  0.66049480126E+01  0.00000000000E+00 0.  1.
          5    1    3    3  501    0 -0.52136550754E+02  0.90685564666E+02 -0.10467491434E+04  0.10519711656E+04  0.41800000000E+01 0.  1.
         -5    1    3    3    0  501  0.23665226575E+02 -0.14044731007E+02 -0.81291435361E+02  0.85924776875E+02  0.41800000000E+01 0.  1.
</event>
<event>
11    1  0.2450992E-009  0.5450789E+03  0.7561462E-02  0.9298074E-01
         22   -1    0    0    0    0  0.00000000000E+00  0.00000000000E+00  0.93855213327E+03  0.93855213327E+03  0.00000000000E+00 0. -1.
         22   -1    0    0    0    0 -0.00000000000E+00 -0.00000000000E+00 -0.10733702936E+04  0.10733702936E+04  0.00000000000E+00 0. -1.
         25    2    1    2    0    0 -0.64295431136E+03  0.26084740708E+03 -0.31199723125E+03  0.77098687097E+03  0.12508743587E+03 0.  0.
         24    2    1    2    0    0  0.30231031967E+03 -0.35949783181E+03 -0.35689009034E+03  0.59517806672E+03  0.78969450232E+02 0.  0.
        -24    2    1    2    0    0  0.34064399170E+03  0.98650424727E+02  0.53406916126E+03  0.64575748918E+03  0.77476644538E+02 0.  0.
        -13    1    4    4    0    0  0.16345147613E+02  0.15667825933E+00 -0.77289681520E+01  0.18081077049E+02  0.00000000000E+00 0.  1.
         14    1    4    4    0    0  0.28596517205E+03 -0.35965451007E+03 -0.34916112219E+03  0.57709698967E+03  0.00000000000E+00 0. -1.
         13    1    5    5    0    0  0.14926963980E+03  0.47433039658E+02  0.16913022394E+03  0.23051323447E+03  0.00000000000E+00 0. -1.
        -14    1    5    5    0    0  0.19137435190E+03  0.51217385068E+02  0.36493893732E+03  0.41524425471E+03  0.00000000000E+00 0.  1.
          5    1    3    3  501    0 -0.27219834221E+03  0.45199642275E+02 -0.12992323833E+03  0.30501223815E+03  0.41800000000E+01 0. -1.
         -5    1    3    3    0  501 -0.37075596915E+03  0.21564776481E+03 -0.18207399292E+03  0.46597463282E+03  0.41800000000E+01 0. -1.
</event>
<event>
11    1  0.2450992E-009  0.1435491E+03  0.7561462E-02  0.1103659E+00
         22   -1    0    0    0    0  0.00000000000E+00  0.00000000000E+00  0.15730055317E+03  0.15730055317E+03  0.00000000000E+00 0. -1.
         22   -1    0    0    0    0 -0.00000000000E+00 -0.00000000000E+00 -0.37975265251E+03  0.37975265251E+03  0.00000000000E+00 0.  1.
         25    2    1    2    0    0 -0.28779864281E+02  0.69509008017E+02 -0.15610981061E+03  0.21372451425E+03  0.12509241479E+03 0.  0.
         24    2    1    2    0    0 -0.51667439228E+02 -0.67497393451E+02 -0.14182965626E+03  0.18578348075E+03  0.84701994826E+02 0.  0.
        -24    2    1    2    0    0  0.80447303509E+02 -0.20116145660E+01  0.75487367529E+02  0.13754521069E+03  0.82125069808E+02 0.  0.
        -13    1    4    4    0    0  0.26657351358E+01  0.16636544310E+02 -0.80639242929E+01  0.18679069179E+02  0.00000000000E+00 0.  1.
         14    1    4    4    0    0 -0.54333174364E+02 -0.84133937761E+02 -0.13376573196E+03  0.16710441157E+03  0.00000000000E+00 0. -1.
         13    1    5    5    0    0  0.38282415635E+02 -0.15670689159E+02  0.82862447205E+02  0.92613708502E+02  0.00000000000E+00 0. -1.
        -14    1    5    5    0    0  0.42164887875E+02  0.13659074593E+02 -0.73750796767E+01  0.44931502184E+02  0.00000000000E+00 0.  1.
          5    1    3    3  501    0  0.31903939403E+02  0.55594788398E+02 -0.13205631220E+03  0.14685020885E+03  0.41800000000E+01 0. -1.
         -5    1    3    3    0  501 -0.60683803684E+02  0.13914219619E+02 -0.24053498410E+02  0.66874305402E+02  0.41800000000E+01 0. -1.
</event>
<event>
11    1  0.2450992E-009  0.4410476E+03  0.7561462E-02  0.9535851E-01
         22   -1    0    0    0    0  0.00000000000E+00  0.00000000000E+00  0.67699430118E+03  0.67699430118E+03  0.00000000000E+00 0.  1.
         22   -1    0    0    0    0 -0.00000000000E+00 -0.00000000000E+00 -0.82885820532E+03  0.82885820532E+03  0.00000000000E+00 0. -1.
         25    2    1    2    0    0  0.39469105693E+02 -0.88772330491E+02 -0.24273344778E+03  0.28985799746E+03  0.12513910281E+03 0.  0.
         24    2    1    2    0    0  0.22267143062E+03 -0.15328953751E+03 -0.46887227620E+03  0.54734311910E+03  0.81627387022E+02 0.  0.
        -24    2    1    2    0    0 -0.26214053632E+03  0.24206186800E+03  0.55974181984E+03  0.66865138994E+03  0.80449783491E+02 0.  0.
        -13    1    4    4    0    0  0.58398620742E+02 -0.11781358170E+01 -0.91345717612E+02  0.10842429172E+03  0.00000000000E+00 0.  1.
         14    1    4    4    0    0  0.16427280988E+03 -0.15211140169E+03 -0.37752655859E+03  0.43891882738E+03  0.00000000000E+00 0. -1.
         13    1    5    5    0    0 -0.14530209757E+02  0.56416078545E+01  0.66094780602E+02  0.67907840177E+02  0.00000000000E+00 0. -1.
        -14    1    5    5    0    0 -0.24761032656E+03  0.23642026015E+03  0.49364703924E+03  0.60074354976E+03  0.00000000000E+00 0.  1.
          5    1    3    3  501    0  0.31652157531E+01 -0.23549874252E+02  0.10135183630E+02  0.26168865380E+02  0.41800000000E+01 0. -1.
         -5    1    3    3    0  501  0.36303889940E+02 -0.65222456239E+02 -0.25286863141E+03  0.26368913208E+03  0.41800000000E+01 0. -1.
</event>
<event>
11    1  0.2450992E-009  0.9275341E+03  0.7561462E-02  0.8751168E-01
         22   -1    0    0    0    0  0.00000000000E+00  0.00000000000E+00  0.17584394814E+04  0.17584394814E+04  0.00000000000E+00 0.  1.
         22   -1    0    0    0    0 -0.00000000000E+00 -0.00000000000E+00 -0.90580655958E+03  0.90580655958E+03  0.00000000000E+00 0.  1.
         25    2    1    2    0    0  0.28475928679E+03 -0.41027525063E+03 -0.94704131989E+02  0.52347930950E+03  0.12509229461E+03 0.  0.
         24    2    1    2    0    0 -0.87818023365E+03 -0.35218042964E+03  0.45913726830E+03  0.10544031649E+04  0.75679754478E+02 0.  0.
        -24    2    1    2    0    0  0.59342094687E+03  0.76245568028E+03  0.48819978555E+03  0.10863635666E+04  0.91431305794E+02 0.  0.
        -11    1    4    4    0    0 -0.55498539191E+03 -0.18984627767E+03  0.26090243754E+03  0.64196610214E+03  0.00000000000E+00 0.  1.
         12    1    4    4    0    0 -0.32319484174E+03 -0.16233415197E+03  0.19823483077E+03  0.41243706278E+03  0.00000000000E+00 0. -1.
         13    1    5    5    0    0  0.44162990368E+03  0.59989992853E+03  0.33822920986E+03  0.81811728650E+03  0.00000000000E+00 0. -1.
        -14    1    5    5    0    0  0.15179104319E+03  0.16255575175E+03  0.14997057569E+03  0.26824628011E+03  0.00000000000E+00 0.  1.
          5    1    3    3  501    0  0.16643256854E+03 -0.23536494213E+03  0.84519418050E+01  0.28841872958E+03  0.41800000000E+01 0. -1.
         -5    1    3    3    0  501  0.11832671825E+03 -0.17491030851E+03 -0.10315607379E+03  0.23506057992E+03  0.41800000000E+01 0. -1.
</event>
<event>
11    1  0.2450992E-009  0.3545243E+03  0.7561462E-02  0.9794370E-01
         22   -1    0    0    0    0  0.00000000000E+00  0.00000000000E+00  0.16865068346E+03  0.16865068346E+03  0.00000000000E+00 0.  1.
         22   -1    0    0    0    0 -0.00000000000E+00 -0.00000000000E+00 -0.32386600506E+04  0.32386600506E+04  0.00000000000E+00 0.  1.
         25    2    1    2    0    0 -0.22376844839E+03 -0.23341578763E+03 -0.21126005376E+04  0.21408605318E+04  0.12509011495E+03 0.  0.
        -24    2    1    2    0    0  0.22311483378E+03  0.26941752551E+03 -0.10666965018E+04  0.11256900341E+04  0.83490082191E+02 0.  0.
         24    2    1    2    0    0  0.65361461559E+00 -0.36001737882E+02  0.10928767225E+03  0.14076016815E+03  0.81074516896E+02 0.  0.
        -13    1    5    5    0    0  0.38988019099E+02 -0.30480123396E+02  0.68585089639E+02  0.84575517003E+02  0.00000000000E+00 0.  1.
         14    1    5    5    0    0 -0.38334404483E+02 -0.55216144866E+01  0.40702582608E+02  0.56184651148E+02  0.00000000000E+00 0. -1.
         11    1    4    4    0    0  0.32471321519E+02  0.20939400873E+02 -0.59674239391E+02  0.71090506237E+02  0.00000000000E+00 0. -1.
        -12    1    4    4    0    0  0.19064351226E+03  0.24847812464E+03 -0.10070222624E+04  0.10545995279E+04  0.00000000000E+00 0.  1.
          5    1    3    3  501    0 -0.82130696401E+02 -0.16553725768E+03 -0.96367339072E+03  0.98123998662E+03  0.41800000000E+01 0.  1.
         -5    1    3    3    0  501 -0.14163775199E+03 -0.67878529951E+02 -0.11489271469E+04  0.11596205452E+04  0.41800000000E+01 0.  1.
</event>
<event>
11    1  0.2450992E-009  0.1461566E+03  0.7561462E-02  0.1100872E+00
         22   -1    0    0    0    0  0.00000000000E+00  0.00000000000E+00  0.27082534255E+02  0.27082534255E+02  0.00000000000E+00 0.  1.
         22   -1    0    0    0    0 -0.00000000000E+00 -0.00000000000E+00 -0.19950906685E+04  0.19950906685E+04  0.00000000000E+00 0.  1.
         25    2    1    2    0    0  0.22005251991E+02  0.15018136022E+02 -0.10098065598E+04  0.10178738017E+04  0.12509201640E+03 0.  0.
         24    2    1    2    0    0 -0.32110988695E+02 -0.12606124313E+03 -0.60519074859E+03  0.62421087023E+03  0.80379199493E+02 0.  0.
        -24    2    1    2    0    0  0.10105736705E+02  0.11104310710E+03 -0.35301082587E+03  0.38008853079E+03  0.86127524672E+02 0.  0.
        -11    1    4    4    0    0 -0.72532231253E+01 -0.51527668186E+02 -0.97881904762E+02  0.11085385476E+03  0.00000000000E+00 0.  1.
         12    1    4    4    0    0 -0.24857765570E+02 -0.74533574941E+02 -0.50730884383E+03  0.51335701547E+03  0.00000000000E+00 0. -1.
         11    1    5    5    0    0  0.30801029940E+02  0.58650211566E+01 -0.53987290745E+02  0.62431798633E+02  0.00000000000E+00 0. -1.
        -12    1    5    5    0    0 -0.20695293235E+02  0.10517808595E+03 -0.29902353512E+03  0.31765673215E+03  0.00000000000E+00 0.  1.
          5    1    3    3  501    0  0.55346456589E+02  0.47923310806E+02 -0.77105741108E+03  0.77453655663E+03  0.41800000000E+01 0.  1.
         -5    1    3    3    0  501 -0.33341204598E+02 -0.32905174784E+02 -0.23874914869E+03  0.24333724510E+03  0.41800000000E+01 0.  1.
</event>
<event>
11    1  0.2450992E-009  0.1667482E+03  0.7561462E-02  0.1080897E+00
         22   -1    0    0    0    0  0.00000000000E+00  0.00000000000E+00  0.39889696310E+03  0.39889696310E+03  0.00000000000E+00 0.  1.
         22   -1    0    0    0    0 -0.00000000000E+00 -0.00000000000E+00 -0.54905890669E+03  0.54905890669E+03  0.00000000000E+00 0. -1.
         25    2    1    2    0    0  0.57082536388E+02 -0.56042456399E+02 -0.36893130367E+03  0.39769172694E+03  0.12509688234E+03 0.  0.
         24    2    1    2    0    0  0.47573702331E+02  0.17563466145E+02 -0.13757061540E+03  0.16809079701E+03  0.82201638194E+02 0.  0.
        -24    2    1    2    0    0 -0.10465623872E+03  0.38478990254E+02  0.35633997548E+03  0.38217334584E+03  0.81515195869E+02 0.  0.
        -11    1    4    4    0    0  0.65978238614E+02 -0.44839394848E+01 -0.80324835621E+02  0.10404476393E+03  0.00000000000E+00 0.  1.
         12    1    4    4    0    0 -0.18404536283E+02  0.22047405630E+02 -0.57245779774E+02  0.64046033076E+02  0.00000000000E+00 0. -1.
         11    1    5    5    0    0 -0.49689810916E+02  0.32731759414E+01  0.56510543929E+02  0.75320864073E+02  0.00000000000E+00 0. -1.
        -12    1    5    5    0    0 -0.54966427803E+02  0.35205814313E+02  0.29982943155E+03  0.30685248177E+03  0.00000000000E+00 0.  1.
          5    1    3    3  501    0  0.26808562661E+01 -0.30444361658E+02 -0.31593288569E+03  0.31743520096E+03  0.41800000000E+01 0.  1.
         -5    1    3    3    0  501  0.54401680122E+02 -0.25598094742E+02 -0.52998417972E+02  0.80256525978E+02  0.41800000000E+01 0.  1.
</event>
<event>
11    1  0.2450992E-009  0.1457598E+03  0.7561462E-02  0.1101292E+00
         22   -1    0    0    0    0  0.00000000000E+00  0.00000000000E+00  0.45425166341E+03  0.45425166341E+03  0.00000000000E+00 0. -1.
         22   -1    0    0    0    0 -0.00000000000E+00 -0.00000000000E+00 -0.99006468624E+03  0.99006468624E+03  0.00000000000E+00 0.  1.
         25    2    1    2    0    0  0.17661025197E+02  0.53479864951E+01 -0.39208857442E+03  0.41197199551E+03  0.12508781764E+03 0.  0.
         24    2    1    2    0    0  0.75030445159E+01  0.66288733831E+02 -0.57655389652E+03  0.58565143270E+03  0.78247767460E+02 0.  0.
        -24    2    1    2    0    0 -0.25164069713E+02 -0.71636720327E+02  0.43282944811E+03  0.44669292144E+03  0.80175961575E+02 0.  0.
        -11    1    4    4    0    0 -0.17528045450E+02  0.41534892869E+02 -0.49200885274E+03  0.49406992508E+03  0.00000000000E+00 0.  1.
         12    1    4    4    0    0  0.25031089966E+02  0.24753840962E+02 -0.84545043787E+02  0.91581507610E+02  0.00000000000E+00 0. -1.
         11    1    5    5    0    0 -0.39471043325E+02 -0.20889534225E+02  0.30747797129E+03  0.31070410157E+03  0.00000000000E+00 0. -1.
        -12    1    5    5    0    0  0.14306973611E+02 -0.50747186101E+02  0.12535147681E+03  0.13598881987E+03  0.00000000000E+00 0.  1.
          5    1    3    3  501    0  0.54923345224E+02 -0.18792322310E+02 -0.33244050345E+03  0.33749649771E+03  0.41800000000E+01 0.  1.
         -5    1    3    3    0  501 -0.37262320026E+02  0.24140308805E+02 -0.59648070968E+02  0.74475497804E+02  0.41800000000E+01 0.  1.
</event>
<event>
11    1  0.2450992E-009  0.1256380E+03  0.7561462E-02  0.1124748E+00
         22   -1    0    0    0    0  0.00000000000E+00  0.00000000000E+00  0.20763144923E+03  0.20763144923E+03  0.00000000000E+00 0.  1.
         22   -1    0    0    0    0 -0.00000000000E+00 -0.00000000000E+00 -0.24343291278E+03  0.24343291278E+03  0.00000000000E+00 0. -1.
         25    2    1    2    0    0  0.39218169033E+00  0.28507127484E+02 -0.14054431703E+03  0.19029874228E+03  0.12509235044E+03 0.  0.
         24    2    1    2    0    0 -0.45390060741E+01 -0.18553450621E+02 -0.44566011914E+02  0.91017776791E+02  0.77027742846E+02 0.  0.
        -24    2    1    2    0    0  0.41468243837E+01 -0.99536768622E+01  0.14930886540E+03  0.16974784295E+03  0.80030750738E+02 0.  0.
        -13    1    4    4    0    0 -0.26799516938E+02 -0.38409254970E+02 -0.15406131224E+02  0.49303487247E+02  0.00000000000E+00 0.  1.
         14    1    4    4    0    0  0.22260510864E+02  0.19855804348E+02 -0.29159880690E+02  0.41714289543E+02  0.00000000000E+00 0. -1.
         11    1    5    5    0    0  0.39173472957E+02  0.97519710408E+01  0.80723175794E+02  0.90254601174E+02  0.00000000000E+00 0. -1.
        -12    1    5    5    0    0 -0.35026648573E+02 -0.19705647903E+02  0.68585689602E+02  0.79493241773E+02  0.00000000000E+00 0.  1.
          5    1    3    3  501    0 -0.44567875494E+02  0.25304288501E+02 -0.10339972433E+02  0.52449880576E+02  0.41800000000E+01 0.  1.
         -5    1    3    3    0  501  0.44960057184E+02  0.32028389822E+01 -0.13020434460E+03  0.13784886170E+03  0.41800000000E+01 0.  1.
</event>
<event>
11    1  0.2450992E-009  0.1816350E+03  0.7561462E-02  0.1068328E+00
         22   -1    0    0    0    0  0.00000000000E+00  0.00000000000E+00  0.18582959574E+03  0.18582959574E+03  0.00000000000E+00 0.  1.
         22   -1    0    0    0    0 -0.00000000000E+00 -0.00000000000E+00 -0.33408721784E+03  0.33408721784E+03  0.00000000000E+00 0.  1.
         25    2    1    2    0    0  0.59894794391E+02  0.83662507278E+02 -0.89746152348E+02  0.18518307127E+03  0.12510634079E+03 0.  0.
        -24    2    1    2    0    0 -0.14979312327E+03 -0.97678672778E+02 -0.72283231652E+02  0.21006144670E+03  0.83197613660E+02 0.  0.
         24    2    1    2    0    0  0.89898328879E+02  0.14016165500E+02  0.13771761894E+02  0.12467229560E+03  0.84115143907E+02 0.  0.
        -13    1    5    5    0    0  0.33448125332E+02 -0.17467128339E+02 -0.28632824809E+02  0.47367882760E+02  0.00000000000E+00 0.  1.
         14    1    5    5    0    0  0.56450203547E+02  0.31483293839E+02  0.42404586703E+02  0.77304412842E+02  0.00000000000E+00 0. -1.
         11    1    4    4    0    0 -0.81544236208E+01  0.12319916212E+02 -0.16727656036E+02  0.22317917388E+02  0.00000000000E+00 0. -1.
        -12    1    4    4    0    0 -0.14163869965E+03 -0.10999858899E+03 -0.55555575616E+02  0.18774352932E+03  0.00000000000E+00 0.  1.
          5    1    3    3  501    0  0.17330331327E+02  0.43638195023E+02  0.27173789037E+02  0.54410657590E+02  0.41800000000E+01 0.  1.
         -5    1    3    3    0  501  0.42564463063E+02  0.40024312255E+02 -0.11691994138E+03  0.13077241368E+03  0.41800000000E+01 0.  1.
</event>
<event>
11    1  0.2450992E-009  0.2066345E+03  0.7561462E-02  0.1049929E+00
         22   -1    0    0    0    0  0.00000000000E+00  0.00000000000E+00  0.68483202632E+03  0.68483202632E+03  0.00000000000E+00 0. -1.
         22   -1    0    0    0    0 -0.00000000000E+00 -0.00000000000E+00 -0.25526208891E+03  0.25526208891E+03  0.00000000000E+00 0.  1.
         25    2    1    2    0    0 -0.14162781041E+03 -0.74963982533E+02 -0.29008138902E+02  0.20534835328E+03  0.12509371972E+03 0.  0.
         24    2    1    2    0    0  0.14853453210E+03  0.77511127348E+02 -0.70730153895E+02  0.19909794251E+03  0.81035510434E+02 0.  0.
        -24    2    1    2    0    0 -0.69067216923E+01 -0.25471448147E+01  0.52930823020E+03  0.53564781944E+03  0.81836380395E+02 0.  0.
        -13    1    4    4    0    0  0.14212236077E+03  0.90148434717E+02 -0.75058791152E+02  0.18428056827E+03  0.00000000000E+00 0.  1.
         14    1    4    4    0    0  0.64121713279E+01 -0.12637307369E+02  0.43286372577E+01  0.14817374234E+02  0.00000000000E+00 0. -1.
         13    1    5    5    0    0  0.45790088076E+01 -0.24422724420E+02  0.47855856672E+03  0.47920323306E+03  0.00000000000E+00 0. -1.
        -14    1    5    5    0    0 -0.11485730500E+02  0.21875579605E+02  0.50749663482E+02  0.56444586381E+02  0.00000000000E+00 0.  1.
          5    1    3    3  501    0  0.22745930452E+02 -0.54585382356E+01 -0.10156536558E+02  0.25841838685E+02  0.41800000000E+01 0. -1.
         -5    1    3    3    0  501 -0.16437374086E+03 -0.69505444297E+02 -0.18851602344E+02  0.17950651460E+03  0.41800000000E+01 0. -1.
</event>
<event>
11    1  0.2450992E-009  0.2919576E+03  0.7561462E-02  0.1003654E+00
         22   -1    0    0    0    0  0.00000000000E+00  0.00000000000E+00  0.39613235675E+03  0.39613235675E+03  0.00000000000E+00 0.  1.
         22   -1    0    0    0    0 -0.00000000000E+00 -0.00000000000E+00 -0.56961539016E+03  0.56961539016E+03  0.00000000000E+00 0.  1.
         25    2    1    2    0    0 -0.83271397543E+02 -0.21828887272E+03 -0.33637574685E+03  0.42822974583E+03  0.12509162457E+03 0.  0.
        -24    2    1    2    0    0  0.11764767411E+03 -0.52870445177E+02 -0.72483307738E+02  0.16794609401E+03  0.79472016433E+02 0.  0.
         24    2    1    2    0    0 -0.34376276567E+02  0.27115931790E+03  0.23537602117E+03  0.36957190707E+03  0.80451346044E+02 0.  0.
        -13    1    5    5    0    0 -0.44118687963E+02  0.76689667376E+02  0.55177334889E+02  0.10427033133E+03  0.00000000000E+00 0.  1.
         14    1    5    5    0    0  0.97424113959E+01  0.19446965052E+03  0.18019868628E+03  0.26530157574E+03  0.00000000000E+00 0. -1.
         13    1    4    4    0    0  0.18134213328E+02 -0.40231550402E+01  0.17230536096E+02  0.25336275252E+02  0.00000000000E+00 0. -1.
        -14    1    4    4    0    0  0.99513460782E+02 -0.48847290137E+02 -0.89713843835E+02  0.14260981876E+03  0.00000000000E+00 0.  1.
          5    1    3    3  501    0 -0.89664147496E+02 -0.10699628142E+03 -0.11729491212E+03  0.18238265376E+03  0.41800000000E+01 0. -1.
         -5    1    3    3    0  501  0.63927499528E+01 -0.11129259130E+03 -0.21908083473E+03  0.24584709206E+03  0.41800000000E+01 0. -1.
</event>
<event>
11    1  0.2654850E-009  0.1278177E+04  0.7561462E-02  0.8451788E-01
         22   -1    0    0    0    0  0.00000000000E+00  0.00000000000E+00  0.41622939021E+03  0.41622939021E+03  0.00000000000E+00 0.  1.
         22   -1    0    0    0    0 -0.00000000000E+00 -0.00000000000E+00 -0.98127221536E+03  0.98127221536E+03  0.00000000000E+00 0.  1.
         25    2    1    2    0    0 -0.12910472045E+03  0.40302677969E+03 -0.74376926802E+03  0.86483439018E+03  0.12508870611E+03 0.  0.
         24    2    1    2    0    0  0.11456101654E+03 -0.33711829635E+03  0.20609421321E+03  0.41893759934E+03  0.79125944998E+02 0.  0.
        -24    2    1    2    0    0  0.14543703915E+02 -0.65908483337E+02 -0.27367770346E+02  0.11372961605E+03  0.87349775128E+02 0.  0.
        -11    1    4    4    0    0  0.92035350519E+02 -0.15550082707E+03  0.86640790376E+02  0.20039371128E+03  0.00000000000E+00 0.  1.
         12    1    4    4    0    0  0.22525666019E+02 -0.18161746928E+03  0.11945342284E+03  0.21854388805E+03  0.00000000000E+00 0. -1.
         13    1    5    5    0    0  0.33110005514E+02 -0.77357045148E+02 -0.79383198869E+01  0.84518647776E+02  0.00000000000E+00 0. -1.
        -14    1    5    5    0    0 -0.18566301600E+02  0.11448561811E+02 -0.19429450459E+02  0.29210968279E+02  0.00000000000E+00 0.  1.
          5    1    3    3  501    0 -0.98514676942E+02  0.38664565744E+03 -0.71794354392E+03  0.82137714276E+03  0.41800000000E+01 0. -1.
         -5    1    3    3    0  501 -0.30590043510E+02  0.16381122249E+02 -0.25825724100E+02  0.43457247421E+02  0.41800000000E+01 0. -1.
</event>
<event>
11    1  0.2450992E-009  0.1703703E+04  0.7561462E-02  0.8200636E-01
         22   -1    0    0    0    0  0.00000000000E+00  0.00000000000E+00  0.15652250329E+04  0.15652250329E+04  0.00000000000E+00 0. -1.
         22   -1    0    0    0    0 -0.00000000000E+00 -0.00000000000E+00 -0.22544295542E+04  0.22544295542E+04  0.00000000000E+00 0. -1.
         25    2    1    2    0    0  0.15054087544E+04 -0.74735389178E+03 -0.97453307590E+03  0.19468323509E+04  0.12509248250E+03 0.  0.
        -24    2    1    2    0    0 -0.15792648959E+04  0.72530879495E+03  0.26138392219E+03  0.17592318772E+04  0.80154747787E+02 0.  0.
         24    2    1    2    0    0  0.73856141531E+02  0.22045096835E+02  0.23944632408E+02  0.11359035903E+03  0.79929395766E+02 0.  0.
        -11    1    5    5    0    0  0.52630719117E+02 -0.87428783016E+01  0.45767627222E+02  0.70293002620E+02  0.00000000000E+00 0.  1.
         12    1    5    5    0    0  0.21225422413E+02  0.30787975137E+02 -0.21822994813E+02  0.43297356412E+02  0.00000000000E+00 0. -1.
         11    1    4    4    0    0 -0.21821417914E+03  0.11559933912E+03  0.12748058548E+02  0.24727140591E+03  0.00000000000E+00 0. -1.
        -12    1    4    4    0    0 -0.13610507168E+04  0.60970945583E+03  0.24863586364E+03  0.15119604713E+04  0.00000000000E+00 0.  1.
          5    1    3    3  501    0  0.13606077672E+04 -0.65680433815E+03 -0.83485389149E+03  0.17261645134E+04  0.41800000000E+01 0. -1.
         -5    1    3    3    0  501  0.14480098717E+03 -0.90549553634E+02 -0.13967918442E+03  0.22066783750E+03  0.41800000000E+01 0. -1.
</event>
<event>
11    1  0.2450992E-009  0.5882374E+03  0.7561462E-02  0.9215445E-01
         22   -1    0    0    0    0  0.00000000000E+00  0.00000000000E+00  0.27256478908E+04  0.27256478908E+04  0.00000000000E+00 0.  1.
         22   -1    0    0    0    0 -0.00000000000E+00 -0.00000000000E+00 -0.15407168868E+04  0.15407168868E+04  0.00000000000E+00 0.  1.
         25    2    1    2    0    0  0.56071892672E+03 -0.49329208896E+02 -0.12462788425E+04  0.13732056249E+04  0.12507457540E+03 0.  0.
        -24    2    1    2    0    0 -0.79444274503E+03 -0.39073242080E+03  0.83711009140E+03  0.12211245096E+04  0.81121285836E+02 0.  0.
         24    2    1    2    0    0  0.23372381831E+03  0.44006162970E+03  0.15940997551E+04  0.16720346431E+04  0.79150220479E+02 0.  0.
        -11    1    5    5    0    0  0.22215458895E+03  0.40239956671E+03  0.13857830668E+04  0.14600249248E+04  0.00000000000E+00 0.  1.
         12    1    5    5    0    0  0.11569229360E+02  0.37662062986E+02  0.20831668825E+03  0.21200971832E+03  0.00000000000E+00 0. -1.
         13    1    4    4    0    0 -0.33796481927E+03 -0.15858828788E+03  0.40769459919E+03  0.55279774812E+03  0.00000000000E+00 0. -1.
        -14    1    4    4    0    0 -0.45647792576E+03 -0.23214413292E+03  0.42941549221E+03  0.66832676148E+03  0.00000000000E+00 0.  1.
          5    1    3    3  501    0  0.23127110826E+03 -0.82202812794E+02 -0.52473801459E+03  0.57931950106E+03  0.41800000000E+01 0.  1.
         -5    1    3    3    0  501  0.32944781846E+03  0.32873603898E+02 -0.72154082788E+03  0.79388612383E+03  0.41800000000E+01 0.  1.
</event>
<event>
11    1  0.2450992E-009  0.9856767E+03  0.7561462E-02  0.8692758E-01
         22   -1    0    0    0    0  0.00000000000E+00  0.00000000000E+00  0.18374543688E+04  0.18374543688E+04  0.00000000000E+00 0.  1.
         22   -1    0    0    0    0 -0.00000000000E+00 -0.00000000000E+00 -0.67597680994E+03  0.67597680994E+03  0.00000000000E+00 0.  1.
         25    2    1    2    0    0 -0.91591466735E+03  0.93093928134E+02  0.37576575927E+03  0.10022044570E+04  0.12509080848E+03 0.  0.
         24    2    1    2    0    0  0.10245077206E+04 -0.23685337251E+03  0.50798868726E+03  0.11705737205E+04  0.80465764387E+02 0.  0.
        -24    2    1    2    0    0 -0.10859305322E+03  0.14375944438E+03  0.27772311233E+03  0.34065300126E+03  0.80343705978E+02 0.  0.
        -11    1    4    4    0    0  0.16596877812E+03 -0.34263473306E+02  0.50233086818E+02  0.17675684973E+03  0.00000000000E+00 0.  1.
         12    1    4    4    0    0  0.85853894245E+03 -0.20258989920E+03  0.45775560044E+03  0.99381687081E+03  0.00000000000E+00 0. -1.
         11    1    5    5    0    0  0.76999634007E+01  0.41992075323E+02  0.63020240497E+02  0.76119475423E+02  0.00000000000E+00 0. -1.
        -12    1    5    5    0    0 -0.11629301662E+03  0.10176736905E+03  0.21470287183E+03  0.26453352584E+03  0.00000000000E+00 0.  1.
          5    1    3    3  501    0 -0.62748386992E+03  0.13287965983E+02  0.28605335226E+03  0.68975109263E+03  0.41800000000E+01 0.  1.
         -5    1    3    3    0  501 -0.28843079744E+03  0.79805962151E+02  0.89712407011E+02  0.31245336432E+03  0.41800000000E+01 0.  1.
</event>
<event>
11    1  0.2450992E-009  0.2743766E+03  0.7561462E-02  0.1011659E+00
         22   -1    0    0    0    0  0.00000000000E+00  0.00000000000E+00  0.64192532047E+03  0.64192532047E+03  0.00000000000E+00 0. -1.
         22   -1    0    0    0    0 -0.00000000000E+00 -0.00000000000E+00 -0.10271997421E+04  0.10271997421E+04  0.00000000000E+00 0. -1.
         25    2    1    2    0    0 -0.11474860723E+03 -0.42917540946E+02 -0.80472533268E+03  0.82355307251E+03  0.12509054317E+03 0.  0.
         24    2    1    2    0    0 -0.10877842258E+03 -0.65782040632E+02 -0.15336650176E+03  0.21476447721E+03  0.80265027996E+02 0.  0.
        -24    2    1    2    0    0  0.22352702981E+03  0.10869958158E+03  0.57281741281E+03  0.63080751286E+03  0.89545506742E+02 0.  0.
        -13    1    4    4    0    0 -0.85883302385E+02 -0.84710052017E+02 -0.12239471708E+03  0.17184935644E+03  0.00000000000E+00 0.  1.
         14    1    4    4    0    0 -0.22895120192E+02  0.18928011386E+02 -0.30971784685E+02  0.42915120764E+02  0.00000000000E+00 0. -1.
         11    1    5    5    0    0  0.23125787300E+03  0.99032535286E+02  0.53970336063E+03  0.59545559393E+03  0.00000000000E+00 0. -1.
        -12    1    5    5    0    0 -0.77308431907E+01  0.96670462911E+01  0.33114052180E+02  0.35351918933E+02  0.00000000000E+00 0.  1.
          5    1    3    3  501    0 -0.49024579640E+02 -0.14140214371E+02 -0.78107360056E+02  0.93389438194E+02  0.41800000000E+01 0.  1.
         -5    1    3    3    0  501 -0.65724027592E+02 -0.28777326574E+02 -0.72661797263E+03  0.73016363431E+03  0.41800000000E+01 0.  1.
</event>
<event>
11    1  0.2450992E-009  0.1562151E+03  0.7561462E-02  0.1090692E+00
         22   -1    0    0    0    0  0.00000000000E+00  0.00000000000E+00  0.18735531983E+04  0.18735531983E+04  0.00000000000E+00 0. -1.
         22   -1    0    0    0    0 -0.00000000000E+00 -0.00000000000E+00 -0.49084260851E+02  0.49084260851E+02  0.00000000000E+00 0. -1.
         25    2    1    2    0    0  0.24059644316E+02 -0.30052285081E+02  0.91514469688E+02  0.15967203210E+03  0.12505300216E+03 0.  0.
         24    2    1    2    0    0 -0.80965576547E+02 -0.10131198696E+03  0.10218468088E+04  0.10332137796E+04  0.80871937616E+02 0.  0.
        -24    2    1    2    0    0  0.56905932231E+02  0.13136427204E+03  0.71110765896E+03  0.72975164751E+03  0.79802928037E+02 0.  0.
        -11    1    4    4    0    0 -0.49908181535E+01 -0.28511711526E+02  0.72672078799E+02  0.78224401544E+02  0.00000000000E+00 0.  1.
         12    1    4    4    0    0 -0.75974758393E+02 -0.72800275431E+02  0.94917473002E+03  0.95498937802E+03  0.00000000000E+00 0. -1.
         13    1    5    5    0    0  0.58715636330E+01  0.27217044002E+02  0.40246295720E+02  0.48938809373E+02  0.00000000000E+00 0. -1.
        -14    1    5    5    0    0  0.51034368598E+02  0.10414722804E+03  0.67086136324E+03  0.68081283814E+03  0.00000000000E+00 0.  1.
          5    1    3    3  501    0 -0.23965152878E+02 -0.60247240993E+02  0.77416989182E+02  0.10106889340E+03  0.41800000000E+01 0.  1.
         -5    1    3    3    0  501  0.48024797194E+02  0.30194955913E+02  0.14097480506E+02  0.58603138694E+02  0.41800000000E+01 0.  1.
</event>
<event>
11    1  0.2450992E-009  0.1448562E+03  0.7561462E-02  0.1102254E+00
         22   -1    0    0    0    0  0.00000000000E+00  0.00000000000E+00  0.47540045278E+03  0.47540045278E+03  0.00000000000E+00 0. -1.
         22   -1    0    0    0    0 -0.00000000000E+00 -0.00000000000E+00 -0.80891960301E+02  0.80891960301E+02  0.00000000000E+00 0.  1.
         25    2    1    2    0    0 -0.35333920600E+02  0.59389596720E+02  0.59392349573E+02  0.15476593878E+03  0.12509769972E+03 0.  0.
         24    2    1    2    0    0 -0.62527236842E+01 -0.89441407615E+02  0.17474885171E+03  0.21259573341E+03  0.81369052730E+02 0.  0.
        -24    2    1    2    0    0  0.41586644284E+02  0.30051810895E+02  0.16036729120E+03  0.18893074089E+03  0.85700621033E+02 0.  0.
        -11    1    4    4    0    0  0.30794212391E+02 -0.26617488634E+02  0.30180353441E+02  0.50671766811E+02  0.00000000000E+00 0.  1.
         12    1    4    4    0    0 -0.37046936075E+02 -0.62823918981E+02  0.14456849826E+03  0.16192396660E+03  0.00000000000E+00 0. -1.
         11    1    5    5    0    0  0.39950764500E+02  0.51858791311E+02  0.15203375215E+03  0.16552842539E+03  0.00000000000E+00 0. -1.
        -12    1    5    5    0    0  0.16358797840E+01 -0.21806980415E+02  0.83335390494E+01  0.23402315496E+02  0.00000000000E+00 0.  1.
          5    1    3    3  501    0  0.35779968693E+02 -0.12001661642E+01 -0.11034460654E+02  0.37694539132E+02  0.41800000000E+01 0.  1.
         -5    1    3    3    0  501 -0.71113889293E+02  0.60589762884E+02  0.70426810226E+02  0.11707139965E+03  0.41800000000E+01 0.  1.
</event>
<event>
11    1  0.2450992E-009  0.1277623E+03  0.7561462E-02  0.1122049E+00
         22   -1    0    0    0    0  0.00000000000E+00  0.00000000000E+00  0.43460477877E+03  0.43460477877E+03  0.00000000000E+00 0.  1.
         22   -1    0    0    0    0 -0.00000000000E+00 -0.00000000000E+00 -0.59010650986E+03  0.59010650986E+03  0.00000000000E+00 0. -1.
         25    2    1    2    0    0 -0.14074733346E+02  0.15766811375E+02 -0.27369230883E+03  0.30166465077E+03  0.12508953255E+03 0.  0.
         24    2    1    2    0    0 -0.78093479520E+01 -0.30842432720E+02 -0.29140408023E+03  0.30470064536E+03  0.83149887177E+02 0.  0.
        -24    2    1    2    0    0  0.21884081298E+02  0.15075621346E+02  0.40959465796E+03  0.41834599250E+03  0.80866545862E+02 0.  0.
        -11    1    4    4    0    0  0.27775439873E+02  0.10864737801E+02 -0.61505210452E+02  0.68355018107E+02  0.00000000000E+00 0.  1.
         12    1    4    4    0    0 -0.35584787825E+02 -0.41707170521E+02 -0.22989886978E+03  0.23634562725E+03  0.00000000000E+00 0. -1.
         11    1    5    5    0    0 -0.17099959209E+02  0.17689649207E+02  0.41962608607E+02  0.48643527988E+02  0.00000000000E+00 0. -1.
        -12    1    5    5    0    0  0.38984040507E+02 -0.26140278618E+01  0.36763204935E+03  0.36970246451E+03  0.00000000000E+00 0.  1.
          5    1    3    3  501    0 -0.28014379309E+02 -0.46503396437E+02 -0.18130279648E+03  0.18930279380E+03  0.41800000000E+01 0. -1.
         -5    1    3    3    0  501  0.13939645963E+02  0.62270207811E+02 -0.92389512347E+02  0.11236185697E+03  0.41800000000E+01 0. -1.
</event>
<event>
11    1  0.2450992E-009  0.7467048E+03  0.7561462E-02  0.8966174E-01
         22   -1    0    0    0    0  0.00000000000E+00  0.00000000000E+00  0.34535420692E+03  0.34535420692E+03  0.00000000000E+00 0.  1.
         22   -1    0    0    0    0 -0.00000000000E+00 -0.00000000000E+00 -0.40362043340E+03  0.40362043340E+03  0.00000000000E+00 0. -1.
         25    2    1    2    0    0 -0.36302394371E+02 -0.21155094427E+03 -0.29066474489E+03  0.38236981177E+03  0.12509601582E+03 0.  0.
        -24    2    1    2    0    0 -0.15873563992E+02  0.13633724736E+03  0.15859374430E+03  0.22435949860E+03  0.79657980328E+02 0.  0.
         24    2    1    2    0    0  0.52175958363E+02  0.75213696907E+02  0.73804774107E+02  0.14224532995E+03  0.80044727354E+02 0.  0.
        -11    1    5    5    0    0  0.42601541398E+01  0.57362548988E+02  0.70524429167E+02  0.91007175810E+02  0.00000000000E+00 0.  1.
         12    1    5    5    0    0  0.47915804223E+02  0.17851147919E+02  0.32803449400E+01  0.51238154137E+02  0.00000000000E+00 0. -1.
         11    1    4    4    0    0 -0.41074179541E+02  0.70321883184E+02  0.52521684906E+02  0.96906051745E+02  0.00000000000E+00 0. -1.
        -12    1    4    4    0    0  0.25200615549E+02  0.66015364180E+02  0.10607205940E+03  0.12745344686E+03  0.00000000000E+00 0.  1.
          5    1    3    3  501    0 -0.22319359530E+01  0.12679645411E+02 -0.49356819023E+02  0.51179321312E+02  0.41800000000E+01 0. -1.
         -5    1    3    3    0  501 -0.34070458418E+02 -0.22423058968E+03 -0.24130792587E+03  0.33119049046E+03  0.41800000000E+01 0. -1.
</event>
<event>
11    1  0.2450992E-009  0.4203649E+03  0.7561462E-02  0.9591510E-01
         22   -1    0    0    0    0  0.00000000000E+00  0.00000000000E+00  0.15417084357E+03  0.15417084357E+03  0.00000000000E+00 0.  1.
         22   -1    0    0    0    0 -0.00000000000E+00 -0.00000000000E+00 -0.35799145625E+04  0.35799145625E+04  0.00000000000E+00 0.  1.
         25    2    1    2    0    0  0.42350091318E+03  0.97484150017E+02 -0.30377133403E+04  0.30711896167E+04  0.12508853237E+03 0.  0.
         24    2    1    2    0    0 -0.20634399804E+03  0.89126666715E+02 -0.15430839354E+03  0.28452765832E+03  0.81384886686E+02 0.  0.
        -24    2    1    2    0    0 -0.21715691514E+03 -0.18661081673E+03 -0.23372198508E+03  0.37836813106E+03  0.80967608192E+02 0.  0.
        -13    1    4    4    0    0 -0.13234203212E+03  0.96085775876E+02 -0.92727302960E+02  0.18800330451E+03  0.00000000000E+00 0.  1.
         14    1    4    4    0    0 -0.74001965924E+02 -0.69591091610E+01 -0.61581090585E+02  0.96524353810E+02  0.00000000000E+00 0. -1.
         13    1    5    5    0    0 -0.82040617901E+02 -0.28441426604E+02 -0.92901024499E+02  0.12716201511E+03  0.00000000000E+00 0. -1.
        -14    1    5    5    0    0 -0.13511629724E+03 -0.15816939013E+03 -0.14082096059E+03  0.25120611595E+03  0.00000000000E+00 0.  1.
          5    1    3    3  501    0  0.38983468364E+03  0.55366404028E+02 -0.27893130330E+04  0.28169702142E+04  0.41800000000E+01 0. -1.
         -5    1    3    3    0  501  0.33666229539E+02  0.42117745990E+02 -0.24840030737E+03  0.25421940256E+03  0.41800000000E+01 0. -1.
</event>
<event>
11    1  0.2450992E-009  0.2285418E+03  0.7561462E-02  0.1035995E+00
         22   -1    0    0    0    0  0.00000000000E+00  0.00000000000E+00  0.21141499096E+03  0.21141499096E+03  0.00000000000E+00 0. -1.
         22   -1    0    0    0    0 -0.00000000000E+00 -0.00000000000E+00 -0.40349956629E+03  0.40349956629E+03  0.00000000000E+00 0. -1.
         25    2    1    2    0    0 -0.57281021800E+02  0.14251710546E+03 -0.64204663458E+02  0.20823636215E+03  0.12509157808E+03 0.  0.
        -24    2    1    2    0    0  0.14450878576E+03 -0.18249972114E+03 -0.13838207327E+03  0.28251409384E+03  0.80471595202E+02 0.  0.
         24    2    1    2    0    0 -0.87227763958E+02  0.39982615687E+02  0.10502161399E+02  0.12416410127E+03  0.78096967207E+02 0.  0.
        -13    1    5    5    0    0 -0.26413284262E+01  0.10484265890E+02  0.30514678679E+02  0.32373477755E+02  0.00000000000E+00 0.  1.
         14    1    5    5    0    0 -0.84586435532E+02  0.29498349796E+02 -0.20012517279E+02  0.91790623511E+02  0.00000000000E+00 0. -1.
         11    1    4    4    0    0  0.94061515196E+02 -0.16487669480E+03 -0.12546689512E+03  0.22753864485E+03  0.00000000000E+00 0. -1.
        -12    1    4    4    0    0  0.50447270562E+02 -0.17623026345E+02 -0.12915178154E+02  0.54975448988E+02  0.00000000000E+00 0.  1.
          5    1    3    3  501    0  0.32367708307E+01  0.58558999932E+02  0.31939471594E+02  0.66912146910E+02  0.41800000000E+01 0. -1.
         -5    1    3    3    0  501 -0.60517792630E+02  0.83958105524E+02 -0.96144135052E+02  0.14132421524E+03  0.41800000000E+01 0. -1.
</event>
<event>
11    1  0.2450992E-009  0.1368351E+03  0.7561462E-02  0.1111145E+00
         22   -1    0    0    0    0  0.00000000000E+00  0.00000000000E+00  0.39364941030E+03  0.39364941030E+03  0.00000000000E+00 0. -1.
         22   -1    0    0    0    0 -0.00000000000E+00 -0.00000000000E+00 -0.73615805979E+02  0.73615805979E+02  0.00000000000E+00 0. -1.
         25    2    1    2    0    0 -0.35886460988E+02 -0.34151860429E+02  0.11777124161E+03  0.17880646218E+03  0.12508995929E+03 0.  0.
        -24    2    1    2    0    0  0.20091668470E+01  0.65426009017E+02  0.64069525227E+02  0.12166337698E+03  0.80077923476E+02 0.  0.
         24    2    1    2    0    0  0.33877294141E+02 -0.31274148588E+02  0.13819283749E+03  0.16679537712E+03  0.81226190763E+02 0.  0.
        -11    1    5    5    0    0  0.56087988208E+02 -0.20383420425E+02  0.59358697353E+02  0.84171261133E+02  0.00000000000E+00 0.  1.
         12    1    5    5    0    0 -0.22210694067E+02 -0.10890728164E+02  0.78834140138E+02  0.82624115984E+02  0.00000000000E+00 0. -1.
         13    1    4    4    0    0  0.89211040556E+00  0.63056675414E+02  0.57935400485E+01  0.63328550287E+02  0.00000000000E+00 0. -1.
        -14    1    4    4    0    0  0.11170564415E+01  0.23693336029E+01  0.58275985178E+02  0.58334826693E+02  0.00000000000E+00 0.  1.
          5    1    3    3  501    0 -0.27829830284E+02  0.26772721578E+02  0.11007900518E+03  0.11673104924E+03  0.41800000000E+01 0. -1.
         -5    1    3    3    0  501 -0.80566307035E+01 -0.60924582007E+02  0.76922364224E+01  0.62075412944E+02  0.41800000000E+01 0. -1.
</event>
<event>
11    1  0.2450992E-009  0.5160721E+03  0.7561462E-02  0.9358308E-01
         22   -1    0    0    0    0  0.00000000000E+00  0.00000000000E+00  0.10477250153E+04  0.10477250153E+04  0.00000000000E+00 0. -1.
         22   -1    0    0    0    0 -0.00000000000E+00 -0.00000000000E+00 -0.69803012173E+03  0.69803012173E+03  0.00000000000E+00 0. -1.
         25    2    1    2    0    0 -0.47253974310E+03 -0.14336049289E+03 -0.46979888880E+03  0.69296806091E+03  0.12509075818E+03 0.  0.
        -24    2    1    2    0    0  0.52224503357E+03  0.17764956504E+03  0.72826398991E+03  0.91713486538E+03  0.80428099936E+02 0.  0.
         24    2    1    2    0    0 -0.49705290463E+02 -0.34289072151E+02  0.91229792491E+02  0.13565221075E+03  0.80201564048E+02 0.  0.
        -11    1    5    5    0    0 -0.41558808528E+02 -0.59221920213E+02  0.54791825922E+02  0.90755245512E+02  0.00000000000E+00 0.  1.
         12    1    5    5    0    0 -0.81464819350E+01  0.24932848062E+02  0.36437966569E+02  0.44896965243E+02  0.00000000000E+00 0. -1.
         11    1    4    4    0    0  0.44126786561E+03  0.13376981300E+03  0.64575358180E+03  0.79347928801E+03  0.00000000000E+00 0. -1.
        -12    1    4    4    0    0  0.80977167958E+02  0.43879752041E+02  0.82510408102E+02  0.12365557737E+03  0.00000000000E+00 0.  1.
          5    1    3    3  501    0 -0.29849901553E+02  0.10763085040E+02 -0.42249590510E+01  0.32282863895E+02  0.41800000000E+01 0.  1.
         -5    1    3    3    0  501 -0.44268984155E+03 -0.15412357793E+03 -0.46557392975E+03  0.66068519701E+03  0.41800000000E+01 0.  1.
</event>
<event>
11    1  0.2450992E-009  0.1507567E+03  0.7561462E-02  0.1096108E+00
         22   -1    0    0    0    0  0.00000000000E+00  0.00000000000E+00  0.60111687812E+03  0.60111687812E+03  0.00000000000E+00 0. -1.
         22   -1    0    0    0    0 -0.00000000000E+00 -0.00000000000E+00 -0.45295152498E+03  0.45295152498E+03  0.00000000000E+00 0. -1.
         25    2    1    2    0    0  0.77540220171E+02 -0.77708304369E+02 -0.22558655143E+03  0.28033646777E+03  0.12509267229E+03 0.  0.
         24    2    1    2    0    0 -0.56064337131E+02  0.42368635067E+02 -0.18118618250E+03  0.21147229724E+03  0.83389379623E+02 0.  0.
        -24    2    1    2    0    0 -0.21475883040E+02  0.35339669302E+02  0.55493808707E+03  0.56225963810E+03  0.80433291441E+02 0.  0.
        -13    1    4    4    0    0 -0.17727504488E+02  0.10877144796E+02  0.27345853364E+01  0.20977479621E+02  0.00000000000E+00 0.  1.
         14    1    4    4    0    0 -0.38336832644E+02  0.31491490271E+02 -0.18392076784E+03  0.19049481762E+03  0.00000000000E+00 0. -1.
         11    1    5    5    0    0 -0.40408750052E+02  0.51058551706E+02  0.43239507203E+03  0.43727032954E+03  0.00000000000E+00 0. -1.
        -12    1    5    5    0    0  0.18932867012E+02 -0.15718882404E+02  0.12254301505E+03  0.12498930856E+03  0.00000000000E+00 0.  1.
          5    1    3    3  501    0 -0.26844327332E+02 -0.39723174410E+02 -0.34302597463E+02  0.59098977046E+02  0.41800000000E+01 0. -1.
         -5    1    3    3    0  501  0.10438454750E+03 -0.37985129959E+02 -0.19128395397E+03  0.22123749072E+03  0.41800000000E+01 0. -1.
</event>
<event>
11    1  0.2450992E-009  0.1588621E+03  0.7561462E-02  0.1088152E+00
         22   -1    0    0    0    0  0.00000000000E+00  0.00000000000E+00  0.55299486155E+03  0.55299486155E+03  0.00000000000E+00 0. -1.
         22   -1    0    0    0    0 -0.00000000000E+00 -0.00000000000E+00 -0.14652666328E+03  0.14652666328E+03  0.00000000000E+00 0.  1.
         25    2    1    2    0    0 -0.67205571272E+02 -0.84311052963E+00 -0.41081811114E+01  0.14205382220E+03  0.12508042055E+03 0.  0.
        -24    2    1    2    0    0  0.29560948156E+02  0.13508298363E+03  0.57523056656E+02  0.17059662674E+03  0.81688707211E+02 0.  0.
         24    2    1    2    0    0  0.37644623116E+02 -0.13423987310E+03  0.35305332273E+03  0.38687107589E+03  0.74733657007E+02 0.  0.
        -11    1    5    5    0    0  0.57346859628E+01  0.72226489489E+01  0.67456767498E+01  0.11426173276E+02  0.00000000000E+00 0.  1.
         12    1    5    5    0    0  0.31909937153E+02 -0.14146252205E+03  0.34630764598E+03  0.37544490261E+03  0.00000000000E+00 0. -1.
         13    1    4    4    0    0  0.27890176542E+02  0.75536902983E+02  0.73391770608E+02  0.10894970240E+03  0.00000000000E+00 0. -1.
        -14    1    4    4    0    0  0.16707716137E+01  0.59546080651E+02 -0.15868713952E+02  0.61646924345E+02  0.00000000000E+00 0.  1.
          5    1    3    3  501    0 -0.75707048491E+02  0.26680179456E+01  0.47469570078E+02  0.89495854622E+02  0.41800000000E+01 0.  1.
         -5    1    3    3    0  501  0.85014772197E+01 -0.35111284752E+01 -0.51577751190E+02  0.52557967578E+02  0.41800000000E+01 0.  1.
</event>
<event>
11    1  0.2450992E-009  0.1470333E+03  0.7561462E-02  0.1099949E+00
         22   -1    0    0    0    0  0.00000000000E+00  0.00000000000E+00  0.42750694824E+03  0.42750694824E+03  0.00000000000E+00 0.  1.
         22   -1    0    0    0    0 -0.00000000000E+00 -0.00000000000E+00 -0.13271535612E+04  0.13271535612E+04  0.00000000000E+00 0. -1.
         25    2    1    2    0    0 -0.62086625239E+02  0.37696183752E+02 -0.80013045812E+03  0.81310044852E+03  0.12509131891E+03 0.  0.
        -24    2    1    2    0    0 -0.12845340799E+02 -0.57580056792E+02 -0.50798289238E+03  0.51781802006E+03  0.81292171952E+02 0.  0.
         24    2    1    2    0    0  0.74931966037E+02  0.19883873040E+02  0.40846673760E+03  0.42374204082E+03  0.81866192606E+02 0.  0.
        -11    1    5    5    0    0  0.28165666263E+02 -0.16998137567E+02  0.28244778284E+03  0.28435715477E+03  0.00000000000E+00 0.  1.
         12    1    5    5    0    0  0.46766299774E+02  0.36882010607E+02  0.12601895476E+03  0.13938488605E+03  0.00000000000E+00 0. -1.
         13    1    4    4    0    0 -0.11189827399E+02 -0.55210232484E+02 -0.51073166031E+03  0.51382897043E+03  0.00000000000E+00 0. -1.
        -14    1    4    4    0    0 -0.16555133998E+01 -0.23698243084E+01  0.27487679233E+01  0.39890496318E+01  0.00000000000E+00 0.  1.
          5    1    3    3  501    0  0.11476540349E+02 -0.36991669347E+02 -0.18113537329E+03  0.18527706398E+03  0.41800000000E+01 0. -1.
         -5    1    3    3    0  501 -0.73563165587E+02  0.74687853099E+02 -0.61899508483E+03  0.62782338454E+03  0.41800000000E+01 0. -1.
</event>
<event>
11    1  0.2450992E-009  0.1291290E+03  0.7561462E-02  0.1120344E+00
         22   -1    0    0    0    0  0.00000000000E+00  0.00000000000E+00  0.54536574011E+02  0.54536574011E+02  0.00000000000E+00 0.  1.
         22   -1    0    0    0    0 -0.00000000000E+00 -0.00000000000E+00 -0.74093418929E+03  0.74093418929E+03  0.00000000000E+00 0. -1.
         25    2    1    2    0    0  0.19609026164E+02  0.48229833512E+01 -0.40857232697E+03  0.42777016474E+03  0.12509273522E+03 0.  0.
        -24    2    1    2    0    0 -0.26838122329E+02  0.85259623748E+02 -0.14362311186E+03  0.18716828588E+03  0.80092950548E+02 0.  0.
         24    2    1    2    0    0  0.72290961656E+01 -0.90082607100E+02 -0.13420217645E+03  0.18053231268E+03  0.80090922225E+02 0.  0.
        -13    1    5    5    0    0  0.17139670677E+02 -0.58035560726E+02 -0.23595844026E+02  0.64951200720E+02  0.00000000000E+00 0.  1.
         14    1    5    5    0    0 -0.99105745119E+01 -0.32047046374E+02 -0.11060633243E+03  0.11558111196E+03  0.00000000000E+00 0. -1.
         13    1    4    4    0    0  0.74254038641E+01 -0.12624066425E+02 -0.29674780791E+02  0.33092239130E+02  0.00000000000E+00 0. -1.
        -14    1    4    4    0    0 -0.34263526193E+02  0.97883690173E+02 -0.11394833107E+03  0.15407604675E+03  0.00000000000E+00 0.  1.
          5    1    3    3  501    0 -0.31887336877E+02  0.21260498286E+02 -0.41222657782E+02  0.56441039635E+02  0.41800000000E+01 0. -1.
         -5    1    3    3    0  501  0.51496363041E+02 -0.16437514935E+02 -0.36734966918E+03  0.37132912511E+03  0.41800000000E+01 0. -1.
</event>
<event>
11    1  0.2450992E-009  0.5206711E+03  0.7561462E-02  0.9348481E-01
         22   -1    0    0    0    0  0.00000000000E+00  0.00000000000E+00  0.33753535062E+04  0.33753535062E+04  0.00000000000E+00 0.  1.
         22   -1    0    0    0    0 -0.00000000000E+00 -0.00000000000E+00 -0.36828540090E+03  0.36828540090E+03  0.00000000000E+00 0.  1.
         25    2    1    2    0    0 -0.49069335601E+03  0.11495143704E+03 -0.13903428152E+03  0.53756090788E+03  0.12508955084E+03 0.  0.
        -24    2    1    2    0    0  0.50956445442E+03 -0.12926969983E+03  0.27631622516E+04  0.28138073900E+04  0.77973141805E+02 0.  0.
         24    2    1    2    0    0 -0.18871098411E+02  0.14318262793E+02  0.38294013529E+03  0.39227060931E+03  0.81682021908E+02 0.  0.
        -11    1    5    5    0    0 -0.31081909102E+02 -0.19646824104E+02  0.29392817779E+03  0.29621927093E+03  0.00000000000E+00 0.  1.
         12    1    5    5    0    0  0.12210810691E+02  0.33965086897E+02  0.89011957503E+02  0.96051338377E+02  0.00000000000E+00 0. -1.
         11    1    4    4    0    0  0.23529149971E+03 -0.82482908754E+02  0.11372901052E+04  0.11642999199E+04  0.00000000000E+00 0. -1.
        -12    1    4    4    0    0  0.27427295472E+03 -0.46786791077E+02  0.16258721463E+04  0.16495074700E+04  0.00000000000E+00 0.  1.
          5    1    3    3  501    0 -0.33323859438E+03  0.41547098371E+02 -0.41809596251E+02  0.33843705014E+03  0.41800000000E+01 0. -1.
         -5    1    3    3    0  501 -0.15745476163E+03  0.73404338667E+02 -0.97224685264E+02  0.19912385774E+03  0.41800000000E+01 0. -1.
</event>
<event>
11    1  0.2450992E-009  0.1977326E+03  0.7561462E-02  0.1056139E+00
         22   -1    0    0    0    0  0.00000000000E+00  0.00000000000E+00  0.62630950717E+03  0.62630950717E+03  0.00000000000E+00 0. -1.
         22   -1    0    0    0    0 -0.00000000000E+00 -0.00000000000E+00 -0.16752367247E+03  0.16752367247E+03  0.00000000000E+00 0.  1.
         25    2    1    2    0    0  0.15543333731E+03 -0.54332958272E+02  0.15348116044E+03  0.25751796707E+03  0.12508974398E+03 0.  0.
        -24    2    1    2    0    0 -0.11272047642E+03  0.10277644095E+03 -0.38740833738E+02  0.17709672403E+03  0.81200337727E+02 0.  0.
         24    2    1    2    0    0 -0.42712860892E+02 -0.48443482673E+02  0.34404550799E+03  0.35921848854E+03  0.80619175376E+02 0.  0.
        -11    1    5    5    0    0 -0.24752334453E+02 -0.10591422946E+02  0.22880849796E+02  0.35332557058E+02  0.00000000000E+00 0.  1.
         12    1    5    5    0    0 -0.17960526439E+02 -0.37852059727E+02  0.32116465820E+03  0.32388593148E+03  0.00000000000E+00 0. -1.
         13    1    4    4    0    0 -0.17328072090E+02 -0.29801138275E+01  0.16713874978E+02  0.24258952524E+02  0.00000000000E+00 0. -1.
        -14    1    4    4    0    0 -0.95392404327E+02  0.10575655477E+03 -0.55454708716E+02  0.15283777151E+03  0.00000000000E+00 0.  1.
          5    1    3    3  501    0  0.70749398740E+02  0.15785494339E+02  0.50902953354E+01  0.72787655273E+02  0.41800000000E+01 0.  1.
         -5    1    3    3    0  501  0.84683938569E+02 -0.70118452611E+02  0.14839086511E+03  0.18473031180E+03  0.41800000000E+01 0.  1.
</event>
<event>
11    1  0.2450992E-009  0.1827452E+03  0.7561462E-02  0.1067444E+00
         22   -1    0    0    0    0  0.00000000000E+00  0.00000000000E+00  0.13094214964E+04  0.13094214964E+04  0.00000000000E+00 0.  1.
         22   -1    0    0    0    0 -0.00000000000E+00 -0.00000000000E+00 -0.13747448514E+03  0.13747448514E+03  0.00000000000E+00 0.  1.
         25    2    1    2    0    0 -0.81687253543E+02  0.82318757488E+02 -0.35210132171E+02  0.17417377577E+03  0.12509022957E+03 0.  0.
         24    2    1    2    0    0 -0.18846157662E+02  0.64097533503E+01  0.37085807476E+02  0.92286952938E+02  0.82129543830E+02 0.  0.
        -24    2    1    2    0    0  0.10053341121E+03 -0.88728510839E+02  0.11700713360E+04  0.11804352528E+04  0.79879531016E+02 0.  0.
        -11    1    4    4    0    0  0.88773183472E+01  0.35144376205E+02 -0.21439427966E+01  0.36311574609E+02  0.00000000000E+00 0.  1.
         12    1    4    4    0    0 -0.27723476009E+02 -0.28734622854E+02  0.39229750273E+02  0.55975378329E+02  0.00000000000E+00 0. -1.
         11    1    5    5    0    0  0.25848568325E+02  0.38769768244E+01  0.86780584487E+02  0.90631392341E+02  0.00000000000E+00 0. -1.
        -12    1    5    5    0    0  0.74684842880E+02 -0.92605487663E+02  0.10832907515E+04  0.10898038605E+04  0.00000000000E+00 0.  1.
          5    1    3    3  501    0 -0.67344511016E+02 -0.17154688506E+02 -0.20038025950E+02  0.72446955669E+02  0.41800000000E+01 0.  1.
         -5    1    3    3    0  501 -0.14342742528E+02  0.99473445995E+02 -0.15172106221E+02  0.10172682010E+03  0.41800000000E+01 0.  1.
</event>
<event>
11    1  0.2450992E-009  0.1262476E+03  0.7561462E-02  0.1123967E+00
         22   -1    0    0    0    0  0.00000000000E+00  0.00000000000E+00  0.23048458504E+02  0.23048458504E+02  0.00000000000E+00 0. -1.
         22   -1    0    0    0    0 -0.00000000000E+00 -0.00000000000E+00 -0.20708684898E+04  0.20708684898E+04  0.00000000000E+00 0. -1.
         25    2    1    2    0    0  0.25325321274E+01  0.99237465924E+00 -0.12700207402E+04  0.12761690138E+04  0.12508905971E+03 0.  0.
         24    2    1    2    0    0 -0.45535892684E+02 -0.86089852781E+02 -0.38053532958E+03  0.40117394230E+03  0.81537811177E+02 0.  0.
        -24    2    1    2    0    0  0.43003360556E+02  0.85097478122E+02 -0.39726396157E+03  0.41657399220E+03  0.81390208326E+02 0.  0.
        -11    1    4    4    0    0 -0.15012334647E+02  0.51953124385E+01 -0.15692900407E+03  0.15773101718E+03  0.00000000000E+00 0.  1.
         12    1    4    4    0    0 -0.30523558036E+02 -0.91285165220E+02 -0.22360632551E+03  0.24344292512E+03  0.00000000000E+00 0. -1.
         11    1    5    5    0    0  0.24845113259E+02  0.99145040092E+02 -0.31508493963E+03  0.33124845329E+03  0.00000000000E+00 0. -1.
        -12    1    5    5    0    0  0.18158247297E+02 -0.14047561970E+02 -0.82179021946E+02  0.85325538910E+02  0.00000000000E+00 0.  1.
          5    1    3    3  501    0 -0.85951551977E+01  0.40778191114E+02 -0.16060393141E+03  0.16597539802E+03  0.41800000000E+01 0.  1.
         -5    1    3    3    0  501  0.11127687325E+02 -0.39785816455E+02 -0.11094168088E+04  0.11101936158E+04  0.41800000000E+01 0.  1.
</event>
<event>
11    1  0.2450992E-009  0.3890187E+03  0.7561462E-02  0.9682726E-01
         22   -1    0    0    0    0  0.00000000000E+00  0.00000000000E+00  0.14974406882E+04  0.14974406882E+04  0.00000000000E+00 0.  1.
         22   -1    0    0    0    0 -0.00000000000E+00 -0.00000000000E+00 -0.49386421302E+03  0.49386421302E+03  0.00000000000E+00 0.  1.
         25    2    1    2    0    0 -0.38459192549E+03 -0.96229271042E+02 -0.34617385306E+03  0.54097604587E+03  0.12509086259E+03 0.  0.
        -24    2    1    2    0    0  0.24534036110E+03  0.50378392253E+02  0.36618685697E+03  0.45281403222E+03  0.90652404070E+02 0.  0.
         24    2    1    2    0    0  0.13925156439E+03  0.45850878789E+02  0.98356347126E+03  0.99751482314E+03  0.78392723592E+02 0.  0.
        -13    1    5    5    0    0  0.14389972135E+03  0.41749261400E+02  0.97723937896E+03  0.98865915988E+03  0.00000000000E+00 0.  1.
         14    1    5    5    0    0 -0.46481569563E+01  0.41016173894E+01  0.63240923080E+01  0.88556632626E+01  0.00000000000E+00 0. -1.
         11    1    4    4    0    0  0.32686553035E+02  0.22357968813E+02  0.17186386723E+02  0.43170144862E+02  0.00000000000E+00 0. -1.
        -12    1    4    4    0    0  0.21265380806E+03  0.28020423440E+02  0.34900047025E+03  0.40964388736E+03  0.00000000000E+00 0.  1.
          5    1    3    3  501    0 -0.36330109684E+02 -0.51338081012E+02 -0.70188446600E+02  0.94336450367E+02  0.41800000000E+01 0. -1.
         -5    1    3    3    0  501 -0.34826181581E+03 -0.44891190031E+02 -0.27598540646E+03  0.44663959550E+03  0.41800000000E+01 0. -1.
</event>
<event>
11    1  0.2450992E-009  0.1433854E+04  0.7561462E-02  0.8349488E-01
         22   -1    0    0    0    0  0.00000000000E+00  0.00000000000E+00  0.16711866193E+04  0.16711866193E+04  0.00000000000E+00 0.  1.
         22   -1    0    0    0    0 -0.00000000000E+00 -0.00000000000E+00 -0.17711444066E+04  0.17711444066E+04  0.00000000000E+00 0.  1.
         25    2    1    2    0    0  0.81237234647E+03 -0.12145496372E+04 -0.79207508695E+03  0.16667664249E+04  0.12509085245E+03 0.  0.
         24    2    1    2    0    0 -0.91957886470E+03  0.99868579692E+03  0.68262744380E+03  0.15216754176E+04  0.80729425182E+02 0.  0.
        -24    2    1    2    0    0  0.10720651823E+03  0.21586384029E+03  0.94898559261E+01  0.25388918335E+03  0.79241560844E+02 0.  0.
        -13    1    4    4    0    0 -0.20427733984E+03  0.19343342617E+03  0.17144391328E+03  0.32945217761E+03  0.00000000000E+00 0.  1.
         14    1    4    4    0    0 -0.71530152486E+03  0.80525237075E+03  0.51118353052E+03  0.11922232400E+04  0.00000000000E+00 0. -1.
         11    1    5    5    0    0  0.71616578675E+02  0.60065809356E+02  0.10631736670E+02  0.94073745643E+02  0.00000000000E+00 0. -1.
        -12    1    5    5    0    0  0.35589939553E+02  0.15579803093E+03 -0.11418807437E+01  0.15981543771E+03  0.00000000000E+00 0.  1.
          5    1    3    3  501    0  0.63406895787E+03 -0.10135661552E+04 -0.68180831256E+03  0.13763138602E+04  0.41800000000E+01 0. -1.
         -5    1    3    3    0  501  0.17830338860E+03 -0.20098348200E+03 -0.11026677440E+03  0.29045256473E+03  0.41800000000E+01 0. -1.
</event>
<event>
11    1  0.2450992E-009  0.1455105E+04  0.7561462E-02  0.8336575E-01
         22   -1    0    0    0    0  0.00000000000E+00  0.00000000000E+00  0.99674363746E+03  0.99674363746E+03  0.00000000000E+00 0.  1.
         22   -1    0    0    0    0 -0.00000000000E+00 -0.00000000000E+00 -0.53106181212E+03  0.53106181212E+03  0.00000000000E+00 0.  1.
         25    2    1    2    0    0  0.54620878594E+03  0.28448262677E+03 -0.11067496916E+03  0.63810009003E+03  0.12509345836E+03 0.  0.
         24    2    1    2    0    0 -0.31214151343E+03 -0.18513140734E+03  0.18823329873E+03  0.41873180093E+03  0.90546032309E+02 0.  0.
        -24    2    1    2    0    0 -0.23406727251E+03 -0.99351219434E+02  0.38812349576E+03  0.47097355862E+03  0.80734701900E+02 0.  0.
        -13    1    4    4    0    0 -0.27934443617E+03 -0.19128489444E+03  0.18331060251E+03  0.38500130110E+03  0.00000000000E+00 0.  1.
         14    1    4    4    0    0 -0.32797077264E+02  0.61534870992E+01  0.49226962262E+01  0.33730499828E+02  0.00000000000E+00 0. -1.
         13    1    5    5    0    0 -0.13445510643E+03 -0.62867482050E+02  0.29316849929E+03  0.32860046397E+03  0.00000000000E+00 0. -1.
        -14    1    5    5    0    0 -0.99612166084E+02 -0.36483737385E+02  0.94954996473E+02  0.14237309465E+03  0.00000000000E+00 0.  1.
          5    1    3    3  501    0  0.37640566692E+03  0.23369204341E+03 -0.12463434027E+03  0.46026556292E+03  0.41800000000E+01 0. -1.
         -5    1    3    3    0  501  0.16980311903E+03  0.50790583364E+02  0.13959371112E+02  0.17783452711E+03  0.41800000000E+01 0. -1.
</event>
<event>
11    1  0.2450992E-009  0.2043443E+03  0.7561462E-02  0.1051493E+00
         22   -1    0    0    0    0  0.00000000000E+00  0.00000000000E+00  0.29276967000E+03  0.29276967000E+03  0.00000000000E+00 0. -1.
         22   -1    0    0    0    0 -0.00000000000E+00 -0.00000000000E+00 -0.11132724672E+04  0.11132724672E+04  0.00000000000E+00 0.  1.
         25    2    1    2    0    0  0.49351051286E+02  0.16891123857E+03 -0.28553940897E+03  0.35797666782E+03  0.12509199754E+03 0.  0.
        -24    2    1    2    0    0 -0.27938370529E+02 -0.15500573951E+03 -0.77421135450E+03  0.79585054189E+03  0.95747228535E+02 0.  0.
         24    2    1    2    0    0 -0.21412680757E+02 -0.13905499061E+02  0.23924796625E+03  0.25221492751E+03  0.75636727231E+02 0.  0.
        -13    1    5    5    0    0  0.80289372481E+01  0.17118564327E+02  0.15596052912E+02  0.24510119224E+02  0.00000000000E+00 0.  1.
         14    1    5    5    0    0 -0.29441618005E+02 -0.31024063388E+02  0.22365191333E+03  0.22770480829E+03  0.00000000000E+00 0. -1.
         11    1    4    4    0    0 -0.16563000871E+02 -0.37389481412E+02 -0.64512886079E+02  0.76382058026E+02  0.00000000000E+00 0. -1.
        -12    1    4    4    0    0 -0.11375369658E+02 -0.11761625810E+03 -0.70969846842E+03  0.71946848387E+03  0.00000000000E+00 0.  1.
          5    1    3    3  501    0 -0.29863916653E+02  0.41246902182E+01 -0.62711665636E+02  0.69707187536E+02  0.41800000000E+01 0.  1.
         -5    1    3    3    0  501  0.79214967939E+02  0.16478654835E+03 -0.22282774334E+03  0.28826948029E+03  0.41800000000E+01 0.  1.
</event>
<event>
11    1  0.2450992E-009  0.3388219E+03  0.7561462E-02  0.9849800E-01
         22   -1    0    0    0    0  0.00000000000E+00  0.00000000000E+00  0.81823890126E+03  0.81823890126E+03  0.00000000000E+00 0.  1.
         22   -1    0    0    0    0 -0.00000000000E+00 -0.00000000000E+00 -0.22465733954E+03  0.22465733954E+03  0.00000000000E+00 0.  1.
         25    2    1    2    0    0  0.18096207163E+02  0.85231547456E+02 -0.65762182524E+02  0.16603889071E+03  0.12510938887E+03 0.  0.
         24    2    1    2    0    0 -0.42323217703E+01  0.15825913994E+03  0.86331508154E+01  0.17756550056E+03  0.79944404268E+02 0.  0.
        -24    2    1    2    0    0 -0.13863885393E+02 -0.24349068739E+03  0.65071059342E+03  0.69929184953E+03  0.78133810018E+02 0.  0.
        -11    1    4    4    0    0  0.16520921008E+02  0.84974396324E+02  0.39790397031E+02  0.95272580302E+02  0.00000000000E+00 0.  1.
         12    1    4    4    0    0 -0.20753242778E+02  0.73284743612E+02 -0.31157246216E+02  0.82292920253E+02  0.00000000000E+00 0. -1.
         13    1    5    5    0    0  0.10933017493E+02 -0.14410175380E+03  0.46824539134E+03  0.49003937886E+03  0.00000000000E+00 0. -1.
        -14    1    5    5    0    0 -0.24796902886E+02 -0.99388933592E+02  0.18246520208E+03  0.20925247067E+03  0.00000000000E+00 0.  1.
          5    1    3    3  501    0  0.60923000329E+02  0.50800619229E+01 -0.22196219184E+02  0.65173334611E+02  0.41800000000E+01 0.  1.
         -5    1    3    3    0  501 -0.42826793166E+02  0.80151485534E+02 -0.43565963340E+02  0.10086555610E+03  0.41800000000E+01 0.  1.
</event>
<event>
11    1  0.2450992E-009  0.2133118E+03  0.7561462E-02  0.1045490E+00
         22   -1    0    0    0    0  0.00000000000E+00  0.00000000000E+00  0.54055610186E+03  0.54055610186E+03  0.00000000000E+00 0. -1.
         22   -1    0    0    0    0 -0.00000000000E+00 -0.00000000000E+00 -0.24120033863E+03  0.24120033863E+03  0.00000000000E+00 0. -1.
         25    2    1    2    0    0  0.30254965209E+02 -0.19346796425E+03 -0.28493817696E+02  0.23410387528E+03  0.12509001024E+03 0.  0.
        -24    2    1    2    0    0 -0.65526115208E+01  0.15650870040E+03 -0.29992022369E+02  0.17829642653E+03  0.79700591512E+02 0.  0.
         24    2    1    2    0    0 -0.23702353688E+02  0.36959263848E+02  0.35784160330E+03  0.36935613869E+03  0.80284216250E+02 0.  0.
        -13    1    5    5    0    0 -0.31409261453E+02  0.42676761907E+02  0.11833437981E+03  0.12965675130E+03  0.00000000000E+00 0.  1.
         14    1    5    5    0    0  0.77069077645E+01 -0.57174980595E+01  0.23950722349E+03  0.23969938739E+03  0.00000000000E+00 0. -1.
         13    1    4    4    0    0  0.29382538971E+02  0.93823455045E+02 -0.38408894002E+02  0.10555291304E+03  0.00000000000E+00 0. -1.
        -14    1    4    4    0    0 -0.35935150492E+02  0.62685245357E+02  0.84168716324E+01  0.72743513487E+02  0.00000000000E+00 0.  1.
          5    1    3    3  501    0  0.56004404211E+02 -0.18617175386E+03 -0.48517006908E+02  0.20041903000E+03  0.41800000000E+01 0.  1.
         -5    1    3    3    0  501 -0.25749439002E+02 -0.72962103878E+01  0.20023189213E+02  0.33684845275E+02  0.41800000000E+01 0.  1.
</event>
<event>
11    1  0.2450992E-009  0.1970871E+03  0.7561462E-02  0.1056603E+00
         22   -1    0    0    0    0  0.00000000000E+00  0.00000000000E+00  0.41361721207E+03  0.41361721207E+03  0.00000000000E+00 0.  1.
         22   -1    0    0    0    0 -0.00000000000E+00 -0.00000000000E+00 -0.85357350698E+03  0.85357350698E+03  0.00000000000E+00 0.  1.
         25    2    1    2    0    0  0.32454412959E+02 -0.14913396710E+03 -0.78812834405E+03  0.81245817976E+03  0.12509107922E+03 0.  0.
         24    2    1    2    0    0  0.40328442032E+02  0.15766928881E+03  0.18493226466E+03  0.25900348739E+03  0.79980473238E+02 0.  0.
        -24    2    1    2    0    0 -0.72782854991E+02 -0.85353217115E+01  0.16323978448E+03  0.19572905191E+03  0.79324894126E+02 0.  0.
        -11    1    4    4    0    0  0.58836708697E+02  0.12618575967E+03  0.11693656476E+03  0.18182069302E+03  0.00000000000E+00 0.  1.
         12    1    4    4    0    0 -0.18508266665E+02  0.31483529139E+02  0.67995699894E+02  0.77182794366E+02  0.00000000000E+00 0. -1.
         13    1    5    5    0    0  0.15144240698E+02  0.86435631788E+01  0.17854730161E+02  0.24956974975E+02  0.00000000000E+00 0. -1.
        -14    1    5    5    0    0 -0.87927095689E+02 -0.17178884890E+02  0.14538505432E+03  0.17077207694E+03  0.00000000000E+00 0.  1.
          5    1    3    3  501    0  0.19316573998E+02 -0.11951880169E+03 -0.30427902602E+03  0.32750736185E+03  0.41800000000E+01 0.  1.
         -5    1    3    3    0  501  0.13137838961E+02 -0.29615165403E+02 -0.48384931802E+03  0.48495081791E+03  0.41800000000E+01 0.  1.
</event>
<event>
11    1  0.2450992E-009  0.1876265E+03  0.7561462E-02  0.1063636E+00
         22   -1    0    0    0    0  0.00000000000E+00  0.00000000000E+00  0.39680504408E+04  0.39680504408E+04  0.00000000000E+00 0. -1.
         22   -1    0    0    0    0 -0.00000000000E+00 -0.00000000000E+00 -0.12258468603E+02  0.12258468603E+02  0.00000000000E+00 0. -1.
         25    2    1    2    0    0 -0.13050713480E+03  0.73439012795E+02  0.14814468042E+04  0.14942414915E+04  0.12509036835E+03 0.  0.
         24    2    1    2    0    0  0.12545046044E+03 -0.38404417642E+02  0.15424771672E+04  0.15500570204E+04  0.78919183998E+02 0.  0.
        -24    2    1    2    0    0  0.50566743582E+01 -0.35034595153E+02  0.93186800070E+03  0.93601039754E+03  0.80526397872E+02 0.  0.
        -13    1    4    4    0    0  0.39178532593E+02 -0.97971641528E+01  0.92959911814E+03  0.93047593321E+03  0.00000000000E+00 0.  1.
         14    1    4    4    0    0  0.86271927844E+02 -0.28607253489E+02  0.61287804910E+03  0.61958108715E+03  0.00000000000E+00 0. -1.
         13    1    5    5    0    0 -0.29856798992E+02  0.95385482341E+01  0.33360153672E+03  0.33507073530E+03  0.00000000000E+00 0. -1.
        -14    1    5    5    0    0  0.34913473351E+02 -0.44573143387E+02  0.59826646398E+03  0.60093966224E+03  0.00000000000E+00 0.  1.
          5    1    3    3  501    0 -0.61262677682E+02 -0.17049216371E+02  0.86459710067E+03  0.86694256461E+03  0.41800000000E+01 0.  1.
         -5    1    3    3    0  501 -0.69244457113E+02  0.90488229166E+02  0.61684970355E+03  0.62729892685E+03  0.41800000000E+01 0.  1.
</event>
<event>
11    1  0.2450992E-009  0.1389747E+03  0.7561462E-02  0.1108709E+00
         22   -1    0    0    0    0  0.00000000000E+00  0.00000000000E+00  0.72645120080E+02  0.72645120080E+02  0.00000000000E+00 0. -1.
         22   -1    0    0    0    0 -0.00000000000E+00 -0.00000000000E+00 -0.15924207323E+04  0.15924207323E+04  0.00000000000E+00 0. -1.
         25    2    1    2    0    0 -0.33663253059E+02 -0.41806669265E+02 -0.76666031290E+03  0.77865097264E+03  0.12509312381E+03 0.  0.
         24    2    1    2    0    0  0.58801513069E+02  0.30582136805E+02 -0.78734926153E+03  0.79423627554E+03  0.80619580224E+02 0.  0.
        -24    2    1    2    0    0 -0.25138260009E+02  0.11224532460E+02  0.34233962235E+02  0.92178604172E+02  0.81037081954E+02 0.  0.
        -13    1    4    4    0    0  0.40081131131E+02 -0.12311658394E+02 -0.58690423945E+03  0.58840008522E+03  0.00000000000E+00 0.  1.
         14    1    4    4    0    0  0.18720381938E+02  0.42893795199E+02 -0.20044502208E+03  0.20583619032E+03  0.00000000000E+00 0. -1.
         13    1    5    5    0    0  0.14762718510E+02 -0.36469514150E+01  0.45630531438E+02  0.48097645595E+02  0.00000000000E+00 0. -1.
        -14    1    5    5    0    0 -0.39900978520E+02  0.14871483875E+02 -0.11396569203E+02  0.44080958577E+02  0.00000000000E+00 0.  1.
          5    1    3    3  501    0  0.70940278585E+01 -0.71035316148E+02 -0.26522863335E+03  0.27469991212E+03  0.41800000000E+01 0.  1.
         -5    1    3    3    0  501 -0.40757280918E+02  0.29228646883E+02 -0.50143167955E+03  0.50395106052E+03  0.41800000000E+01 0.  1.
</event>
<event>
11    1  0.2450992E-009  0.1282585E+03  0.7561462E-02  0.1121427E+00
         22   -1    0    0    0    0  0.00000000000E+00  0.00000000000E+00  0.13127466040E+04  0.13127466040E+04  0.00000000000E+00 0. -1.
         22   -1    0    0    0    0 -0.00000000000E+00 -0.00000000000E+00 -0.35995610634E+03  0.35995610634E+03  0.00000000000E+00 0.  1.
         25    2    1    2    0    0 -0.10682312859E+02  0.32570446429E+02 -0.18327878959E+03  0.22452660133E+03  0.12508450824E+03 0.  0.
         24    2    1    2    0    0 -0.13914159659E+02 -0.18420521650E+02 -0.14360663718E+03  0.16569875282E+03  0.79374372368E+02 0.  0.
        -24    2    1    2    0    0  0.24596472518E+02 -0.14149924779E+02  0.12796759244E+04  0.12824773562E+04  0.79827882191E+02 0.  0.
        -13    1    4    4    0    0 -0.16293736940E+00 -0.47664373498E+02 -0.10527550012E+03  0.11556318607E+03  0.00000000000E+00 0.  1.
         14    1    4    4    0    0 -0.13751222290E+02  0.29243851848E+02 -0.38331137061E+02  0.50135566754E+02  0.00000000000E+00 0. -1.
         13    1    5    5    0    0  0.81455076785E+01  0.11084645626E+01  0.11902862927E+04  0.11903146796E+04  0.00000000000E+00 0. -1.
        -14    1    5    5    0    0  0.16450964839E+02 -0.15258389342E+02  0.89389631732E+02  0.92162676560E+02  0.00000000000E+00 0.  1.
          5    1    3    3  501    0 -0.57287262736E+02  0.26310153838E+02 -0.42757378627E+02  0.76287092577E+02  0.41800000000E+01 0.  1.
         -5    1    3    3    0  501  0.46604949877E+02  0.62602925914E+01 -0.14052141096E+03  0.14823950875E+03  0.41800000000E+01 0.  1.
</event>
<event>
11    1  0.2450992E-009  0.2321752E+03  0.7561462E-02  0.1033848E+00
         22   -1    0    0    0    0  0.00000000000E+00  0.00000000000E+00  0.49283160926E+03  0.49283160926E+03  0.00000000000E+00 0.  1.
         22   -1    0    0    0    0 -0.00000000000E+00 -0.00000000000E+00 -0.17826808147E+03  0.17826808147E+03  0.00000000000E+00 0. -1.
         25    2    1    2    0    0 -0.17501887494E+03  0.16595495010E+02  0.32212952796E+02  0.21814396773E+03  0.12506837846E+03 0.  0.
        -24    2    1    2    0    0  0.23299210160E+03 -0.45352488140E+02  0.19893149648E+03  0.32020320787E+03  0.81327648733E+02 0.  0.
         24    2    1    2    0    0 -0.57973226660E+02  0.28756993130E+02  0.83419078514E+02  0.13275251513E+03  0.80477499658E+02 0.  0.
        -13    1    5    5    0    0 -0.51085721913E+02  0.42929841355E+02  0.92885618576E+02  0.11436984043E+03  0.00000000000E+00 0.  1.
         14    1    5    5    0    0 -0.68875047473E+01 -0.14172848225E+02 -0.94665400624E+01  0.18382674702E+02  0.00000000000E+00 0. -1.
         13    1    4    4    0    0  0.81954067690E+02  0.19932251009E+01  0.26540766425E+02  0.86167595067E+02  0.00000000000E+00 0. -1.
        -14    1    4    4    0    0  0.15103803391E+03 -0.47345713241E+02  0.17239073006E+03  0.23403561280E+03  0.00000000000E+00 0.  1.
          5    1    3    3  501    0 -0.73835881351E+02 -0.50215522685E+02 -0.93977174249E+01  0.89883956222E+02  0.41800000000E+01 0.  1.
         -5    1    3    3    0  501 -0.10118299358E+03  0.66811017695E+02  0.41610670221E+02  0.12826001151E+03  0.41800000000E+01 0.  1.
</event>
<event>
11    1  0.2450992E-009  0.1439342E+03  0.7561462E-02  0.1103243E+00
         22   -1    0    0    0    0  0.00000000000E+00  0.00000000000E+00  0.15224814032E+03  0.15224814032E+03  0.00000000000E+00 0. -1.
         22   -1    0    0    0    0 -0.00000000000E+00 -0.00000000000E+00 -0.65786239760E+03  0.65786239760E+03  0.00000000000E+00 0. -1.
         25    2    1    2    0    0 -0.43125608787E+02 -0.49867574586E+02 -0.37139899664E+03  0.39740593891E+03  0.12509065691E+03 0.  0.
         24    2    1    2    0    0  0.69573292453E+02  0.36562067595E+02 -0.24492891540E+03  0.26947610338E+03  0.80311698303E+02 0.  0.
        -24    2    1    2    0    0 -0.26447683666E+02  0.13305506991E+02  0.11071365477E+03  0.14322849563E+03  0.85909092193E+02 0.  0.
        -13    1    4    4    0    0 -0.91949133990E+01  0.14326144162E+02 -0.80010187833E+01  0.18809602349E+02  0.00000000000E+00 0.  1.
         14    1    4    4    0    0  0.78768205852E+02  0.22235923434E+02 -0.23692789662E+03  0.25066650103E+03  0.00000000000E+00 0. -1.
         11    1    5    5    0    0 -0.76219528731E+01  0.33420952706E+02  0.11048112319E+03  0.11567684655E+03  0.00000000000E+00 0. -1.
        -12    1    5    5    0    0 -0.18825730793E+02 -0.20115445715E+02  0.23253157301E+00  0.27551649082E+02  0.00000000000E+00 0.  1.
          5    1    3    3  501    0 -0.63275811266E+02  0.14627044752E+02 -0.11414925653E+03  0.13139750339E+03  0.41800000000E+01 0.  1.
         -5    1    3    3    0  501  0.20150202479E+02 -0.64494619338E+02 -0.25724974011E+03  0.26600843552E+03  0.41800000000E+01 0.  1.
</event>
<event>
11    1  0.2450992E-009  0.2559034E+03  0.7561462E-02  0.1020801E+00
         22   -1    0    0    0    0  0.00000000000E+00  0.00000000000E+00  0.28969959416E+03  0.28969959416E+03  0.00000000000E+00 0. -1.
         22   -1    0    0    0    0 -0.00000000000E+00 -0.00000000000E+00 -0.17252157949E+04  0.17252157949E+04  0.00000000000E+00 0. -1.
         25    2    1    2    0    0  0.21728379610E+03  0.20353495903E+02 -0.15267760768E+04  0.15473595997E+04  0.12510007719E+03 0.  0.
         24    2    1    2    0    0 -0.31886264626E+03  0.86319121824E+01  0.55568928853E+02  0.32927222981E+03  0.59869845347E+02 0.  0.
        -24    2    1    2    0    0  0.10157885015E+03 -0.28985408086E+02  0.35690947240E+02  0.13828355951E+03  0.81792924109E+02 0.  0.
        -11    1    4    4    0    0 -0.43782369779E+02  0.12121065458E+01  0.29612873072E+02  0.52870477180E+02  0.00000000000E+00 0.  1.
         12    1    4    4    0    0 -0.27508027648E+03  0.74198056366E+01  0.25956055782E+02  0.27640175262E+03  0.00000000000E+00 0. -1.
         11    1    5    5    0    0  0.10312797561E+03 -0.77273174245E+01  0.85447514351E+01  0.10376947318E+03  0.00000000000E+00 0. -1.
        -12    1    5    5    0    0 -0.15491254514E+01 -0.21258090661E+02  0.27146195805E+02  0.34514086325E+02  0.00000000000E+00 0.  1.
          5    1    3    3  501    0  0.17152699890E+03  0.55080592146E+02 -0.13354359269E+04  0.13475392277E+04  0.41800000000E+01 0.  1.
         -5    1    3    3    0  501  0.45756797202E+02 -0.34727096243E+02 -0.19134014993E+03  0.19982037203E+03  0.41800000000E+01 0.  1.
</event>
<event>
11    1  0.2450992E-009  0.2651172E+03  0.7561462E-02  0.1016141E+00
         22   -1    0    0    0    0  0.00000000000E+00  0.00000000000E+00  0.28699748518E+03  0.28699748518E+03  0.00000000000E+00 0. -1.
         22   -1    0    0    0    0 -0.00000000000E+00 -0.00000000000E+00 -0.84037797598E+03  0.84037797598E+03  0.00000000000E+00 0. -1.
         25    2    1    2    0    0  0.18029285197E+03  0.13367426587E+03 -0.55836267797E+03  0.61464645968E+03  0.12508824254E+03 0.  0.
        -24    2    1    2    0    0 -0.14950530680E+03 -0.28543833847E+03  0.39469259275E+02  0.33450778285E+03  0.80689234315E+02 0.  0.
         24    2    1    2    0    0 -0.30787545166E+02  0.15176407260E+03 -0.34487072106E+02  0.17822121862E+03  0.81198755877E+02 0.  0.
        -11    1    5    5    0    0  0.54729529128E+01  0.13059382500E+03 -0.13863598658E+02  0.13144162092E+03  0.00000000000E+00 0.  1.
         12    1    5    5    0    0 -0.36260498079E+02  0.21170247596E+02 -0.20623473448E+02  0.46779597703E+02  0.00000000000E+00 0. -1.
         13    1    4    4    0    0 -0.75780921934E+02 -0.68938110878E+02  0.16388373011E+00  0.10244626942E+03  0.00000000000E+00 0. -1.
        -14    1    4    4    0    0 -0.73724384866E+02 -0.21650022759E+03  0.39305375545E+02  0.23206151343E+03  0.00000000000E+00 0.  1.
          5    1    3    3  501    0  0.17128208754E+03  0.71106254254E+02 -0.47504353195E+03  0.50997792359E+03  0.41800000000E+01 0.  1.
         -5    1    3    3    0  501  0.90107644250E+01  0.62568011616E+02 -0.83319146025E+02  0.10466853609E+03  0.41800000000E+01 0.  1.
</event>
<event>
11    1  0.2450992E-009  0.1380533E+03  0.7561462E-02  0.1109752E+00
         22   -1    0    0    0    0  0.00000000000E+00  0.00000000000E+00  0.11378586101E+03  0.11378586101E+03  0.00000000000E+00 0.  1.
         22   -1    0    0    0    0 -0.00000000000E+00 -0.00000000000E+00 -0.10895089426E+04  0.10895089426E+04  0.00000000000E+00 0. -1.
         25    2    1    2    0    0 -0.37227844459E+02 -0.22235466952E+01 -0.64008661598E+03  0.65326246486E+03  0.12510042153E+03 0.  0.
        -24    2    1    2    0    0  0.83640960510E+02 -0.13641810040E+02 -0.41464855868E+03  0.43066783730E+03  0.79746157355E+02 0.  0.
         24    2    1    2    0    0 -0.46413116051E+02  0.15865356735E+02  0.79012093125E+02  0.11936450141E+03  0.74827043581E+02 0.  0.
        -11    1    5    5    0    0 -0.51941763949E+02  0.36972681906E+02  0.72602373801E+02  0.96623137659E+02  0.00000000000E+00 0.  1.
         12    1    5    5    0    0  0.55286478986E+01 -0.21107325171E+02  0.64097193241E+01  0.22741363751E+02  0.00000000000E+00 0. -1.
         13    1    4    4    0    0  0.70064481289E+02  0.58978254637E+01 -0.39045329135E+03  0.39673364945E+03  0.00000000000E+00 0. -1.
        -14    1    4    4    0    0  0.13576479222E+02 -0.19539635503E+02 -0.24195267336E+02  0.33934187851E+02  0.00000000000E+00 0.  1.
          5    1    3    3  501    0 -0.29231941065E+02  0.48997602691E+02 -0.50947043331E+03  0.51267227960E+03  0.41800000000E+01 0.  1.
         -5    1    3    3    0  501 -0.79959033940E+01 -0.51221149387E+02 -0.13061618267E+03  0.14059018526E+03  0.41800000000E+01 0.  1.
</event>
<event>
11    1  0.2450992E-009  0.1758209E+03  0.7561462E-02  0.1073074E+00
         22   -1    0    0    0    0  0.00000000000E+00  0.00000000000E+00  0.48375345152E+03  0.48375345152E+03  0.00000000000E+00 0.  1.
         22   -1    0    0    0    0 -0.00000000000E+00 -0.00000000000E+00 -0.67647322678E+03  0.67647322678E+03  0.00000000000E+00 0. -1.
         25    2    1    2    0    0  0.20242275200E+00  0.11972272968E+03 -0.34241100619E+03  0.38370055414E+03  0.12508894878E+03 0.  0.
         24    2    1    2    0    0 -0.82455684600E+02 -0.26057466721E+02 -0.28945322324E+03  0.31311030066E+03  0.82322296163E+02 0.  0.
        -24    2    1    2    0    0  0.82253261848E+02 -0.93665262963E+02  0.43914445417E+03  0.46341582350E+03  0.79797200870E+02 0.  0.
        -11    1    4    4    0    0 -0.72455351009E+02 -0.15508895284E+02 -0.10741379216E+03  0.13049148044E+03  0.00000000000E+00 0.  1.
         12    1    4    4    0    0 -0.10000333591E+02 -0.10548571437E+02 -0.18203943108E+03  0.18261882022E+03  0.00000000000E+00 0. -1.
         11    1    5    5    0    0  0.80416256458E+02 -0.40539008560E+02  0.21589440776E+03  0.23392430575E+03  0.00000000000E+00 0. -1.
        -12    1    5    5    0    0  0.18370053900E+01 -0.53126254404E+02  0.22325004641E+03  0.22949151775E+03  0.00000000000E+00 0.  1.
          5    1    3    3  501    0  0.65341032656E+01  0.69887571580E+02 -0.48315322306E+02  0.85315941865E+02  0.41800000000E+01 0.  1.
         -5    1    3    3    0  501 -0.63316805136E+01  0.49835158104E+02 -0.29409568389E+03  0.29838461228E+03  0.41800000000E+01 0.  1.
</event>
<event>
11    1  0.2450992E-009  0.3742978E+03  0.7561462E-02  0.9728793E-01
         22   -1    0    0    0    0  0.00000000000E+00  0.00000000000E+00  0.88218217009E+03  0.88218217009E+03  0.00000000000E+00 0. -1.
         22   -1    0    0    0    0 -0.00000000000E+00 -0.00000000000E+00 -0.40733567718E+03  0.40733567718E+03  0.00000000000E+00 0. -1.
         25    2    1    2    0    0 -0.31524929298E+03 -0.27534536212E+03 -0.12494900263E+03  0.45437622677E+03  0.12509323334E+03 0.  0.
         24    2    1    2    0    0  0.25156364660E+03  0.11613312186E+03  0.10800784257E+03  0.30803854033E+03  0.80317357946E+02 0.  0.
        -24    2    1    2    0    0  0.63685646380E+02  0.15921224027E+03  0.49178765296E+03  0.52710308016E+03  0.81105872194E+02 0.  0.
        -13    1    4    4    0    0  0.11493785628E+03  0.89127830625E+02  0.30340726411E+02  0.14857671647E+03  0.00000000000E+00 0.  1.
         14    1    4    4    0    0  0.13662579032E+03  0.27005291232E+02  0.77667116163E+02  0.15946182386E+03  0.00000000000E+00 0. -1.
         11    1    5    5    0    0  0.48524433965E+02  0.11925938507E+03  0.44711004073E+03  0.46527928187E+03  0.00000000000E+00 0. -1.
        -12    1    5    5    0    0  0.15161212415E+02  0.39952855195E+02  0.44677612237E+02  0.61823798293E+02  0.00000000000E+00 0.  1.
          5    1    3    3  501    0 -0.20873890569E+03 -0.10847597175E+03 -0.38878442189E+02  0.23847006702E+03  0.41800000000E+01 0.  1.
         -5    1    3    3    0  501 -0.10651038729E+03 -0.16686939038E+03 -0.86070560441E+02  0.21590615976E+03  0.41800000000E+01 0.  1.
</event>
<event>
11    1  0.2450992E-009  0.6390938E+03  0.7561462E-02  0.9127210E-01
         22   -1    0    0    0    0  0.00000000000E+00  0.00000000000E+00  0.27873347522E+04  0.27873347522E+04  0.00000000000E+00 0.  1.
         22   -1    0    0    0    0 -0.00000000000E+00 -0.00000000000E+00 -0.33313931468E+03  0.33313931468E+03  0.00000000000E+00 0.  1.
         25    2    1    2    0    0  0.75275017863E+02 -0.62956255134E+03  0.43476702561E+03  0.77889987834E+03  0.12508924639E+03 0.  0.
        -24    2    1    2    0    0 -0.66562608693E+02  0.61582353594E+03  0.44913821554E+03  0.76915990103E+03  0.78820101532E+02 0.  0.
         24    2    1    2    0    0 -0.87124091694E+01  0.13739015402E+02  0.15702901963E+04  0.15724142875E+04  0.80066997626E+02 0.  0.
        -13    1    5    5    0    0  0.28043655922E+02  0.28637037046E+02  0.96030971855E+03  0.96114581727E+03  0.00000000000E+00 0.  1.
         14    1    5    5    0    0 -0.36756065091E+02 -0.14898021644E+02  0.60998047778E+03  0.61126847018E+03  0.00000000000E+00 0. -1.
         11    1    4    4    0    0  0.15377843750E+02  0.44768039261E+02  0.38846218041E+02  0.61234663989E+02  0.00000000000E+00 0. -1.
        -12    1    4    4    0    0 -0.81940452443E+02  0.57105549668E+03  0.41029199750E+03  0.70792523704E+03  0.00000000000E+00 0.  1.
          5    1    3    3  501    0  0.79294360242E+02 -0.18099964201E+03  0.13556298574E+03  0.23967323896E+03  0.41800000000E+01 0.  1.
         -5    1    3    3    0  501 -0.40193423789E+01 -0.44856290933E+03  0.29920403988E+03  0.53922663938E+03  0.41800000000E+01 0.  1.
</event>
<event>
11    1  0.2450992E-009  0.1592980E+03  0.7561462E-02  0.1087739E+00
         22   -1    0    0    0    0  0.00000000000E+00  0.00000000000E+00  0.50560800491E+03  0.50560800491E+03  0.00000000000E+00 0.  1.
         22   -1    0    0    0    0 -0.00000000000E+00 -0.00000000000E+00 -0.14004073748E+03  0.14004073748E+03  0.00000000000E+00 0. -1.
         25    2    1    2    0    0 -0.10020365216E+03  0.15755971018E+02 -0.25448410253E+02  0.16304583425E+03  0.12508916801E+03 0.  0.
        -24    2    1    2    0    0  0.95910607160E+02  0.35938244581E+02  0.70030548088E+02  0.14771716837E+03  0.80160352890E+02 0.  0.
         24    2    1    2    0    0  0.42930449956E+01 -0.51694215599E+02  0.32098512959E+03  0.33488573978E+03  0.80164101251E+02 0.  0.
        -11    1    5    5    0    0  0.29307661647E+02 -0.52983294226E+02  0.28286495808E+03  0.28927280033E+03  0.00000000000E+00 0.  1.
         12    1    5    5    0    0 -0.25014616652E+02  0.12890786267E+01  0.38120171511E+02  0.45612939458E+02  0.00000000000E+00 0. -1.
         13    1    4    4    0    0  0.87126332727E+02  0.34838889841E+01  0.23494190820E+02  0.90305660616E+02  0.00000000000E+00 0. -1.
        -14    1    4    4    0    0  0.87842744331E+01  0.32454355597E+02  0.46536357268E+02  0.57411507751E+02  0.00000000000E+00 0.  1.
          5    1    3    3  501    0 -0.11060187394E+03 -0.23680435064E+02 -0.39233218547E+02  0.11979255136E+03  0.41800000000E+01 0.  1.
         -5    1    3    3    0  501  0.10398221781E+02  0.39436406082E+02  0.13784808294E+02  0.43253282888E+02  0.41800000000E+01 0.  1.
</event>
<event>
11    1  0.2450992E-009  0.2079541E+03  0.7561462E-02  0.1049037E+00
         22   -1    0    0    0    0  0.00000000000E+00  0.00000000000E+00  0.14268096385E+03  0.14268096385E+03  0.00000000000E+00 0. -1.
         22   -1    0    0    0    0 -0.00000000000E+00 -0.00000000000E+00 -0.12396956303E+04  0.12396956303E+04  0.00000000000E+00 0. -1.
         25    2    1    2    0    0 -0.10950184095E+02 -0.32228337429E+02 -0.46327428256E+03  0.48107066460E+03  0.12508937284E+03 0.  0.
        -24    2    1    2    0    0  0.14642898818E+03 -0.10509072330E+03 -0.66101558691E+03  0.68993460927E+03  0.81133533314E+02 0.  0.
         24    2    1    2    0    0 -0.13547880409E+03  0.13731906073E+03  0.27275203033E+02  0.21137132027E+03  0.81993094438E+02 0.  0.
        -13    1    5    5    0    0 -0.47003353778E+02  0.62573631921E+02  0.50640172358E+02  0.93215887780E+02  0.00000000000E+00 0.  1.
         14    1    5    5    0    0 -0.88475450310E+02  0.74745428806E+02 -0.23364969325E+02  0.11815543249E+03  0.00000000000E+00 0. -1.
         11    1    4    4    0    0  0.73592680382E+02 -0.10007621361E+03 -0.43781821740E+03  0.45509990400E+03  0.00000000000E+00 0. -1.
        -12    1    4    4    0    0  0.72836307801E+02 -0.50145096828E+01 -0.22319736951E+03  0.23483470527E+03  0.00000000000E+00 0.  1.
          5    1    3    3  501    0 -0.66915494038E+02 -0.49734653031E+01 -0.24432365196E+03  0.25340469216E+03  0.41800000000E+01 0.  1.
         -5    1    3    3    0  501  0.55965309943E+02 -0.27254872126E+02 -0.21895063060E+03  0.22766597245E+03  0.41800000000E+01 0.  1.
</event>
<event>
11    1  0.2450992E-009  0.1454787E+03  0.7561462E-02  0.1101590E+00
         22   -1    0    0    0    0  0.00000000000E+00  0.00000000000E+00  0.11160808583E+03  0.11160808583E+03  0.00000000000E+00 0. -1.
         22   -1    0    0    0    0 -0.00000000000E+00 -0.00000000000E+00 -0.68078127639E+03  0.68078127639E+03  0.00000000000E+00 0. -1.
         25    2    1    2    0    0  0.30573078559E+02 -0.45234106412E+02 -0.27285173990E+03  0.30508540258E+03  0.12509273913E+03 0.  0.
        -24    2    1    2    0    0  0.69937490817E+02  0.10797570344E+03 -0.30738782588E+03  0.34373922160E+03  0.84376369998E+02 0.  0.
         24    2    1    2    0    0 -0.10051056938E+03 -0.62741597028E+02  0.11066375206E+02  0.14356473805E+03  0.80308696891E+02 0.  0.
        -11    1    5    5    0    0  0.85871181835E+01 -0.26817915400E+02 -0.13848336298E+00  0.28159516380E+02  0.00000000000E+00 0.  1.
         12    1    5    5    0    0 -0.10909768756E+03 -0.35923681628E+02  0.11204858569E+02  0.11540522167E+03  0.00000000000E+00 0. -1.
         11    1    4    4    0    0  0.89511089390E+02  0.93977294051E+02 -0.25947392157E+03  0.29012184147E+03  0.00000000000E+00 0. -1.
        -12    1    4    4    0    0 -0.19573598573E+02  0.13998409389E+02 -0.47913904304E+02  0.53617380132E+02  0.00000000000E+00 0.  1.
          5    1    3    3  501    0 -0.90667266304E+01  0.35161748917E+02 -0.33947457675E+02  0.49884430450E+02  0.41800000000E+01 0. -1.
         -5    1    3    3    0  501  0.39639805189E+02 -0.80395855329E+02 -0.23890428222E+03  0.25520097213E+03  0.41800000000E+01 0. -1.
</event>
<event>
11    1  0.2450992E-009  0.1823652E+03  0.7561462E-02  0.1067746E+00
         22   -1    0    0    0    0  0.00000000000E+00  0.00000000000E+00  0.13433693175E+04  0.13433693175E+04  0.00000000000E+00 0. -1.
         22   -1    0    0    0    0 -0.00000000000E+00 -0.00000000000E+00 -0.99666001330E+02  0.99666001330E+02  0.00000000000E+00 0. -1.
         25    2    1    2    0    0 -0.29627788046E+02  0.16707066999E+03  0.72093076177E+02  0.22278538665E+03  0.12508198223E+03 0.  0.
        -24    2    1    2    0    0 -0.25453128513E+02 -0.89466045378E+02  0.16398166113E+03  0.20516054806E+03  0.80924843332E+02 0.  0.
         24    2    1    2    0    0  0.55080916559E+02 -0.77604624613E+02  0.10076285789E+04  0.10150893841E+04  0.77683458113E+02 0.  0.
        -13    1    5    5    0    0  0.30036671449E+02  0.82533948399E+01  0.35447048958E+03  0.35583654695E+03  0.00000000000E+00 0.  1.
         14    1    5    5    0    0  0.25044245109E+02 -0.85858019453E+02  0.65315808931E+03  0.65925283720E+03  0.00000000000E+00 0. -1.
         13    1    4    4    0    0  0.29295831087E+02 -0.37431774175E+02  0.57342674199E+02  0.74481982528E+02  0.00000000000E+00 0. -1.
        -14    1    4    4    0    0 -0.54748959600E+02 -0.52034271203E+02  0.10663898693E+03  0.13067856553E+03  0.00000000000E+00 0.  1.
          5    1    3    3  501    0  0.13549298886E+02  0.25157844004E+02  0.68509623768E+02  0.74347438181E+02  0.41800000000E+01 0.  1.
         -5    1    3    3    0  501 -0.43177086931E+02  0.14191282599E+03  0.35834524087E+01  0.14843794847E+03  0.41800000000E+01 0.  1.
</event>
<event>
11    1  0.2450992E-009  0.4169033E+03  0.7561462E-02  0.9601159E-01
         22   -1    0    0    0    0  0.00000000000E+00  0.00000000000E+00  0.21558163225E+03  0.21558163225E+03  0.00000000000E+00 0.  1.
         22   -1    0    0    0    0 -0.00000000000E+00 -0.00000000000E+00 -0.18546302787E+04  0.18546302787E+04  0.00000000000E+00 0.  1.
         25    2    1    2    0    0  0.34876596065E+03  0.29183604839E+03 -0.13774698795E+04  0.14559796996E+04  0.12509053691E+03 0.  0.
        -24    2    1    2    0    0 -0.28814825825E+03 -0.81188926655E+02 -0.21313334824E+03  0.37608200777E+03  0.79942428621E+02 0.  0.
         24    2    1    2    0    0 -0.60617702399E+02 -0.21064712173E+03 -0.48445418783E+02  0.23815020359E+03  0.79510031630E+02 0.  0.
        -13    1    5    5    0    0 -0.77149030831E+02 -0.19745240480E+03 -0.45142138103E+02  0.21674233032E+03  0.00000000000E+00 0.  1.
         14    1    5    5    0    0  0.16531328432E+02 -0.13194716931E+02 -0.33032806803E+01  0.21407873268E+02  0.00000000000E+00 0. -1.
         11    1    4    4    0    0 -0.72736876042E+02 -0.24027524647E+02 -0.10051513379E+03  0.12637747900E+03  0.00000000000E+00 0. -1.
        -12    1    4    4    0    0 -0.21541138221E+03 -0.57161402009E+02 -0.11261821445E+03  0.24970452878E+03  0.00000000000E+00 0.  1.
          5    1    3    3  501    0  0.26094523567E+03  0.28027834525E+03 -0.11206897909E+04  0.11843189801E+04  0.41800000000E+01 0. -1.
         -5    1    3    3    0  501  0.87820724983E+02  0.11557703140E+02 -0.25678008860E+03  0.27166071954E+03  0.41800000000E+01 0. -1.
</event>
<event>
11    1  0.2450992E-009  0.5981085E+03  0.7561462E-02  0.9197598E-01
         22   -1    0    0    0    0  0.00000000000E+00  0.00000000000E+00  0.32019818601E+03  0.32019818601E+03  0.00000000000E+00 0. -1.
         22   -1    0    0    0    0 -0.00000000000E+00 -0.00000000000E+00 -0.19767874951E+04  0.19767874951E+04  0.00000000000E+00 0.  1.
         25    2    1    2    0    0 -0.52163985100E+03 -0.22251282696E+03 -0.80614139968E+03  0.99354593345E+03  0.12509785484E+03 0.  0.
        -24    2    1    2    0    0  0.41328846411E+03  0.51541742520E+03 -0.56329873901E+03  0.87188396273E+03  0.80085568827E+02 0.  0.
         24    2    1    2    0    0  0.10835138690E+03 -0.29290459824E+03 -0.28714917039E+03  0.43155578492E+03  0.79073527394E+02 0.  0.
        -11    1    5    5    0    0  0.10556707176E+03 -0.23587136719E+03 -0.19742183006E+03  0.32520007301E+03  0.00000000000E+00 0.  1.
         12    1    5    5    0    0  0.27843151385E+01 -0.57033231043E+02 -0.89727340328E+02  0.10635571191E+03  0.00000000000E+00 0. -1.
         11    1    4    4    0    0  0.36559395063E+03  0.41130814448E+03 -0.48070352120E+03  0.73069090712E+03  0.00000000000E+00 0. -1.
        -12    1    4    4    0    0  0.47694513479E+02  0.10410928072E+03 -0.82595217807E+02  0.14119305561E+03  0.00000000000E+00 0.  1.
          5    1    3    3  501    0 -0.16421202754E+03 -0.93370514172E+02 -0.36693600998E+03  0.41272648415E+03  0.41800000000E+01 0. -1.
         -5    1    3    3    0  501 -0.35742782346E+03 -0.12914231279E+03 -0.43920538970E+03  0.58081944930E+03  0.41800000000E+01 0. -1.
</event>
<event>
11    1  0.2450992E-009  0.1530244E+03  0.7561462E-02  0.1093828E+00
         22   -1    0    0    0    0  0.00000000000E+00  0.00000000000E+00  0.66232161527E+02  0.66232161527E+02  0.00000000000E+00 0. -1.
         22   -1    0    0    0    0 -0.00000000000E+00 -0.00000000000E+00 -0.12528858369E+04  0.12528858369E+04  0.00000000000E+00 0. -1.
         25    2    1    2    0    0  0.77387856729E+02 -0.34271499529E+02 -0.79970011623E+03  0.81383801634E+03  0.12509446387E+03 0.  0.
        -24    2    1    2    0    0 -0.89767527893E+02  0.25056683356E+02 -0.40483552158E+03  0.42316733067E+03  0.80577563704E+02 0.  0.
         24    2    1    2    0    0  0.12379671164E+02  0.92148161726E+01  0.17881962459E+02  0.82112651391E+02  0.78641934372E+02 0.  0.
        -11    1    5    5    0    0  0.34563827453E+02  0.32491702640E+02  0.59260744831E+01  0.47806770100E+02  0.00000000000E+00 0.  1.
         12    1    5    5    0    0 -0.22184156289E+02 -0.23276886467E+02  0.11955887976E+02  0.34305881291E+02  0.00000000000E+00 0. -1.
         13    1    4    4    0    0 -0.32528372204E+02  0.43834010821E+02 -0.27036324022E+03  0.27581841339E+03  0.00000000000E+00 0. -1.
        -14    1    4    4    0    0 -0.57239155689E+02 -0.18777327465E+02 -0.13447228136E+03  0.14734891729E+03  0.00000000000E+00 0.  1.
          5    1    3    3  501    0  0.12610899387E+02 -0.27461909293E+02 -0.35296512375E+02  0.46653053825E+02  0.41800000000E+01 0. -1.
         -5    1    3    3    0  501  0.64776957341E+02 -0.68095902358E+01 -0.76440360385E+03  0.76718496251E+03  0.41800000000E+01 0. -1.
</event>
<event>
11    1  0.2450992E-009  0.1345256E+03  0.7561462E-02  0.1113830E+00
         22   -1    0    0    0    0  0.00000000000E+00  0.00000000000E+00  0.33397177692E+03  0.33397177692E+03  0.00000000000E+00 0.  1.
         22   -1    0    0    0    0 -0.00000000000E+00 -0.00000000000E+00 -0.13365319674E+04  0.13365319674E+04  0.00000000000E+00 0.  1.
         25    2    1    2    0    0  0.43576314875E+02  0.72095888630E+01 -0.72655707377E+03  0.73856861975E+03  0.12509017242E+03 0.  0.
         24    2    1    2    0    0 -0.13303858277E+02 -0.68855893156E+02 -0.59105139368E+03  0.60049726079E+03  0.79605801193E+02 0.  0.
        -24    2    1    2    0    0 -0.30272456598E+02  0.61646304293E+02  0.31504827694E+03  0.33143786382E+03  0.76674326290E+02 0.  0.
        -11    1    4    4    0    0 -0.25340650263E+02 -0.53200038879E+02 -0.56364582391E+03  0.56671774942E+03  0.00000000000E+00 0.  1.
         12    1    4    4    0    0  0.12036791986E+02 -0.15655854276E+02 -0.27405569762E+02  0.33779511370E+02  0.00000000000E+00 0. -1.
         13    1    5    5    0    0  0.72511929069E+01 -0.15231500271E+02  0.65337032914E+02  0.67479673007E+02  0.00000000000E+00 0. -1.
        -14    1    5    5    0    0 -0.37523649505E+02  0.76877804564E+02  0.24971124402E+03  0.26395819081E+03  0.00000000000E+00 0.  1.
          5    1    3    3  501    0  0.40837898550E+02  0.31184368952E+02 -0.70198847377E+03  0.70387888769E+03  0.41800000000E+01 0. -1.
         -5    1    3    3    0  501  0.27384163254E+01 -0.23974780089E+02 -0.24568600001E+02  0.34689732059E+02  0.41800000000E+01 0. -1.
</event>
<event>
11    1  0.2450992E-009  0.3398717E+03  0.7561462E-02  0.9845995E-01
         22   -1    0    0    0    0  0.00000000000E+00  0.00000000000E+00  0.82022157926E+03  0.82022157926E+03  0.00000000000E+00 0. -1.
         22   -1    0    0    0    0 -0.00000000000E+00 -0.00000000000E+00 -0.97034725835E+03  0.97034725835E+03  0.00000000000E+00 0. -1.
         25    2    1    2    0    0 -0.26520659425E+03 -0.16438218426E+03 -0.80448795750E+03  0.87189703861E+03  0.12509009566E+03 0.  0.
        -24    2    1    2    0    0  0.29356564751E+03  0.18099739067E+03  0.11502258202E+03  0.37195088970E+03  0.78590235715E+02 0.  0.
         24    2    1    2    0    0 -0.28359053260E+02 -0.16615206413E+02  0.53933969639E+03  0.54672090931E+03  0.83283513251E+02 0.  0.
        -11    1    5    5    0    0  0.86977568013E+01 -0.41975164487E+02  0.20967264783E+03  0.21400977700E+03  0.00000000000E+00 0.  1.
         12    1    5    5    0    0 -0.37056810061E+02  0.25359958075E+02  0.32966704857E+03  0.33271113230E+03  0.00000000000E+00 0. -1.
         11    1    4    4    0    0  0.28942184683E+03  0.15837944694E+03  0.10108031981E+03  0.34505982914E+03  0.00000000000E+00 0. -1.
        -12    1    4    4    0    0  0.41438006802E+01  0.22617943726E+02  0.13942262210E+02  0.26891060559E+02  0.00000000000E+00 0.  1.
          5    1    3    3  501    0 -0.27486410521E+03 -0.16729932457E+03 -0.79409473951E+03  0.85682160807E+03  0.41800000000E+01 0.  1.
         -5    1    3    3    0  501  0.96575109649E+01  0.29171403152E+01 -0.10393217992E+02  0.15075430538E+02  0.41800000000E+01 0.  1.
</event>
<event>
11    1  0.2450992E-009  0.5079533E+03  0.7561462E-02  0.9375923E-01
         22   -1    0    0    0    0  0.00000000000E+00  0.00000000000E+00  0.82517088478E+03  0.82517088478E+03  0.00000000000E+00 0.  1.
         22   -1    0    0    0    0 -0.00000000000E+00 -0.00000000000E+00 -0.22142948076E+04  0.22142948076E+04  0.00000000000E+00 0. -1.
         25    2    1    2    0    0  0.65871607330E+02  0.16734128478E+03 -0.13448141953E+04  0.13625411776E+04  0.12510422352E+03 0.  0.
        -24    2    1    2    0    0 -0.15373738087E+03 -0.64240248758E+03 -0.62790730105E+03  0.91497268619E+03  0.81186818100E+02 0.  0.
         24    2    1    2    0    0  0.87865773539E+02  0.47506120280E+03  0.58359757343E+03  0.76195182861E+03  0.81122874993E+02 0.  0.
        -13    1    5    5    0    0  0.63584125893E+02  0.43834921887E+03  0.50384803143E+03  0.67086199589E+03  0.00000000000E+00 0.  1.
         14    1    5    5    0    0  0.24281647646E+02  0.36711983926E+02  0.79749542005E+02  0.91089832727E+02  0.00000000000E+00 0. -1.
         11    1    4    4    0    0 -0.11062760113E+03 -0.29496208771E+03 -0.28192410608E+03  0.42275560423E+03  0.00000000000E+00 0. -1.
        -12    1    4    4    0    0 -0.43109779739E+02 -0.34744039987E+03 -0.34598319496E+03  0.49221708195E+03  0.00000000000E+00 0.  1.
          5    1    3    3  501    0 -0.81024636122E+00  0.45416857094E+02 -0.99123437010E+02  0.10911588139E+03  0.41800000000E+01 0.  1.
         -5    1    3    3    0  501  0.66681853691E+02  0.12192442768E+03 -0.12456907582E+04  0.12534252962E+04  0.41800000000E+01 0.  1.
</event>
<event>
11    1  0.2450992E-009  0.1752025E+03  0.7561462E-02  0.1073591E+00
         22   -1    0    0    0    0  0.00000000000E+00  0.00000000000E+00  0.57886763445E+02  0.57886763445E+02  0.00000000000E+00 0.  1.
         22   -1    0    0    0    0 -0.00000000000E+00 -0.00000000000E+00 -0.10371870796E+04  0.10371870796E+04  0.00000000000E+00 0.  1.
         25    2    1    2    0    0  0.98703305460E+02 -0.39646700659E+02 -0.49790518739E+03  0.52428166490E+03  0.12508990824E+03 0.  0.
        -24    2    1    2    0    0 -0.16431041845E+03 -0.80880840237E+01 -0.28592445811E+03  0.33961147066E+03  0.80745430487E+02 0.  0.
         24    2    1    2    0    0  0.65607112989E+02  0.47734784683E+02 -0.19547067067E+03  0.23118070749E+03  0.93020607834E+02 0.  0.
        -13    1    5    5    0    0  0.17611110079E+02  0.58717629733E+02 -0.55099720885E+02  0.82425059789E+02  0.00000000000E+00 0.  1.
         14    1    5    5    0    0  0.47996002910E+02 -0.10982845050E+02 -0.14037094978E+03  0.14875564770E+03  0.00000000000E+00 0. -1.
         13    1    4    4    0    0  0.56992618495E+01 -0.11070133535E+02 -0.12605955765E+02  0.17718339732E+02  0.00000000000E+00 0. -1.
        -14    1    4    4    0    0 -0.17000968030E+03  0.29820495117E+01 -0.27331850234E+03  0.32189313092E+03  0.00000000000E+00 0.  1.
          5    1    3    3  501    0  0.74691219124E+02 -0.83851439906E+02 -0.31094834040E+03  0.33062998198E+03  0.41800000000E+01 0. -1.
         -5    1    3    3    0  501  0.24012086336E+02  0.44204739247E+02 -0.18695684699E+03  0.19365168292E+03  0.41800000000E+01 0. -1.
</event>
<event>
11    1  0.2450992E-009  0.1531706E+03  0.7561462E-02  0.1093682E+00
         22   -1    0    0    0    0  0.00000000000E+00  0.00000000000E+00  0.35578428046E+03  0.35578428046E+03  0.00000000000E+00 0.  1.
         22   -1    0    0    0    0 -0.00000000000E+00 -0.00000000000E+00 -0.11928079785E+04  0.11928079785E+04  0.00000000000E+00 0. -1.
         25    2    1    2    0    0 -0.87887537118E+00  0.88093909047E+02 -0.11546531596E+04  0.11647457782E+04  0.12508996588E+03 0.  0.
         24    2    1    2    0    0  0.16029196362E+02 -0.98922534097E+02  0.15914343732E+03  0.20508510766E+03  0.81796484372E+02 0.  0.
        -24    2    1    2    0    0 -0.15150320991E+02  0.10828625050E+02  0.15848602424E+03  0.17876137313E+03  0.80566849856E+02 0.  0.
        -13    1    4    4    0    0  0.26574615527E+02 -0.10952317211E+03  0.14977198925E+03  0.18743848106E+03  0.00000000000E+00 0.  1.
         14    1    4    4    0    0 -0.10545419165E+02  0.10600638009E+02  0.93714480724E+01  0.17646626605E+02  0.00000000000E+00 0. -1.
         11    1    5    5    0    0  0.29328271073E+00 -0.16863279070E+02  0.14204930515E+03  0.14304705970E+03  0.00000000000E+00 0. -1.
        -12    1    5    5    0    0 -0.15443603701E+02  0.27691904120E+02  0.16436719095E+02  0.35714313428E+02  0.00000000000E+00 0.  1.
          5    1    3    3  501    0  0.29801763047E+02 -0.20988588163E+02 -0.19548110541E+03  0.19889444660E+03  0.41800000000E+01 0.  1.
         -5    1    3    3    0  501 -0.30680638419E+02  0.10908249721E+03 -0.95917205423E+03  0.96585133162E+03  0.41800000000E+01 0.  1.
</event>
<event>
11    1  0.2450992E-009  0.1674791E+03  0.7561462E-02  0.1080247E+00
         22   -1    0    0    0    0  0.00000000000E+00  0.00000000000E+00  0.83035575785E+02  0.83035575785E+02  0.00000000000E+00 0.  1.
         22   -1    0    0    0    0 -0.00000000000E+00 -0.00000000000E+00 -0.10172937203E+04  0.10172937203E+04  0.00000000000E+00 0. -1.
         25    2    1    2    0    0  0.21791182621E+02  0.10787365878E+03 -0.68932061766E+03  0.70917020961E+03  0.12509152797E+03 0.  0.
         24    2    1    2    0    0  0.57750935861E+02 -0.12035944070E+03 -0.22060313721E+03  0.27183084539E+03  0.86050559544E+02 0.  0.
        -24    2    1    2    0    0 -0.79542118482E+02  0.12485781915E+02 -0.24334389624E+02  0.11932824107E+03  0.84641734597E+02 0.  0.
        -13    1    4    4    0    0  0.73218154714E+02 -0.55278248517E+02 -0.13413442758E+03  0.16250731553E+03  0.00000000000E+00 0.  1.
         14    1    4    4    0    0 -0.15467218853E+02 -0.65081192181E+02 -0.86468709631E+02  0.10932352986E+03  0.00000000000E+00 0. -1.
         11    1    5    5    0    0 -0.22434138129E+02  0.19117286484E+02 -0.48669052848E+02  0.56898487688E+02  0.00000000000E+00 0. -1.
        -12    1    5    5    0    0 -0.57107980353E+02 -0.66315045691E+01  0.24334663224E+02  0.62429753380E+02  0.00000000000E+00 0.  1.
          5    1    3    3  501    0 -0.22346900267E+02  0.95084458144E+01 -0.39378162860E+03  0.39455194578E+03  0.41800000000E+01 0. -1.
         -5    1    3    3    0  501  0.44138082888E+02  0.98365212969E+02 -0.29553898906E+03  0.31461826383E+03  0.41800000000E+01 0. -1.
</event>
<event>
11    1  0.2450992E-009  0.3621211E+03  0.7561462E-02  0.9768647E-01
         22   -1    0    0    0    0  0.00000000000E+00  0.00000000000E+00  0.13492390387E+04  0.13492390387E+04  0.00000000000E+00 0.  1.
         22   -1    0    0    0    0 -0.00000000000E+00 -0.00000000000E+00 -0.26292616231E+03  0.26292616231E+03  0.00000000000E+00 0.  1.
         25    2    1    2    0    0 -0.24585515638E+03  0.11300495470E+03  0.37412546231E+02  0.30043536836E+03  0.12508730646E+03 0.  0.
         24    2    1    2    0    0  0.36353160194E+03  0.21122842977E+03  0.49891541166E+03  0.65736695671E+03  0.80262398599E+02 0.  0.
        -24    2    1    2    0    0 -0.11767644556E+03 -0.32423338447E+03  0.54998491846E+03  0.65436287592E+03  0.82050773303E+02 0.  0.
        -13    1    4    4    0    0  0.13446378556E+03  0.12392119877E+03  0.21738304184E+03  0.28406400689E+03  0.00000000000E+00 0.  1.
         14    1    4    4    0    0  0.22906781638E+03  0.87307230999E+02  0.28153236982E+03  0.37330294982E+03  0.00000000000E+00 0. -1.
         11    1    5    5    0    0 -0.83987636877E+02 -0.14289638735E+03  0.20958341411E+03  0.26720499272E+03  0.00000000000E+00 0. -1.
        -12    1    5    5    0    0 -0.33688808679E+02 -0.18133699712E+03  0.34040150435E+03  0.38715788319E+03  0.00000000000E+00 0.  1.
          5    1    3    3  501    0 -0.21528484928E+03  0.53739024980E+02  0.60011128018E+02  0.22990053724E+03  0.41800000000E+01 0.  1.
         -5    1    3    3    0  501 -0.30570307097E+02  0.59265929722E+02 -0.22598581788E+02  0.70534831117E+02  0.41800000000E+01 0.  1.
</event>
<event>
11    1  0.2450992E-009  0.1928862E+03  0.7561462E-02  0.1059671E+00
         22   -1    0    0    0    0  0.00000000000E+00  0.00000000000E+00  0.13473096809E+03  0.13473096809E+03  0.00000000000E+00 0.  1.
         22   -1    0    0    0    0 -0.00000000000E+00 -0.00000000000E+00 -0.49553337161E+03  0.49553337161E+03  0.00000000000E+00 0.  1.
         25    2    1    2    0    0 -0.14938645133E+03  0.51697033863E+02 -0.25151921881E+03  0.32233213262E+03  0.12508873304E+03 0.  0.
        -24    2    1    2    0    0  0.13151891468E+03 -0.35408014040E+02 -0.14784612584E+03  0.21581629368E+03  0.78531798113E+02 0.  0.
         24    2    1    2    0    0  0.17867536650E+02 -0.16289019822E+02  0.38562941130E+02  0.92115913404E+02  0.80085329748E+02 0.  0.
        -13    1    5    5    0    0  0.43064057124E+02  0.12847434108E+02  0.17617729411E+02  0.48269596733E+02  0.00000000000E+00 0.  1.
         14    1    5    5    0    0 -0.25196520474E+02 -0.29136453931E+02  0.20945211719E+02  0.43846316671E+02  0.00000000000E+00 0. -1.
         13    1    4    4    0    0  0.84599628222E+02  0.41281789380E+01 -0.12361449039E+03  0.14984886116E+03  0.00000000000E+00 0. -1.
        -14    1    4    4    0    0  0.46919286454E+02 -0.39536192978E+02 -0.24231635455E+02  0.65967432521E+02  0.00000000000E+00 0.  1.
          5    1    3    3  501    0  0.18247993010E+02  0.25767158815E+02 -0.42535299763E+02  0.53138120480E+02  0.41800000000E+01 0. -1.
         -5    1    3    3    0  501 -0.16763444434E+03  0.25929875048E+02 -0.20898391905E+03  0.26919401213E+03  0.41800000000E+01 0. -1.
</event>
<event>
11    1  0.2450992E-009  0.1624254E+03  0.7561462E-02  0.1084818E+00
         22   -1    0    0    0    0  0.00000000000E+00  0.00000000000E+00  0.45070750139E+03  0.45070750139E+03  0.00000000000E+00 0.  1.
         22   -1    0    0    0    0 -0.00000000000E+00 -0.00000000000E+00 -0.28454070768E+03  0.28454070768E+03  0.00000000000E+00 0. -1.
         25    2    1    2    0    0 -0.18071782042E+03  0.25318137220E+02 -0.16242359013E+03  0.27446638121E+03  0.12510169101E+03 0.  0.
         24    2    1    2    0    0  0.82659852985E+02 -0.10679848713E+02  0.69610458189E+01  0.11451271749E+03  0.78217618504E+02 0.  0.
        -24    2    1    2    0    0  0.98057967440E+02 -0.14638288507E+02  0.32162933802E+03  0.34626911037E+03  0.81407746866E+02 0.  0.
        -13    1    4    4    0    0 -0.10950373522E+02 -0.91044404126E+01 -0.12429604652E+02  0.18902290530E+02  0.00000000000E+00 0.  1.
         14    1    4    4    0    0  0.93610226507E+02 -0.15754083001E+01  0.19390650471E+02  0.95610426961E+02  0.00000000000E+00 0. -1.
         11    1    5    5    0    0  0.52099814383E+02 -0.21736046344E+02  0.67846897396E+02  0.88261247757E+02  0.00000000000E+00 0. -1.
        -12    1    5    5    0    0  0.45958153056E+02  0.70977578367E+01  0.25378244063E+03  0.25800786261E+03  0.00000000000E+00 0.  1.
          5    1    3    3  501    0 -0.57510328919E+01 -0.86455069651E+01  0.17757735623E+02  0.20991158721E+02  0.41800000000E+01 0. -1.
         -5    1    3    3    0  501 -0.17496678753E+03  0.33963644185E+02 -0.18018132575E+03  0.25347522249E+03  0.41800000000E+01 0. -1.
</event>
<event>
11    1  0.2450992E-009  0.2309354E+03  0.7561462E-02  0.1034576E+00
         22   -1    0    0    0    0  0.00000000000E+00  0.00000000000E+00  0.80762540437E+03  0.80762540437E+03  0.00000000000E+00 0. -1.
         22   -1    0    0    0    0 -0.00000000000E+00 -0.00000000000E+00 -0.14072842835E+03  0.14072842835E+03  0.00000000000E+00 0.  1.
         25    2    1    2    0    0 -0.18923004412E+03 -0.55670306380E+02  0.27522561271E+03  0.36097596988E+03  0.12508924946E+03 0.  0.
        -24    2    1    2    0    0  0.19583257854E+03 -0.11344936552E+02  0.33746600820E+02  0.21441805404E+03  0.79731815665E+02 0.  0.
         24    2    1    2    0    0 -0.66025344211E+01  0.67015242932E+02  0.35792476249E+03  0.37295980880E+03  0.80338329160E+02 0.  0.
        -13    1    5    5    0    0 -0.38201245791E+02  0.43870821862E+02  0.14102252933E+03  0.15254946073E+03  0.00000000000E+00 0.  1.
         14    1    5    5    0    0  0.31598711370E+02  0.23144421070E+02  0.21690223316E+03  0.22041034807E+03  0.00000000000E+00 0. -1.
         13    1    4    4    0    0  0.72746363330E+01 -0.20969764515E+02 -0.19076692852E+01  0.22277579754E+02  0.00000000000E+00 0. -1.
        -14    1    4    4    0    0  0.18855794221E+03  0.96248279634E+01  0.35654270105E+02  0.19214047429E+03  0.00000000000E+00 0.  1.
          5    1    3    3  501    0 -0.11441979834E+03 -0.38681474402E+02  0.65157786056E+02  0.13729951274E+03  0.41800000000E+01 0. -1.
         -5    1    3    3    0  501 -0.74810245780E+02 -0.16988831978E+02  0.21006782665E+03  0.22367645714E+03  0.41800000000E+01 0. -1.
</event>
<event>
11    1  0.2450992E-009  0.2686530E+03  0.7561462E-02  0.1014406E+00
         22   -1    0    0    0    0  0.00000000000E+00  0.00000000000E+00  0.18319901092E+04  0.18319901092E+04  0.00000000000E+00 0. -1.
         22   -1    0    0    0    0 -0.00000000000E+00 -0.00000000000E+00 -0.70195890341E+02  0.70195890341E+02  0.00000000000E+00 0. -1.
         25    2    1    2    0    0 -0.20955544567E+03  0.62284197605E+02  0.33886377602E+03  0.42221922964E+03  0.12509041969E+03 0.  0.
        -24    2    1    2    0    0  0.28311679503E+03 -0.61899804605E+02  0.10026839226E+04  0.10463361343E+04  0.73875245131E+02 0.  0.
         24    2    1    2    0    0 -0.73561349357E+02 -0.38439300003E+00  0.42024652021E+03  0.43363063558E+03  0.77569133600E+02 0.  0.
        -11    1    5    5    0    0 -0.92664819612E+01  0.22732685080E+02  0.37412629864E+02  0.44747598061E+02  0.00000000000E+00 0.  1.
         12    1    5    5    0    0 -0.64294867396E+02 -0.23117078080E+02  0.38283389034E+03  0.38888303752E+03  0.00000000000E+00 0. -1.
         13    1    4    4    0    0  0.21221715908E+03 -0.14087073007E+02  0.75005253671E+03  0.77962386832E+03  0.00000000000E+00 0. -1.
        -14    1    4    4    0    0  0.70899635950E+02 -0.47812731599E+02  0.25263138589E+03  0.26671226597E+03  0.00000000000E+00 0.  1.
          5    1    3    3  501    0  0.16694187028E+02  0.88716264769E+01  0.26809325530E+02  0.33069834778E+02  0.41800000000E+01 0. -1.
         -5    1    3    3    0  501 -0.22624963270E+03  0.53412571128E+02  0.31205445049E+03  0.38914939486E+03  0.41800000000E+01 0. -1.
</event>
<event>
11    1  0.2450992E-009  0.1524075E+03  0.7561462E-02  0.1094444E+00
         22   -1    0    0    0    0  0.00000000000E+00  0.00000000000E+00  0.66643359685E+03  0.66643359685E+03  0.00000000000E+00 0.  1.
         22   -1    0    0    0    0 -0.00000000000E+00 -0.00000000000E+00 -0.91152494795E+02  0.91152494795E+02  0.00000000000E+00 0. -1.
         25    2    1    2    0    0  0.17926752236E+01  0.41931448495E+02  0.37511448378E+02  0.13716225915E+03  0.12507964071E+03 0.  0.
         24    2    1    2    0    0  0.28991896186E+02  0.10100745778E+03  0.16341495833E+03  0.21019402640E+03  0.80212490021E+02 0.  0.
        -24    2    1    2    0    0 -0.30784571410E+02 -0.14293890628E+03  0.37435469535E+03  0.41022980609E+03  0.82266853070E+02 0.  0.
        -11    1    4    4    0    0 -0.21894923543E+02  0.46950311831E+02  0.99723659014E+02  0.11237672190E+03  0.00000000000E+00 0.  1.
         12    1    4    4    0    0  0.50886819729E+02  0.54057145951E+02  0.63691299313E+02  0.97817304495E+02  0.00000000000E+00 0. -1.
         11    1    5    5    0    0  0.31581583498E+01 -0.91665733291E+01 -0.15246292979E+01  0.98145058590E+01  0.00000000000E+00 0. -1.
        -12    1    5    5    0    0 -0.33942729759E+02 -0.13377233295E+03  0.37587932465E+03  0.40041530024E+03  0.00000000000E+00 0.  1.
          5    1    3    3  501    0  0.59598621788E+02  0.43555031243E+02  0.19906501194E+02  0.76568777288E+02  0.41800000000E+01 0. -1.
         -5    1    3    3    0  501 -0.57805946564E+02 -0.16235827476E+01  0.17604947185E+02  0.60593481865E+02  0.41800000000E+01 0. -1.
</event>
<event>
11    1  0.2450992E-009  0.4332929E+03  0.7561462E-02  0.9556331E-01
         22   -1    0    0    0    0  0.00000000000E+00  0.00000000000E+00  0.11830643728E+04  0.11830643728E+04  0.00000000000E+00 0. -1.
         22   -1    0    0    0    0 -0.00000000000E+00 -0.00000000000E+00 -0.18389584491E+04  0.18389584491E+04  0.00000000000E+00 0. -1.
         25    2    1    2    0    0  0.15976889560E+03  0.38670237577E+03 -0.16788253239E+04  0.17346946591E+04  0.12508503022E+03 0.  0.
        -24    2    1    2    0    0 -0.24576864003E+03 -0.39143281776E+02  0.77417904584E+02  0.27310506535E+03  0.81599165687E+02 0.  0.
         24    2    1    2    0    0  0.85999744428E+02 -0.34755909399E+03  0.94551334309E+03  0.10142230974E+04  0.80372442856E+02 0.  0.
        -13    1    5    5    0    0  0.28043658879E+02 -0.87048450764E+02  0.34801636144E+03  0.35983227679E+03  0.00000000000E+00 0.  1.
         14    1    5    5    0    0  0.57956085549E+02 -0.26051064323E+03  0.59749698165E+03  0.65439082066E+03  0.00000000000E+00 0. -1.
         11    1    4    4    0    0 -0.93743186977E+02 -0.41691379701E+02  0.24939731288E+00  0.10259638612E+03  0.00000000000E+00 0. -1.
        -12    1    4    4    0    0 -0.15202545305E+03  0.25480979257E+01  0.77168507272E+02  0.17050867923E+03  0.00000000000E+00 0.  1.
          5    1    3    3  501    0  0.14201450535E+03  0.38949865779E+03 -0.16416012754E+04  0.16931478211E+04  0.41800000000E+01 0.  1.
         -5    1    3    3    0  501  0.17754390253E+02 -0.27962820265E+01 -0.37224048514E+02  0.41546838077E+02  0.41800000000E+01 0.  1.
</event>
<event>
11    1  0.2450992E-009  0.1523381E+03  0.7561462E-02  0.1094513E+00
         22   -1    0    0    0    0  0.00000000000E+00  0.00000000000E+00  0.38619029713E+02  0.38619029713E+02  0.00000000000E+00 0. -1.
         22   -1    0    0    0    0 -0.00000000000E+00 -0.00000000000E+00 -0.13295921326E+04  0.13295921326E+04  0.00000000000E+00 0.  1.
         25    2    1    2    0    0 -0.82810862958E+02 -0.29452352712E+01 -0.80246025759E+03  0.81636779748E+03  0.12509037661E+03 0.  0.
         24    2    1    2    0    0  0.92100183136E+02  0.68572561920E+02 -0.19175647976E+03  0.23715921090E+03  0.79305131007E+02 0.  0.
        -24    2    1    2    0    0 -0.92893201786E+01 -0.65627326649E+02 -0.29675636554E+03  0.31468415393E+03  0.81046522278E+02 0.  0.
        -11    1    4    4    0    0  0.86183860812E+02  0.81756775004E+02 -0.18772905577E+03  0.22215766136E+03  0.00000000000E+00 0.  1.
         12    1    4    4    0    0  0.59163223247E+01 -0.13184213084E+02 -0.40274239891E+01  0.15001549536E+02  0.00000000000E+00 0. -1.
         11    1    5    5    0    0 -0.25289707480E+02 -0.45019160431E+02 -0.73025895363E+02  0.89437550860E+02  0.00000000000E+00 0. -1.
        -12    1    5    5    0    0  0.16000387301E+02 -0.20608166218E+02 -0.22373047017E+03  0.22524660307E+03  0.00000000000E+00 0.  1.
          5    1    3    3  501    0 -0.32887420474E+02  0.53423615468E+02 -0.52817039713E+03  0.53189952615E+03  0.41800000000E+01 0.  1.
         -5    1    3    3    0  501 -0.49923442484E+02 -0.56368850739E+02 -0.27428986046E+03  0.28446827133E+03  0.41800000000E+01 0.  1.
</event>
<event>
11    1  0.2450992E-009  0.1463794E+03  0.7561462E-02  0.1100637E+00
         22   -1    0    0    0    0  0.00000000000E+00  0.00000000000E+00  0.20619914739E+03  0.20619914739E+03  0.00000000000E+00 0.  1.
         22   -1    0    0    0    0 -0.00000000000E+00 -0.00000000000E+00 -0.20620656849E+03  0.20620656849E+03  0.00000000000E+00 0.  1.
         25    2    1    2    0    0  0.45680199609E+02 -0.56034749022E+02 -0.46642688830E+02  0.15181398238E+03  0.12508145783E+03 0.  0.
        -24    2    1    2    0    0 -0.68057702267E+02  0.42458558504E+02 -0.56234594137E+02  0.12753020934E+03  0.81651972959E+02 0.  0.
         24    2    1    2    0    0  0.22377502658E+02  0.13576190518E+02  0.10286986187E+03  0.13306152415E+03  0.80237741458E+02 0.  0.
        -11    1    5    5    0    0  0.33935293133E+02  0.33784289413E+02  0.98292214832E+02  0.10933591280E+03  0.00000000000E+00 0.  1.
         12    1    5    5    0    0 -0.11557790476E+02 -0.20208098895E+02  0.45776470384E+01  0.23725611352E+02  0.00000000000E+00 0. -1.
         13    1    4    4    0    0 -0.68438141551E+02  0.31941834093E+02 -0.55105301738E+01  0.75725992413E+02  0.00000000000E+00 0. -1.
        -14    1    4    4    0    0  0.38043928336E+00  0.10516724411E+02 -0.50724063963E+02  0.51804216926E+02  0.00000000000E+00 0.  1.
          5    1    3    3  501    0  0.12977236988E+02 -0.93320320821E+02 -0.25195796440E+02  0.97618602306E+02  0.41800000000E+01 0. -1.
         -5    1    3    3    0  501  0.32702962621E+02  0.37285571799E+02 -0.21446892390E+02  0.54195380078E+02  0.41800000000E+01 0. -1.
</event>
<event>
11    1  0.2450992E-009  0.1702814E+03  0.7561462E-02  0.1077787E+00
         22   -1    0    0    0    0  0.00000000000E+00  0.00000000000E+00  0.13799251661E+03  0.13799251661E+03  0.00000000000E+00 0. -1.
         22   -1    0    0    0    0 -0.00000000000E+00 -0.00000000000E+00 -0.15959220401E+04  0.15959220401E+04  0.00000000000E+00 0.  1.
         25    2    1    2    0    0  0.91818308669E+02  0.28224076474E+02 -0.63382926036E+03  0.65315042104E+03  0.12505495160E+03 0.  0.
        -24    2    1    2    0    0 -0.13171220214E+03  0.34924813280E+02 -0.91842894313E+03  0.93202591284E+03  0.81195639355E+02 0.  0.
         24    2    1    2    0    0  0.39893893467E+02 -0.63148889754E+02  0.94328679986E+02  0.14873822285E+03  0.87440574424E+02 0.  0.
        -11    1    5    5    0    0  0.54090267834E+01  0.15593384078E+02  0.48690844640E+02  0.51412153714E+02  0.00000000000E+00 0.  1.
         12    1    5    5    0    0  0.34484866684E+02 -0.78742273832E+02  0.45637835346E+02  0.97326069136E+02  0.00000000000E+00 0. -1.
         11    1    4    4    0    0 -0.12226164803E+03  0.56699155452E+02 -0.76775427321E+03  0.77949299474E+03  0.00000000000E+00 0. -1.
        -12    1    4    4    0    0 -0.94505541058E+01 -0.21774342172E+02 -0.15067466992E+03  0.15253291810E+03  0.00000000000E+00 0.  1.
          5    1    3    3  501    0  0.51351126206E+02  0.30299057974E+02 -0.91489527794E+02  0.10928301411E+03  0.41800000000E+01 0. -1.
         -5    1    3    3    0  501  0.40467182463E+02 -0.20749815003E+01 -0.54233973256E+03  0.54386740693E+03  0.41800000000E+01 0. -1.
</event>
<event>
11    1  0.2450992E-009  0.1130617E+04  0.7561462E-02  0.8563826E-01
         22   -1    0    0    0    0  0.00000000000E+00  0.00000000000E+00  0.12797977248E+04  0.12797977248E+04  0.00000000000E+00 0.  1.
         22   -1    0    0    0    0 -0.00000000000E+00 -0.00000000000E+00 -0.13073819671E+04  0.13073819671E+04  0.00000000000E+00 0.  1.
         25    2    1    2    0    0 -0.11413587281E+01 -0.15087813142E+03 -0.23482192060E+03  0.30586576236E+03  0.12508803680E+03 0.  0.
         24    2    1    2    0    0 -0.71845234688E+03 -0.78780390169E+03 -0.41156064360E+02  0.10699679248E+04  0.79553606223E+02 0.  0.
        -24    2    1    2    0    0  0.71959370561E+03  0.93868203311E+03  0.24839374262E+03  0.12113460047E+04  0.81979456635E+02 0.  0.
        -13    1    4    4    0    0 -0.66986456143E+03 -0.70321660521E+03 -0.46089418160E+02  0.97229437876E+03  0.00000000000E+00 0.  1.
         14    1    4    4    0    0 -0.48587785451E+02 -0.84587296487E+02  0.49333538004E+01  0.97673546070E+02  0.00000000000E+00 0. -1.
         11    1    5    5    0    0  0.10155388354E+02  0.95532221975E+01 -0.56624088951E+01  0.15048549481E+02  0.00000000000E+00 0. -1.
        -12    1    5    5    0    0  0.70943831726E+03  0.92912881092E+03  0.25405615151E+03  0.11962974552E+04  0.00000000000E+00 0.  1.
          5    1    3    3  501    0 -0.74036367578E+01 -0.16921139061E+03 -0.17824910396E+03  0.24592178434E+03  0.41800000000E+01 0. -1.
         -5    1    3    3    0  501  0.62622780297E+01  0.18333259192E+02 -0.56572816641E+02  0.59943978024E+02  0.41800000000E+01 0. -1.
</event>
<event>
11    1  0.2450992E-009  0.3474132E+03  0.7561462E-02  0.9819083E-01
         22   -1    0    0    0    0  0.00000000000E+00  0.00000000000E+00  0.14074382473E+04  0.14074382473E+04  0.00000000000E+00 0. -1.
         22   -1    0    0    0    0 -0.00000000000E+00 -0.00000000000E+00 -0.83608621818E+03  0.83608621818E+03  0.00000000000E+00 0.  1.
         25    2    1    2    0    0 -0.30609594057E+03  0.11224529620E+03 -0.69600933369E+03  0.77869726356E+03  0.12508678727E+03 0.  0.
        -24    2    1    2    0    0  0.33374050047E+03  0.21005899708E+02  0.22709888322E+03  0.41240071915E+03  0.81709735800E+02 0.  0.
         24    2    1    2    0    0 -0.27644559896E+02 -0.13325119591E+03  0.10402624796E+04  0.10524264828E+04  0.83278882545E+02 0.  0.
        -11    1    5    5    0    0 -0.38634642985E+02 -0.48960369295E+02  0.25238941653E+03  0.25998109734E+03  0.00000000000E+00 0.  1.
         12    1    5    5    0    0  0.10990083089E+02 -0.84290826614E+02  0.78787306306E+03  0.79244538542E+03  0.00000000000E+00 0. -1.
         13    1    4    4    0    0  0.13864760795E+02  0.31506617049E+01 -0.67695509963E+01  0.15747542087E+02  0.00000000000E+00 0. -1.
        -14    1    4    4    0    0  0.31987573967E+03  0.17855238003E+02  0.23386843421E+03  0.39665317707E+03  0.00000000000E+00 0.  1.
          5    1    3    3  501    0 -0.15915734701E+03 -0.54766961557E+01 -0.35592704564E+03  0.38995203490E+03  0.41800000000E+01 0.  1.
         -5    1    3    3    0  501 -0.14693859357E+03  0.11772199236E+03 -0.34008228805E+03  0.38874522866E+03  0.41800000000E+01 0.  1.
</event>
<event>
11    1  0.2450992E-009  0.1339751E+03  0.7561462E-02  0.1114479E+00
         22   -1    0    0    0    0  0.00000000000E+00  0.00000000000E+00  0.47231665599E+03  0.47231665599E+03  0.00000000000E+00 0.  1.
         22   -1    0    0    0    0 -0.00000000000E+00 -0.00000000000E+00 -0.13415723884E+03  0.13415723884E+03  0.00000000000E+00 0.  1.
         25    2    1    2    0    0  0.37792081812E+02 -0.24421866205E+02 -0.44489213979E+02  0.14014435113E+03  0.12504591156E+03 0.  0.
        -24    2    1    2    0    0 -0.35027834265E+02  0.39914023975E+02  0.23797466068E+02  0.98459347619E+02  0.79421944443E+02 0.  0.
         24    2    1    2    0    0 -0.27642475471E+01 -0.15492157770E+02  0.35885116506E+03  0.36787019608E+03  0.79414573453E+02 0.  0.
        -13    1    5    5    0    0 -0.36759747654E+02  0.10279404597E+02  0.17985044380E+03  0.18385626816E+03  0.00000000000E+00 0.  1.
         14    1    5    5    0    0  0.33995500107E+02 -0.25771562367E+02  0.17900072127E+03  0.18401392792E+03  0.00000000000E+00 0. -1.
         13    1    4    4    0    0  0.20897223692E+02  0.21902107088E+01  0.22783025191E+02  0.30992857529E+02  0.00000000000E+00 0. -1.
        -14    1    4    4    0    0 -0.55925057956E+02  0.37723813266E+02  0.10144408766E+01  0.67466490090E+02  0.00000000000E+00 0.  1.
          5    1    3    3  501    0  0.21243124411E+02 -0.63113848580E+02  0.13794048584E+02  0.68134986561E+02  0.41800000000E+01 0. -1.
         -5    1    3    3    0  501  0.16548957401E+02  0.38691982375E+02 -0.58283262563E+02  0.72009364573E+02  0.41800000000E+01 0. -1.
</event>
<event>
11    1  0.2450992E-009  0.1303284E+03  0.7561462E-02  0.1118866E+00
         22   -1    0    0    0    0  0.00000000000E+00  0.00000000000E+00  0.28471034603E+02  0.28471034603E+02  0.00000000000E+00 0.  1.
         22   -1    0    0    0    0 -0.00000000000E+00 -0.00000000000E+00 -0.29653486765E+04  0.29653486765E+04  0.00000000000E+00 0.  1.
         25    2    1    2    0    0  0.23259337244E+02 -0.40695956655E+02 -0.17854661427E+04  0.17904562750E+04  0.12508864136E+03 0.  0.
         24    2    1    2    0    0 -0.17770412998E+02  0.51151955048E+01 -0.10364421021E+04  0.10396105176E+04  0.78967362923E+02 0.  0.
        -24    2    1    2    0    0 -0.54889242468E+01  0.35580761150E+02 -0.11496939705E+03  0.16375291852E+03  0.11090959027E+03 0.  0.
        -11    1    4    4    0    0 -0.25216786025E+02 -0.33413979334E+02 -0.53447195389E+03  0.53610880407E+03  0.00000000000E+00 0.  1.
         12    1    4    4    0    0  0.74463730270E+01  0.38529174839E+02 -0.50197014822E+03  0.50350171349E+03  0.00000000000E+00 0. -1.
         11    1    5    5    0    0 -0.32047512270E+02  0.20625234604E+02 -0.12576886900E+03  0.13141632986E+03  0.00000000000E+00 0. -1.
        -12    1    5    5    0    0  0.26558588023E+02  0.14955526546E+02  0.10799471950E+02  0.32336588665E+02  0.00000000000E+00 0.  1.
          5    1    3    3  501    0  0.48552877185E+02 -0.55435216820E+02 -0.58659035096E+03  0.59121582978E+03  0.41800000000E+01 0.  1.
         -5    1    3    3    0  501 -0.25293539941E+02  0.14739260165E+02 -0.11988757918E+04  0.11992404452E+04  0.41800000000E+01 0.  1.
</event>
<event>
11    1  0.4141656E-009  0.2026939E+04  0.7561462E-02  0.8056028E-01
         22   -1    0    0    0    0  0.00000000000E+00  0.00000000000E+00  0.11422110169E+04  0.11422110169E+04  0.00000000000E+00 0.  1.
         22   -1    0    0    0    0 -0.00000000000E+00 -0.00000000000E+00 -0.89923859656E+03  0.89923859656E+03  0.00000000000E+00 0.  1.
         25    2    1    2    0    0 -0.72652782494E+02  0.37369706873E+03 -0.81082731785E+03  0.90444234226E+03  0.12508830931E+03 0.  0.
        -24    2    1    2    0    0  0.48951670615E+02 -0.26763932342E+03  0.80622250615E+03  0.85472551464E+03  0.80832558070E+02 0.  0.
         24    2    1    2    0    0  0.23701111879E+02 -0.10605774531E+03  0.24757723206E+03  0.28228175659E+03  0.81108052765E+02 0.  0.
        -11    1    5    5    0    0 -0.17833010958E+02 -0.13745278827E+02  0.10523317293E+03  0.10761491372E+03  0.00000000000E+00 0.  1.
         12    1    5    5    0    0  0.41534122837E+02 -0.92312466485E+02  0.14234405913E+03  0.17466684287E+03  0.00000000000E+00 0. -1.
         13    1    4    4    0    0 -0.14993059827E+02 -0.92908870212E+02  0.33890367706E+03  0.35172795216E+03  0.00000000000E+00 0. -1.
        -14    1    4    4    0    0  0.63944730442E+02 -0.17473045321E+03  0.46731882910E+03  0.50299756248E+03  0.00000000000E+00 0.  1.
          5    1    3    3  501    0 -0.45160163590E+02  0.22207474427E+03 -0.61356918142E+03  0.65409574621E+03  0.41800000000E+01 0.  1.
         -5    1    3    3    0  501 -0.27492618904E+02  0.15162232446E+03 -0.19725813642E+03  0.25034659605E+03  0.41800000000E+01 0.  1.
</event>
<event>
11    1  0.2450992E-009  0.1970878E+03  0.7561462E-02  0.1056602E+00
         22   -1    0    0    0    0  0.00000000000E+00  0.00000000000E+00  0.36668856287E+03  0.36668856287E+03  0.00000000000E+00 0. -1.
         22   -1    0    0    0    0 -0.00000000000E+00 -0.00000000000E+00 -0.26461614643E+03  0.26461614643E+03  0.00000000000E+00 0. -1.
         25    2    1    2    0    0 -0.18461235028E+03  0.15519040961E+02 -0.86357722907E+02  0.23964343449E+03  0.12509499941E+03 0.  0.
         24    2    1    2    0    0  0.80779637206E+02  0.97921286435E+02  0.22561402555E+02  0.15173538999E+03  0.80004272179E+02 0.  0.
        -24    2    1    2    0    0  0.10383271308E+03 -0.11344032740E+03  0.16586873679E+03  0.23992588482E+03  0.80012825083E+02 0.  0.
        -11    1    4    4    0    0  0.28639338504E+01  0.65489137454E+02  0.12624331876E+02  0.66756295560E+02  0.00000000000E+00 0.  1.
         12    1    4    4    0    0  0.77915703356E+02  0.32432148980E+02  0.99370706786E+01  0.84979094432E+02  0.00000000000E+00 0. -1.
         13    1    5    5    0    0  0.33578811990E+02 -0.89090541353E+02  0.67918483901E+02  0.11695119336E+03  0.00000000000E+00 0. -1.
        -14    1    5    5    0    0  0.70253901088E+02 -0.24349786043E+02  0.97950252893E+02  0.12297469146E+03  0.00000000000E+00 0.  1.
          5    1    3    3  501    0 -0.78097510151E+02  0.48170972348E+01  0.27748996020E+02  0.83125836523E+02  0.41800000000E+01 0. -1.
         -5    1    3    3    0  501 -0.10651484013E+03  0.10701943726E+02 -0.11410671893E+03  0.15651759796E+03  0.41800000000E+01 0. -1.
</event>
<event>
11    1  0.2450992E-009  0.2817325E+03  0.7561462E-02  0.1008233E+00
         22   -1    0    0    0    0  0.00000000000E+00  0.00000000000E+00  0.30478910199E+04  0.30478910199E+04  0.00000000000E+00 0. -1.
         22   -1    0    0    0    0 -0.00000000000E+00 -0.00000000000E+00 -0.57335254425E+02  0.57335254425E+02  0.00000000000E+00 0.  1.
         25    2    1    2    0    0  0.15485872154E+03 -0.18357716140E+03  0.90981696138E+03  0.94926134406E+03  0.12509355816E+03 0.  0.
         24    2    1    2    0    0 -0.38580648741E+02  0.27413790160E+03  0.60016003407E+03  0.66589026201E+03  0.81103137934E+02 0.  0.
        -24    2    1    2    0    0 -0.11627807280E+03 -0.90560740199E+02  0.14805787700E+04  0.14900746683E+04  0.80543062135E+02 0.  0.
        -13    1    4    4    0    0  0.59759309481E+01  0.17521274346E+03  0.31045697423E+03  0.35653716506E+03  0.00000000000E+00 0.  1.
         14    1    4    4    0    0 -0.44556579689E+02  0.98925158145E+02  0.28970305984E+03  0.30935309694E+03  0.00000000000E+00 0. -1.
         13    1    5    5    0    0 -0.63819464612E+02 -0.43539011063E+02  0.11210497971E+04  0.11237086887E+04  0.00000000000E+00 0. -1.
        -14    1    5    5    0    0 -0.52458608185E+02 -0.47021729136E+02  0.35952897291E+03  0.36636597951E+03  0.00000000000E+00 0.  1.
          5    1    3    3  501    0  0.82679236823E+02 -0.13555523807E+02  0.23138122348E+03  0.24611857185E+03  0.41800000000E+01 0.  1.
         -5    1    3    3    0  501  0.72179484715E+02 -0.17002163760E+03  0.67843573789E+03  0.70314277221E+03  0.41800000000E+01 0.  1.
</event>
<event>
11    1  0.2450992E-009  0.2097682E+03  0.7561462E-02  0.1047823E+00
         22   -1    0    0    0    0  0.00000000000E+00  0.00000000000E+00  0.97828251822E+03  0.97828251822E+03  0.00000000000E+00 0.  1.
         22   -1    0    0    0    0 -0.00000000000E+00 -0.00000000000E+00 -0.32121278247E+03  0.32121278247E+03  0.00000000000E+00 0. -1.
         25    2    1    2    0    0  0.13288631195E+03 -0.81127981081E+02 -0.17678144980E+03  0.26671732869E+03  0.12508369682E+03 0.  0.
         24    2    1    2    0    0 -0.37044157703E+02 -0.58711700051E+02 -0.58494448428E+02  0.12092583030E+03  0.79888188072E+02 0.  0.
        -24    2    1    2    0    0 -0.95842154252E+02  0.13983968113E+03  0.89234563397E+03  0.91185214171E+03  0.80328966903E+02 0.  0.
        -13    1    4    4    0    0  0.15285583717E+02 -0.50236532770E+02 -0.24449504986E+02  0.57923540883E+02  0.00000000000E+00 0.  1.
         14    1    4    4    0    0 -0.52329741420E+02 -0.84751672807E+01 -0.34044943442E+02  0.63002289414E+02  0.00000000000E+00 0. -1.
         11    1    5    5    0    0  0.43024510809E+01  0.17774226194E+02  0.29717276180E+02  0.34893419232E+02  0.00000000000E+00 0. -1.
        -12    1    5    5    0    0 -0.10014460533E+03  0.12206545494E+03  0.86262835779E+03  0.87695872248E+03  0.00000000000E+00 0.  1.
          5    1    3    3  501    0  0.10022954402E+03 -0.10221027006E+03 -0.17692243363E+03  0.22762232035E+03  0.41800000000E+01 0.  1.
         -5    1    3    3    0  501  0.32656767937E+02  0.21082288979E+02  0.14098383119E+00  0.39095008340E+02  0.41800000000E+01 0.  1.
</event>
<event>
11    1  0.2450992E-009  0.8253342E+03  0.7561462E-02  0.8865591E-01
         22   -1    0    0    0    0  0.00000000000E+00  0.00000000000E+00  0.19853734444E+04  0.19853734444E+04  0.00000000000E+00 0. -1.
         22   -1    0    0    0    0 -0.00000000000E+00 -0.00000000000E+00 -0.10231122388E+04  0.10231122388E+04  0.00000000000E+00 0.  1.
         25    2    1    2    0    0 -0.47463211611E+03 -0.72803655776E+03 -0.62693316222E+03  0.10788909168E+04  0.12509014881E+03 0.  0.
        -24    2    1    2    0    0  0.19726535984E+03  0.34076229114E+03  0.18840749406E+03  0.44782678510E+03  0.10009437735E+03 0.  0.
         24    2    1    2    0    0  0.27736675627E+03  0.38727426662E+03  0.14007868738E+04  0.14817679813E+04  0.80739145406E+02 0.  0.
        -13    1    5    5    0    0  0.12975592622E+03  0.12738443216E+03  0.60358297134E+03  0.63037750375E+03  0.00000000000E+00 0.  1.
         14    1    5    5    0    0  0.14761083005E+03  0.25988983446E+03  0.79720390243E+03  0.85139047754E+03  0.00000000000E+00 0. -1.
         13    1    4    4    0    0  0.16649507965E+03  0.30111395846E+03  0.12304293663E+03  0.36541728446E+03  0.00000000000E+00 0. -1.
        -14    1    4    4    0    0  0.30770280185E+02  0.39648332686E+02  0.65364557433E+02  0.82409500640E+02  0.00000000000E+00 0.  1.
          5    1    3    3  501    0 -0.20698040403E+03 -0.38242513195E+03 -0.37574933488E+03  0.57471288855E+03  0.41800000000E+01 0.  1.
         -5    1    3    3    0  501 -0.26765171208E+03 -0.34561142581E+03 -0.25118382734E+03  0.50417802822E+03  0.41800000000E+01 0.  1.
</event>
<event>
11    1  0.2450992E-009  0.2005169E+03  0.7561462E-02  0.1054159E+00
         22   -1    0    0    0    0  0.00000000000E+00  0.00000000000E+00  0.10725898494E+03  0.10725898494E+03  0.00000000000E+00 0. -1.
         22   -1    0    0    0    0 -0.00000000000E+00 -0.00000000000E+00 -0.10738752952E+04  0.10738752952E+04  0.00000000000E+00 0. -1.
         25    2    1    2    0    0 -0.13498243988E+03  0.11778483330E+02 -0.49401800137E+03  0.52731566648E+03  0.12509610180E+03 0.  0.
         24    2    1    2    0    0  0.22442924235E+03  0.12441172161E+03 -0.26760519700E+03  0.37948853230E+03  0.80945928797E+02 0.  0.
        -24    2    1    2    0    0 -0.89446802470E+02 -0.13619020494E+03 -0.20499311186E+03  0.27433008132E+03  0.81769891869E+02 0.  0.
        -11    1    4    4    0    0  0.16184511929E+03  0.65020593558E+02 -0.22064521244E+03  0.28125758656E+03  0.00000000000E+00 0.  1.
         12    1    4    4    0    0  0.62584123063E+02  0.59391128055E+02 -0.46959984558E+02  0.98230945740E+02  0.00000000000E+00 0. -1.
         13    1    5    5    0    0 -0.93195079096E+02 -0.84738966559E+02 -0.11480097496E+03  0.17042675574E+03  0.00000000000E+00 0. -1.
        -14    1    5    5    0    0  0.37482766256E+01 -0.51451238383E+02 -0.90192136899E+02  0.10390332558E+03  0.00000000000E+00 0.  1.
          5    1    3    3  501    0 -0.27804969822E+02 -0.35310145971E+02 -0.27744590237E+03  0.28109362123E+03  0.41800000000E+01 0.  1.
         -5    1    3    3    0  501 -0.10717747006E+03  0.47088629300E+02 -0.21657209901E+03  0.24622204525E+03  0.41800000000E+01 0.  1.
</event>
<event>
11    1  0.2450992E-009  0.2146010E+03  0.7561462E-02  0.1044653E+00
         22   -1    0    0    0    0  0.00000000000E+00  0.00000000000E+00  0.46711980067E+03  0.46711980067E+03  0.00000000000E+00 0.  1.
         22   -1    0    0    0    0 -0.00000000000E+00 -0.00000000000E+00 -0.38769622233E+03  0.38769622233E+03  0.00000000000E+00 0. -1.
         25    2    1    2    0    0 -0.13919310099E+03 -0.94752060817E+02 -0.26055987005E+03  0.33450150281E+03  0.12508851711E+03 0.  0.
        -24    2    1    2    0    0 -0.35582950110E+02  0.71885147873E+02 -0.15631834995E+02  0.11534166354E+03  0.81398551950E+02 0.  0.
         24    2    1    2    0    0  0.17477605110E+03  0.22866912944E+02  0.35561528338E+03  0.40497285664E+03  0.80443900318E+02 0.  0.
        -13    1    5    5    0    0 -0.49976656929E+01 -0.72614572966E+01  0.35694936360E+02  0.36767293975E+02  0.00000000000E+00 0.  1.
         14    1    5    5    0    0  0.17977371679E+03  0.30128370241E+02  0.31992034702E+03  0.36820556267E+03  0.00000000000E+00 0. -1.
         13    1    4    4    0    0 -0.34068947902E+02 -0.67370654228E+01 -0.11550182907E+02  0.36599016201E+02  0.00000000000E+00 0. -1.
        -14    1    4    4    0    0 -0.15140022073E+01  0.78622213295E+02 -0.40816520884E+01  0.78742647339E+02  0.00000000000E+00 0.  1.
          5    1    3    3  501    0 -0.95184883918E+02 -0.93325597778E+02 -0.96592741264E+02  0.16467379692E+03  0.41800000000E+01 0. -1.
         -5    1    3    3    0  501 -0.44008217069E+02 -0.14264630391E+01 -0.16396712879E+03  0.16982770589E+03  0.41800000000E+01 0. -1.
</event>
<event>
11    1  0.2450992E-009  0.1356728E+03  0.7561462E-02  0.1112489E+00
         22   -1    0    0    0    0  0.00000000000E+00  0.00000000000E+00  0.12374719015E+03  0.12374719015E+03  0.00000000000E+00 0.  1.
         22   -1    0    0    0    0 -0.00000000000E+00 -0.00000000000E+00 -0.61932367309E+03  0.61932367309E+03  0.00000000000E+00 0.  1.
         25    2    1    2    0    0 -0.11537972788E+01  0.52211195845E+02 -0.51214754807E+03  0.52978246455E+03  0.12508800318E+03 0.  0.
        -24    2    1    2    0    0  0.46535994153E+02  0.21129930573E+01 -0.27256505333E+02  0.97574916939E+02  0.81288891254E+02 0.  0.
         24    2    1    2    0    0 -0.45382196874E+02 -0.54324188902E+02  0.43827570456E+02  0.11571348174E+03  0.80362258750E+02 0.  0.
        -11    1    5    5    0    0 -0.40176506724E+02 -0.47624701471E+02 -0.83373211281E+01  0.62863143465E+02  0.00000000000E+00 0.  1.
         12    1    5    5    0    0 -0.52056901497E+01 -0.66994874310E+01  0.52164891584E+02  0.52850338275E+02  0.00000000000E+00 0. -1.
         13    1    4    4    0    0  0.18595346659E+02 -0.27378125390E+02 -0.42777546885E+02  0.54085739199E+02  0.00000000000E+00 0. -1.
        -14    1    4    4    0    0  0.27940647494E+02  0.29491118447E+02  0.15521041552E+02  0.43489177740E+02  0.00000000000E+00 0.  1.
          5    1    3    3  501    0  0.54128401090E+02  0.58357751546E+02 -0.29307088399E+03  0.30371619386E+03  0.41800000000E+01 0.  1.
         -5    1    3    3    0  501 -0.55282198369E+02 -0.61465557009E+01 -0.21907666408E+03  0.22606627070E+03  0.41800000000E+01 0.  1.
</event>
<event>
11    1  0.2450992E-009  0.1053367E+04  0.7561462E-02  0.8629848E-01
         22   -1    0    0    0    0  0.00000000000E+00  0.00000000000E+00  0.14056389969E+04  0.14056389969E+04  0.00000000000E+00 0.  1.
         22   -1    0    0    0    0 -0.00000000000E+00 -0.00000000000E+00 -0.19734482136E+03  0.19734482136E+03  0.00000000000E+00 0.  1.
         25    2    1    2    0    0  0.39122261796E+03 -0.19480230664E+03  0.22161661152E+03  0.50573083437E+03  0.12508668536E+03 0.  0.
        -24    2    1    2    0    0 -0.26037491686E+03  0.63436507659E+02  0.56362120112E+03  0.62928367440E+03  0.80683311037E+02 0.  0.
         24    2    1    2    0    0 -0.13084770110E+03  0.13136579898E+03  0.42305636290E+03  0.46796930951E+03  0.75103225160E+02 0.  0.
        -11    1    5    5    0    0 -0.38348628902E+02  0.42059770484E+01  0.12720589434E+03  0.13292722497E+03  0.00000000000E+00 0.  1.
         12    1    5    5    0    0 -0.92499072195E+02  0.12715982193E+03  0.29585046856E+03  0.33504208454E+03  0.00000000000E+00 0. -1.
         13    1    4    4    0    0 -0.16529503121E+03  0.70007251151E+01  0.28522096249E+03  0.32973088259E+03  0.00000000000E+00 0. -1.
        -14    1    4    4    0    0 -0.95079885648E+02  0.56435782544E+02  0.27840023864E+03  0.29955279181E+03  0.00000000000E+00 0.  1.
          5    1    3    3  501    0  0.29906992194E+03 -0.16640298135E+03  0.11304093928E+03  0.36045595676E+03  0.41800000000E+01 0.  1.
         -5    1    3    3    0  501  0.92152696016E+02 -0.28399325284E+02  0.10857567224E+03  0.14527487760E+03  0.41800000000E+01 0.  1.
</event>
<event>
11    1  0.2450992E-009  0.1357533E+03  0.7561462E-02  0.1112395E+00
         22   -1    0    0    0    0  0.00000000000E+00  0.00000000000E+00  0.21780117282E+03  0.21780117282E+03  0.00000000000E+00 0. -1.
         22   -1    0    0    0    0 -0.00000000000E+00 -0.00000000000E+00 -0.17728642977E+03  0.17728642977E+03  0.00000000000E+00 0.  1.
         25    2    1    2    0    0  0.10839684372E+02  0.75540259101E+01 -0.70847612156E+02  0.14436500238E+03  0.12508919897E+03 0.  0.
        -24    2    1    2    0    0 -0.91991524941E+01  0.53101830720E+02 -0.49074834749E+01  0.96270921859E+02  0.79621468017E+02 0.  0.
         24    2    1    2    0    0 -0.16405318774E+01 -0.60655856630E+02  0.11626983868E+03  0.15445167836E+03  0.81577087906E+02 0.  0.
        -13    1    5    5    0    0  0.88771785867E+01  0.18178655630E+02  0.12772236627E+02  0.23924837484E+02  0.00000000000E+00 0.  1.
         14    1    5    5    0    0 -0.10517710464E+02 -0.78834512260E+02  0.10349760206E+03  0.13052684087E+03  0.00000000000E+00 0. -1.
         13    1    4    4    0    0 -0.57567959450E+01  0.66687796220E+02  0.18091855546E+02  0.69337710528E+02  0.00000000000E+00 0. -1.
        -14    1    4    4    0    0 -0.34423565491E+01 -0.13585965500E+02 -0.22999339021E+02  0.26933211331E+02  0.00000000000E+00 0.  1.
          5    1    3    3  501    0  0.11706077506E+02 -0.57444773090E+02 -0.46049030773E+02  0.74665385830E+02  0.41800000000E+01 0. -1.
         -5    1    3    3    0  501 -0.86639313490E+00  0.64998799000E+02 -0.24798581383E+02  0.69699616550E+02  0.41800000000E+01 0. -1.
</event>
<event>
11    1  0.2450992E-009  0.1126159E+04  0.7561462E-02  0.8567485E-01
         22   -1    0    0    0    0  0.00000000000E+00  0.00000000000E+00  0.14160717896E+04  0.14160717896E+04  0.00000000000E+00 0. -1.
         22   -1    0    0    0    0 -0.00000000000E+00 -0.00000000000E+00 -0.22390007836E+03  0.22390007836E+03  0.00000000000E+00 0. -1.
         25    2    1    2    0    0 -0.27711089532E+03  0.39304439682E+03  0.23743239843E+03  0.55072262235E+03  0.12508763634E+03 0.  0.
        -24    2    1    2    0    0  0.17747735524E+03 -0.17321702622E+03  0.38713419531E+03  0.46693181821E+03  0.81548071026E+02 0.  0.
         24    2    1    2    0    0  0.99633540083E+02 -0.21982737060E+03  0.56760511750E+03  0.62231742739E+03  0.82779803307E+02 0.  0.
        -11    1    5    5    0    0  0.82383171698E+02 -0.19933144344E+03  0.54858726815E+03  0.58946416524E+03  0.00000000000E+00 0.  1.
         12    1    5    5    0    0  0.17250368385E+02 -0.20495927159E+02  0.19017849349E+02  0.32853262142E+02  0.00000000000E+00 0. -1.
         13    1    4    4    0    0  0.14159208365E+03 -0.10633428687E+03  0.31940507862E+03  0.36520528880E+03  0.00000000000E+00 0. -1.
        -14    1    4    4    0    0  0.35885271587E+02 -0.66882739348E+02  0.67729116687E+02  0.10172652941E+03  0.00000000000E+00 0.  1.
          5    1    3    3  501    0 -0.63580302528E+02  0.36875009994E+02  0.26716261264E+01  0.73667029381E+02  0.41800000000E+01 0. -1.
         -5    1    3    3    0  501 -0.21353059279E+03  0.35616938683E+03  0.23476077230E+03  0.47705559297E+03  0.41800000000E+01 0. -1.
</event>
<event>
11    1  0.2450992E-009  0.5010710E+03  0.7561462E-02  0.9391131E-01
         22   -1    0    0    0    0  0.00000000000E+00  0.00000000000E+00  0.79365114779E+03  0.79365114779E+03  0.00000000000E+00 0. -1.
         22   -1    0    0    0    0 -0.00000000000E+00 -0.00000000000E+00 -0.43289698441E+03  0.43289698441E+03  0.00000000000E+00 0. -1.
         25    2    1    2    0    0  0.16774370681E+03  0.40229956846E+03  0.10264980579E+03  0.46493850315E+03  0.12509170685E+03 0.  0.
        -24    2    1    2    0    0 -0.29201378229E+03 -0.44729706810E+03  0.27396220085E+03  0.60543778095E+03  0.78440441953E+02 0.  0.
         24    2    1    2    0    0  0.12427007549E+03  0.44997499634E+02 -0.15857843254E+02  0.15617184809E+03  0.81672200349E+02 0.  0.
        -11    1    5    5    0    0  0.68468538290E+02  0.44167830622E+02 -0.45141595778E+02  0.93147741072E+02  0.00000000000E+00 0.  1.
         12    1    5    5    0    0  0.55801537196E+02  0.82966901142E+00  0.29283752523E+02  0.63024107022E+02  0.00000000000E+00 0. -1.
         13    1    4    4    0    0 -0.19090641090E+03 -0.25109637927E+03  0.19594927759E+03  0.37133646306E+03  0.00000000000E+00 0. -1.
        -14    1    4    4    0    0 -0.10110737139E+03 -0.19620068883E+03  0.78012923252E+02  0.23410131789E+03  0.00000000000E+00 0.  1.
          5    1    3    3  501    0  0.17310411090E+03  0.27157932180E+03  0.63195073855E+02  0.32822469590E+03  0.41800000000E+01 0.  1.
         -5    1    3    3    0  501 -0.53604040939E+01  0.13072024667E+03  0.39454731935E+02  0.13671380725E+03  0.41800000000E+01 0.  1.
</event>
<event>
11    1  0.2450992E-009  0.2891164E+03  0.7561462E-02  0.1004906E+00
         22   -1    0    0    0    0  0.00000000000E+00  0.00000000000E+00  0.22779649651E+03  0.22779649651E+03  0.00000000000E+00 0.  1.
         22   -1    0    0    0    0 -0.00000000000E+00 -0.00000000000E+00 -0.12876038794E+04  0.12876038794E+04  0.00000000000E+00 0. -1.
         25    2    1    2    0    0  0.17899131562E+03  0.17839441393E+03 -0.96276434203E+03  0.10032075574E+04  0.12509103446E+03 0.  0.
        -24    2    1    2    0    0 -0.16886310903E+03 -0.29282498378E+03 -0.49380305659E+01  0.34726333577E+03  0.79411708897E+02 0.  0.
         24    2    1    2    0    0 -0.10128206589E+02  0.11443056985E+03 -0.92105010322E+02  0.16492948280E+03  0.74306564208E+02 0.  0.
        -11    1    5    5    0    0  0.24990676072E+02  0.65714478256E+02 -0.74299770971E+02  0.10229067655E+03  0.00000000000E+00 0.  1.
         12    1    5    5    0    0 -0.35118882661E+02  0.48716091596E+02 -0.17805239352E+02  0.62638806247E+02  0.00000000000E+00 0. -1.
         13    1    4    4    0    0  0.47038706336E+01  0.32631269374E+00  0.44079768714E+01  0.64546989868E+01  0.00000000000E+00 0. -1.
        -14    1    4    4    0    0 -0.17356697966E+03 -0.29315129647E+03 -0.93460074373E+01  0.34080863679E+03  0.00000000000E+00 0.  1.
          5    1    3    3  501    0  0.12864475722E+03  0.17830263788E+03 -0.64511634809E+03  0.68156722280E+03  0.41800000000E+01 0. -1.
         -5    1    3    3    0  501  0.50346558403E+02  0.91776048687E-01 -0.31764799395E+03  0.32164033457E+03  0.41800000000E+01 0. -1.
</event>
<event>
11    1  0.2450992E-009  0.4105953E+03  0.7561462E-02  0.9619003E-01
         22   -1    0    0    0    0  0.00000000000E+00  0.00000000000E+00  0.15324922497E+04  0.15324922497E+04  0.00000000000E+00 0.  1.
         22   -1    0    0    0    0 -0.00000000000E+00 -0.00000000000E+00 -0.87428883547E+02  0.87428883547E+02  0.00000000000E+00 0.  1.
         25    2    1    2    0    0 -0.89050865740E+02  0.64490911322E+02  0.20986418193E+03  0.26791613970E+03  0.12508776407E+03 0.  0.
        -24    2    1    2    0    0 -0.17532870253E+03  0.98928759241E+02  0.63236031890E+03  0.66906335277E+03  0.85083157945E+02 0.  0.
         24    2    1    2    0    0  0.26437956827E+03 -0.16341967056E+03  0.60283886537E+03  0.68294164083E+03  0.79950249105E+02 0.  0.
        -13    1    5    5    0    0  0.25802060660E+03 -0.15125686174E+03  0.59757256711E+03  0.66824115753E+03  0.00000000000E+00 0.  1.
         14    1    5    5    0    0  0.63589616642E+01 -0.12162808822E+02  0.52662982657E+01  0.14700483302E+02  0.00000000000E+00 0. -1.
         11    1    4    4    0    0  0.33571213873E+01  0.66231398689E+00  0.83082174322E+02  0.83152610385E+02  0.00000000000E+00 0. -1.
        -12    1    4    4    0    0 -0.17868582391E+03  0.98266445254E+02  0.54927814457E+03  0.58591074238E+03  0.00000000000E+00 0.  1.
          5    1    3    3  501    0  0.65969633552E+01 -0.30486592979E+02  0.34571891598E+02  0.46750832780E+02  0.41800000000E+01 0.  1.
         -5    1    3    3    0  501 -0.95647829095E+02  0.94977504301E+02  0.17529229033E+03  0.22116530692E+03  0.41800000000E+01 0.  1.
</event>
<event>
11    1  0.2450992E-009  0.3426467E+03  0.7561462E-02  0.9836006E-01
         22   -1    0    0    0    0  0.00000000000E+00  0.00000000000E+00  0.21341349675E+03  0.21341349675E+03  0.00000000000E+00 0.  1.
         22   -1    0    0    0    0 -0.00000000000E+00 -0.00000000000E+00 -0.79096032188E+03  0.79096032188E+03  0.00000000000E+00 0.  1.
         25    2    1    2    0    0 -0.55690304225E+02  0.25682852274E+03 -0.33951366089E+03  0.44718643129E+03  0.12507549049E+03 0.  0.
        -24    2    1    2    0    0  0.34910495099E+02 -0.35452194121E+03 -0.12448762478E+03  0.38592577008E+03  0.80851603673E+02 0.  0.
         24    2    1    2    0    0  0.20779809126E+02  0.97693418472E+02 -0.11354553947E+03  0.17126161727E+03  0.80387483697E+02 0.  0.
        -13    1    5    5    0    0  0.10681809742E+02  0.10981681009E+03 -0.10837598000E+03  0.15465828745E+03  0.00000000000E+00 0.  1.
         14    1    5    5    0    0  0.10097999384E+02 -0.12123391614E+02 -0.51695594707E+01  0.16603329814E+02  0.00000000000E+00 0. -1.
         11    1    4    4    0    0  0.10024534927E+01 -0.31259030494E+02  0.11861910659E+02  0.33449018295E+02  0.00000000000E+00 0. -1.
        -12    1    4    4    0    0  0.33908041606E+02 -0.32326291072E+03 -0.13634953544E+03  0.35247675178E+03  0.00000000000E+00 0.  1.
          5    1    3    3  501    0 -0.76829526067E+02  0.74512547529E+02 -0.11464066265E+03  0.15689120354E+03  0.41800000000E+01 0.  1.
         -5    1    3    3    0  501  0.21139221842E+02  0.18231597521E+03 -0.22487299824E+03  0.29029522775E+03  0.41800000000E+01 0.  1.
</event>
<event>
11    1  0.2450992E-009  0.6067785E+03  0.7561462E-02  0.9182220E-01
         22   -1    0    0    0    0  0.00000000000E+00  0.00000000000E+00  0.25923122741E+03  0.25923122741E+03  0.00000000000E+00 0.  1.
         22   -1    0    0    0    0 -0.00000000000E+00 -0.00000000000E+00 -0.21739710851E+04  0.21739710851E+04  0.00000000000E+00 0.  1.
         25    2    1    2    0    0 -0.59570909215E+03  0.25811335563E+02 -0.15424155942E+04  0.16583814103E+04  0.12508992418E+03 0.  0.
        -24    2    1    2    0    0  0.58533599086E+03 -0.20631071140E+02 -0.28673616648E+03  0.65713282029E+03  0.81006487635E+02 0.  0.
         24    2    1    2    0    0  0.10373101291E+02 -0.51802644226E+01 -0.85588096941E+02  0.11768808190E+03  0.79942015950E+02 0.  0.
        -11    1    5    5    0    0  0.22193457455E+02 -0.38728091135E+02 -0.40613284975E+02  0.60347771402E+02  0.00000000000E+00 0.  1.
         12    1    5    5    0    0 -0.11820356164E+02  0.33547826712E+02 -0.44974811967E+02  0.57340310501E+02  0.00000000000E+00 0. -1.
         11    1    4    4    0    0  0.13623968937E+03  0.11703038878E+02 -0.34461516421E+02  0.14101705639E+03  0.00000000000E+00 0. -1.
        -12    1    4    4    0    0  0.44909630150E+03 -0.32334110018E+02 -0.25227465005E+03  0.51611576390E+03  0.00000000000E+00 0.  1.
          5    1    3    3  501    0 -0.65601605188E+02  0.37471879895E+02 -0.14127293496E+03  0.16025987314E+03  0.41800000000E+01 0. -1.
         -5    1    3    3    0  501 -0.53010748697E+03 -0.11660544333E+02 -0.14011426593E+04  0.14981215372E+04  0.41800000000E+01 0. -1.
</event>
<event>
11    1  0.2450992E-009  0.2328357E+03  0.7561462E-02  0.1033462E+00
         22   -1    0    0    0    0  0.00000000000E+00  0.00000000000E+00  0.79020081776E+03  0.79020081776E+03  0.00000000000E+00 0. -1.
         22   -1    0    0    0    0 -0.00000000000E+00 -0.00000000000E+00 -0.15307743246E+04  0.15307743246E+04  0.00000000000E+00 0. -1.
         25    2    1    2    0    0  0.16202583029E+03  0.25872340013E+03 -0.12538611447E+04  0.12965357917E+04  0.12508845513E+03 0.  0.
         24    2    1    2    0    0  0.14345898328E+02 -0.17406677577E+03 -0.20264952621E+03  0.27812065181E+03  0.76021176435E+02 0.  0.
        -24    2    1    2    0    0 -0.17637172862E+03 -0.84656624365E+02  0.71593716402E+03  0.74631869886E+03  0.78433709173E+02 0.  0.
        -13    1    4    4    0    0  0.25819468496E+02 -0.28779144052E+02 -0.75012681786E+02  0.84390677888E+02  0.00000000000E+00 0.  1.
         14    1    4    4    0    0 -0.11473570168E+02 -0.14528763172E+03 -0.12763684443E+03  0.19372997393E+03  0.00000000000E+00 0. -1.
         13    1    5    5    0    0 -0.11950416633E+03 -0.32870882862E+02  0.32381417857E+03  0.34672375597E+03  0.00000000000E+00 0. -1.
        -14    1    5    5    0    0 -0.56867562290E+02 -0.51785741503E+02  0.39212298545E+03  0.39959494289E+03  0.00000000000E+00 0.  1.
          5    1    3    3  501    0  0.11249303946E+03  0.17434454839E+03 -0.58879186851E+03  0.62429483603E+03  0.41800000000E+01 0.  1.
         -5    1    3    3    0  501  0.49532790838E+02  0.84378851749E+02 -0.66506927617E+03  0.67224095568E+03  0.41800000000E+01 0.  1.
</event>
<event>
11    1  0.2450992E-009  0.3429303E+03  0.7561462E-02  0.9834990E-01
         22   -1    0    0    0    0  0.00000000000E+00  0.00000000000E+00  0.51656050225E+03  0.51656050225E+03  0.00000000000E+00 0. -1.
         22   -1    0    0    0    0 -0.00000000000E+00 -0.00000000000E+00 -0.44336797750E+03  0.44336797750E+03  0.00000000000E+00 0.  1.
         25    2    1    2    0    0  0.19208159603E+03 -0.25889285343E+03 -0.13408286407E+03  0.37087689773E+03  0.12510239702E+03 0.  0.
        -24    2    1    2    0    0 -0.53520707072E+02  0.33377382059E+03  0.58454977471E+02  0.35253088209E+03  0.81188724825E+02 0.  0.
         24    2    1    2    0    0 -0.13856088896E+03 -0.74880967160E+02  0.14882041135E+03  0.23652069994E+03  0.94806368334E+02 0.  0.
        -11    1    5    5    0    0 -0.10682210429E+03 -0.97681446492E+02  0.11774302266E+03  0.18659058481E+03  0.00000000000E+00 0.  1.
         12    1    5    5    0    0 -0.31738784662E+02  0.22800479332E+02  0.31077388687E+02  0.49930115133E+02  0.00000000000E+00 0. -1.
         11    1    4    4    0    0 -0.21579228624E+02  0.29696176997E+03  0.40016904604E+02  0.30042188433E+03  0.00000000000E+00 0. -1.
        -12    1    4    4    0    0 -0.31941478448E+02  0.36812050624E+02  0.18438072867E+02  0.52108997761E+02  0.00000000000E+00 0.  1.
          5    1    3    3  501    0 -0.14638961332E+02 -0.31240592577E+02  0.14954605379E+01  0.34784804379E+02  0.41800000000E+01 0.  1.
         -5    1    3    3    0  501  0.20672055736E+03 -0.22765226085E+03 -0.13557832461E+03  0.33609209335E+03  0.41800000000E+01 0.  1.
</event>
<event>
11    1  0.2450992E-009  0.1537696E+03  0.7561462E-02  0.1093088E+00
         22   -1    0    0    0    0  0.00000000000E+00  0.00000000000E+00  0.86031772841E+03  0.86031772841E+03  0.00000000000E+00 0. -1.
         22   -1    0    0    0    0 -0.00000000000E+00 -0.00000000000E+00 -0.78259053440E+03  0.78259053440E+03  0.00000000000E+00 0. -1.
         25    2    1    2    0    0 -0.12930052545E+02 -0.13408368298E+03 -0.69395184159E+03  0.71788704355E+03  0.12508808315E+03 0.  0.
         24    2    1    2    0    0  0.49235065486E+02  0.52543945433E+02 -0.32787532427E+02  0.11171337793E+03  0.78866334075E+02 0.  0.
        -24    2    1    2    0    0 -0.36305012941E+02  0.81539737547E+02  0.80446656803E+03  0.81330784134E+03  0.79601525959E+02 0.  0.
        -13    1    4    4    0    0  0.54766984581E+02  0.87197535493E+00 -0.15076254803E+02  0.56810882760E+02  0.00000000000E+00 0.  1.
         14    1    4    4    0    0 -0.55319190947E+01  0.51671970078E+02 -0.17711277624E+02  0.54902495168E+02  0.00000000000E+00 0. -1.
         13    1    5    5    0    0  0.10220597045E+02  0.36097229161E+02  0.52647879662E+03  0.52781378709E+03  0.00000000000E+00 0. -1.
        -14    1    5    5    0    0 -0.46525609985E+02  0.45442508386E+02  0.27798777142E+03  0.28549405425E+03  0.00000000000E+00 0.  1.
          5    1    3    3  501    0 -0.53875552938E+02 -0.39937478443E+02 -0.41919497124E+03  0.42454619737E+03  0.41800000000E+01 0.  1.
         -5    1    3    3    0  501  0.40945500393E+02 -0.94146204537E+02 -0.27475687036E+03  0.29334084618E+03  0.41800000000E+01 0.  1.
</event>
<event>
11    1  0.2450992E-009  0.2287386E+03  0.7561462E-02  0.1035877E+00
         22   -1    0    0    0    0  0.00000000000E+00  0.00000000000E+00  0.11460894238E+04  0.11460894238E+04  0.00000000000E+00 0. -1.
         22   -1    0    0    0    0 -0.00000000000E+00 -0.00000000000E+00 -0.43370496148E+03  0.43370496148E+03  0.00000000000E+00 0.  1.
         25    2    1    2    0    0 -0.87160747448E+02 -0.15259502137E+03 -0.76383316784E+02  0.22883113076E+03  0.12508812445E+03 0.  0.
         24    2    1    2    0    0  0.19401233237E+03  0.92075932126E+02 -0.22800212001E+03  0.32360652754E+03  0.81347744584E+02 0.  0.
        -24    2    1    2    0    0 -0.10685158492E+03  0.60519089244E+02  0.10167698991E+04  0.10273567269E+04  0.80999971322E+02 0.  0.
        -11    1    4    4    0    0  0.17468628967E+03  0.84390842505E+02 -0.15685146717E+03  0.24947844967E+03  0.00000000000E+00 0.  1.
         12    1    4    4    0    0  0.19326042704E+02  0.76850896216E+01 -0.71150652843E+02  0.74128077872E+02  0.00000000000E+00 0. -1.
         11    1    5    5    0    0 -0.10862643714E+03  0.30148424261E+02  0.68715831801E+03  0.69634415654E+03  0.00000000000E+00 0. -1.
        -12    1    5    5    0    0  0.17748522117E+01  0.30370664983E+02  0.32961158107E+03  0.33101257041E+03  0.00000000000E+00 0.  1.
          5    1    3    3  501    0  0.24664921601E+02 -0.37173472817E+02  0.10601626556E+02  0.46044460302E+02  0.41800000000E+01 0. -1.
         -5    1    3    3    0  501 -0.11182566905E+03 -0.11542154855E+03 -0.86984943340E+02  0.18278667046E+03  0.41800000000E+01 0. -1.
</event>
<event>
11    1  0.2450992E-009  0.1798801E+03  0.7561462E-02  0.1069740E+00
         22   -1    0    0    0    0  0.00000000000E+00  0.00000000000E+00  0.13436554970E+04  0.13436554970E+04  0.00000000000E+00 0.  1.
         22   -1    0    0    0    0 -0.00000000000E+00 -0.00000000000E+00 -0.52027600259E+02  0.52027600259E+02  0.00000000000E+00 0.  1.
         25    2    1    2    0    0  0.54256312593E+02 -0.42341223322E+02  0.21472239001E+03  0.25785641453E+03  0.12509076344E+03 0.  0.
         24    2    1    2    0    0 -0.71246797441E+02 -0.13131139851E+03  0.41186068454E+03  0.44569417134E+03  0.81824699047E+02 0.  0.
        -24    2    1    2    0    0  0.16990484848E+02  0.17365262183E+03  0.66504482218E+03  0.69213251137E+03  0.79491434367E+02 0.  0.
        -13    1    4    4    0    0 -0.50010386010E+02 -0.13805721820E+03  0.33729789282E+03  0.36787321554E+03  0.00000000000E+00 0.  1.
         14    1    4    4    0    0 -0.21236411431E+02  0.67458196917E+01  0.74562791717E+02  0.77820955805E+02  0.00000000000E+00 0. -1.
         11    1    5    5    0    0  0.71545336789E+01 -0.16113938527E+01  0.10420937569E+03  0.10446711408E+03  0.00000000000E+00 0. -1.
        -12    1    5    5    0    0  0.98359511690E+01  0.17526401569E+03  0.56083544649E+03  0.58766539729E+03  0.00000000000E+00 0.  1.
          5    1    3    3  501    0 -0.39240567422E+02 -0.27285743478E+02  0.72906379556E+02  0.87276265438E+02  0.41800000000E+01 0.  1.
         -5    1    3    3    0  501  0.93496880015E+02 -0.15055479844E+02  0.14181601045E+03  0.17058014910E+03  0.41800000000E+01 0.  1.
</event>
<event>
11    1  0.2450992E-009  0.1457545E+03  0.7561462E-02  0.1101297E+00
         22   -1    0    0    0    0  0.00000000000E+00  0.00000000000E+00  0.26507289106E+04  0.26507289106E+04  0.00000000000E+00 0.  1.
         22   -1    0    0    0    0 -0.00000000000E+00 -0.00000000000E+00 -0.68095963780E+02  0.68095963780E+02  0.00000000000E+00 0. -1.
         25    2    1    2    0    0 -0.96279531105E+02  0.16168868679E+02  0.95822969753E+02  0.18536680734E+03  0.12509049247E+03 0.  0.
         24    2    1    2    0    0  0.53848008658E+02 -0.17152344572E+02  0.92339391164E+02  0.13726722933E+03  0.84391457667E+02 0.  0.
        -24    2    1    2    0    0  0.42431522447E+02  0.98347589292E+00  0.23944705859E+04  0.23961908377E+04  0.80248007062E+02 0.  0.
        -11    1    4    4    0    0  0.96925996498E+01 -0.29273678594E+02  0.85600086257E+02  0.90984996091E+02  0.00000000000E+00 0.  1.
         12    1    4    4    0    0  0.44155409008E+02  0.12121334022E+02  0.67393049071E+01  0.46282233241E+02  0.00000000000E+00 0. -1.
         11    1    5    5    0    0  0.17767281993E+01  0.12160154815E+02  0.55673229275E+02  0.57013459692E+02  0.00000000000E+00 0. -1.
        -12    1    5    5    0    0  0.40654794248E+02 -0.11176678922E+02  0.23387973566E+04  0.23391773780E+04  0.00000000000E+00 0.  1.
          5    1    3    3  501    0 -0.38444591654E+02 -0.64256428860E+00  0.11555075588E+03  0.12185175050E+03  0.41800000000E+01 0. -1.
         -5    1    3    3    0  501 -0.57834939451E+02  0.16811432968E+02 -0.19727786126E+02  0.63515056838E+02  0.41800000000E+01 0. -1.
</event>
<event>
11    1  0.2450992E-009  0.8806533E+03  0.7561462E-02  0.8801631E-01
         22   -1    0    0    0    0  0.00000000000E+00  0.00000000000E+00  0.17763192792E+04  0.17763192792E+04  0.00000000000E+00 0.  1.
         22   -1    0    0    0    0 -0.00000000000E+00 -0.00000000000E+00 -0.13167317536E+04  0.13167317536E+04  0.00000000000E+00 0.  1.
         25    2    1    2    0    0  0.64030988385E+03  0.59614187749E+03 -0.99570786500E+03  0.13313388398E+04  0.12508824322E+03 0.  0.
         24    2    1    2    0    0 -0.68962256360E+03 -0.49922103120E+03  0.12677634623E+04  0.15294719168E+04  0.85201113613E+02 0.  0.
        -24    2    1    2    0    0  0.49312679751E+02 -0.96920846293E+02  0.18753192829E+03  0.23224027619E+03  0.83318250877E+02 0.  0.
        -13    1    4    4    0    0 -0.12570137395E+03 -0.73842480437E+02  0.16839942180E+03  0.22273731747E+03  0.00000000000E+00 0.  1.
         14    1    4    4    0    0 -0.56392118965E+03 -0.42537855076E+03  0.10993640405E+04  0.13067345993E+04  0.00000000000E+00 0. -1.
         13    1    5    5    0    0  0.48591387871E+02 -0.10354876300E+03  0.19250463324E+03  0.22392298478E+03  0.00000000000E+00 0. -1.
        -14    1    5    5    0    0  0.72129188057E+00  0.66279167108E+01 -0.49727049522E+01  0.83172914127E+01  0.00000000000E+00 0.  1.
          5    1    3    3  501    0  0.17289307207E+03  0.22732923091E+03 -0.27511636295E+03  0.39658174335E+03  0.41800000000E+01 0. -1.
         -5    1    3    3    0  501  0.46741681178E+03  0.36881264658E+03 -0.72059150205E+03  0.93475709649E+03  0.41800000000E+01 0. -1.
</event>
<event>
11    1  0.2450992E-009  0.1544806E+03  0.7561462E-02  0.1092386E+00
         22   -1    0    0    0    0  0.00000000000E+00  0.00000000000E+00  0.25472525279E+03  0.25472525279E+03  0.00000000000E+00 0.  1.
         22   -1    0    0    0    0 -0.00000000000E+00 -0.00000000000E+00 -0.36602799130E+03  0.36602799130E+03  0.00000000000E+00 0. -1.
         25    2    1    2    0    0  0.77527181312E+02 -0.57293269574E+02 -0.27043469542E+03  0.31316953447E+03  0.12508896935E+03 0.  0.
        -24    2    1    2    0    0 -0.17699462242E+02  0.90060500417E+02  0.82927596652E+01  0.12286836967E+03  0.81263163262E+02 0.  0.
         24    2    1    2    0    0 -0.59827719070E+02 -0.32767230843E+02  0.15083919725E+03  0.18471533996E+03  0.81940502818E+02 0.  0.
        -13    1    5    5    0    0 -0.15950442338E+02 -0.19604155891E+02  0.13328167665E+03  0.13565671701E+03  0.00000000000E+00 0.  1.
         14    1    5    5    0    0 -0.43877276732E+02 -0.13163074952E+02  0.17557520594E+02  0.49058622942E+02  0.00000000000E+00 0. -1.
         13    1    4    4    0    0  0.15315793226E+02  0.18285648622E+02  0.32431985085E+02  0.40258814243E+02  0.00000000000E+00 0. -1.
        -14    1    4    4    0    0 -0.33015255468E+02  0.71774851795E+02 -0.24139225420E+02  0.82609555426E+02  0.00000000000E+00 0.  1.
          5    1    3    3  501    0  0.10860540781E+03 -0.34456520729E+02 -0.16278108484E+03  0.19873988127E+03  0.41800000000E+01 0.  1.
         -5    1    3    3    0  501 -0.31078226497E+02 -0.22836748845E+02 -0.10765361059E+03  0.11442965320E+03  0.41800000000E+01 0.  1.
</event>
<event>
11    1  0.2450992E-009  0.1328226E+03  0.7561462E-02  0.1115849E+00
         22   -1    0    0    0    0  0.00000000000E+00  0.00000000000E+00  0.10078147939E+04  0.10078147939E+04  0.00000000000E+00 0.  1.
         22   -1    0    0    0    0 -0.00000000000E+00 -0.00000000000E+00 -0.25677434353E+02  0.25677434353E+02  0.00000000000E+00 0.  1.
         25    2    1    2    0    0  0.14130441853E+02  0.23153308890E+02  0.30336162499E+03  0.32925914903E+03  0.12509023386E+03 0.  0.
         24    2    1    2    0    0  0.75176132902E+00  0.26799908822E+02  0.25744349910E+03  0.27232284018E+03  0.84639079600E+02 0.  0.
        -24    2    1    2    0    0 -0.14882203182E+02 -0.49953217713E+02  0.42133223542E+03  0.43191023901E+03  0.79427942319E+02 0.  0.
        -13    1    4    4    0    0 -0.32703607594E+02  0.34293900695E+02  0.19900941740E+03  0.20457357060E+03  0.00000000000E+00 0.  1.
         14    1    4    4    0    0  0.33455368923E+02 -0.74939918725E+01  0.58434081697E+02  0.67749269573E+02  0.00000000000E+00 0. -1.
         13    1    5    5    0    0  0.31174870947E+02 -0.19276155679E+02  0.22343690278E+03  0.22642325914E+03  0.00000000000E+00 0. -1.
        -14    1    5    5    0    0 -0.46057074129E+02 -0.30677062033E+02  0.19789533264E+03  0.20548697986E+03  0.00000000000E+00 0.  1.
          5    1    3    3  501    0 -0.31325795569E+02 -0.30338977522E+02  0.50755622509E+02  0.67047480499E+02  0.41800000000E+01 0. -1.
         -5    1    3    3    0  501  0.45456237422E+02  0.53492286412E+02  0.25260600248E+03  0.26221166853E+03  0.41800000000E+01 0. -1.
</event>
<event>
11    1  0.2450992E-009  0.1550699E+03  0.7561462E-02  0.1091808E+00
         22   -1    0    0    0    0  0.00000000000E+00  0.00000000000E+00  0.12215104052E+03  0.12215104052E+03  0.00000000000E+00 0.  1.
         22   -1    0    0    0    0 -0.00000000000E+00 -0.00000000000E+00 -0.39943776239E+03  0.39943776239E+03  0.00000000000E+00 0. -1.
         25    2    1    2    0    0  0.34474291910E+02  0.42194477464E+02 -0.12699993872E+03  0.18640344613E+03  0.12509360321E+03 0.  0.
         24    2    1    2    0    0 -0.63930115109E+02 -0.12317510312E+03 -0.14209258170E+03  0.21590689952E+03  0.84654130662E+02 0.  0.
        -24    2    1    2    0    0  0.29455823200E+02  0.80980625651E+02 -0.81942014463E+01  0.11927845726E+03  0.82065206865E+02 0.  0.
        -13    1    4    4    0    0 -0.26498711193E+02  0.38136020615E+01 -0.91617016396E+01  0.28295972019E+02  0.00000000000E+00 0.  1.
         14    1    4    4    0    0 -0.37431403916E+02 -0.12698870518E+03 -0.13293088006E+03  0.18761092750E+03  0.00000000000E+00 0. -1.
         13    1    5    5    0    0  0.39569281984E+02  0.22947042827E+01 -0.39436628097E+01  0.39831472743E+02  0.00000000000E+00 0. -1.
        -14    1    5    5    0    0 -0.10113458785E+02  0.78685921368E+02 -0.42505386366E+01  0.79446984517E+02  0.00000000000E+00 0.  1.
          5    1    3    3  501    0  0.52011691389E+01  0.29157327823E+02  0.19942300007E+02  0.35949543193E+02  0.41800000000E+01 0.  1.
         -5    1    3    3    0  501  0.29273122771E+02  0.13037149641E+02 -0.14694223872E+03  0.15045390294E+03  0.41800000000E+01 0.  1.
</event>
<event>
11    1  0.2450992E-009  0.1417743E+03  0.7561462E-02  0.1105593E+00
         22   -1    0    0    0    0  0.00000000000E+00  0.00000000000E+00  0.81994578827E+03  0.81994578827E+03  0.00000000000E+00 0.  1.
         22   -1    0    0    0    0 -0.00000000000E+00 -0.00000000000E+00 -0.44109689297E+02  0.44109689297E+02  0.00000000000E+00 0. -1.
         25    2    1    2    0    0  0.61921883573E+02  0.15696254694E+01  0.17234495075E+03  0.22178157378E+03  0.12508997174E+03 0.  0.
         24    2    1    2    0    0 -0.67848319792E+02  0.47367634135E+02  0.28564593672E+03  0.31070413795E+03  0.89979847255E+02 0.  0.
        -24    2    1    2    0    0  0.59264362189E+01 -0.48937259604E+02  0.31784521150E+03  0.33156976584E+03  0.80516787807E+02 0.  0.
        -13    1    4    4    0    0 -0.62148569233E+02  0.13682480707E+02  0.26082389737E+03  0.26847487848E+03  0.00000000000E+00 0.  1.
         14    1    4    4    0    0 -0.56997505587E+01  0.33685153427E+02  0.24822039353E+02  0.42229259472E+02  0.00000000000E+00 0. -1.
         11    1    5    5    0    0  0.93279544924E+01  0.11943052108E+01 -0.37054872338E+00  0.94113976808E+01  0.00000000000E+00 0. -1.
        -12    1    5    5    0    0 -0.34015182735E+01 -0.50131564815E+02  0.31821576023E+03  0.32215836816E+03  0.00000000000E+00 0.  1.
          5    1    3    3  501    0 -0.38056052881E+02 -0.15180455759E+01  0.61120754547E+02  0.72137276491E+02  0.41800000000E+01 0.  1.
         -5    1    3    3    0  501  0.99977936454E+02  0.30876710454E+01  0.11122419621E+03  0.14964429729E+03  0.41800000000E+01 0.  1.
</event>
<event>
11    1  0.2450992E-009  0.1715028E+03  0.7561462E-02  0.1076731E+00
         22   -1    0    0    0    0  0.00000000000E+00  0.00000000000E+00  0.38280804826E+03  0.38280804826E+03  0.00000000000E+00 0. -1.
         22   -1    0    0    0    0 -0.00000000000E+00 -0.00000000000E+00 -0.26095168584E+03  0.26095168584E+03  0.00000000000E+00 0.  1.
         25    2    1    2    0    0 -0.78273857946E+02 -0.71575240254E+02 -0.11078430519E+03  0.19791667735E+03  0.12509211422E+03 0.  0.
         24    2    1    2    0    0  0.10219090281E+03 -0.50247140882E+02 -0.34029260260E+02  0.14317648390E+03  0.79835826575E+02 0.  0.
        -24    2    1    2    0    0 -0.23917044862E+02  0.12182238114E+03  0.26666992787E+03  0.30266657285E+03  0.71284544649E+02 0.  0.
        -13    1    4    4    0    0  0.76911379002E+02 -0.54524508003E+02 -0.55789769234E+02  0.10954807412E+03  0.00000000000E+00 0.  1.
         14    1    4    4    0    0  0.25279523806E+02  0.42773671209E+01  0.21760508974E+02  0.33628409778E+02  0.00000000000E+00 0. -1.
         11    1    5    5    0    0 -0.34283789271E+02  0.12701630799E+03  0.24475743096E+03  0.27787536903E+03  0.00000000000E+00 0. -1.
        -12    1    5    5    0    0  0.10366744408E+02 -0.51939268538E+01  0.21912496913E+02  0.24791203818E+02  0.00000000000E+00 0.  1.
          5    1    3    3  501    0 -0.42450160128E+02 -0.43803097155E+02  0.16007169375E+02  0.63201497503E+02  0.41800000000E+01 0.  1.
         -5    1    3    3    0  501 -0.35823697818E+02 -0.27772143099E+02 -0.12679147457E+03  0.13471517985E+03  0.41800000000E+01 0.  1.
</event>
<event>
11    1  0.2450992E-009  0.3889544E+03  0.7561462E-02  0.9682923E-01
         22   -1    0    0    0    0  0.00000000000E+00  0.00000000000E+00  0.58916205117E+03  0.58916205117E+03  0.00000000000E+00 0. -1.
         22   -1    0    0    0    0 -0.00000000000E+00 -0.00000000000E+00 -0.63071964671E+03  0.63071964671E+03  0.00000000000E+00 0. -1.
         25    2    1    2    0    0  0.38038428142E+03  0.12532956885E+02 -0.35447536196E+03  0.53492699209E+03  0.12507928714E+03 0.  0.
        -24    2    1    2    0    0 -0.34713154366E+02  0.11693674982E+03 -0.56040216991E+02  0.15704190617E+03  0.81501213654E+02 0.  0.
         24    2    1    2    0    0 -0.34567112706E+03 -0.12946970670E+03  0.36895798341E+03  0.52791279961E+03  0.79441786464E+02 0.  0.
        -13    1    5    5    0    0 -0.12724149236E+03 -0.73295940065E+02  0.10388444239E+03  0.17987403809E+03  0.00000000000E+00 0.  1.
         14    1    5    5    0    0 -0.21842963470E+03 -0.56173766640E+02  0.26507354103E+03  0.34803876153E+03  0.00000000000E+00 0. -1.
         11    1    4    4    0    0  0.20439614156E+02  0.11785206095E+02 -0.24869885604E+02  0.34280900214E+02  0.00000000000E+00 0. -1.
        -12    1    4    4    0    0 -0.55152768522E+02  0.10515154372E+03 -0.31170331388E+02  0.12276100595E+03  0.00000000000E+00 0.  1.
          5    1    3    3  501    0  0.39685582005E+02  0.35977841126E+02 -0.81941997839E+02  0.97986294353E+02  0.41800000000E+01 0.  1.
         -5    1    3    3    0  501  0.34069869942E+03 -0.23444884241E+02 -0.27253336412E+03  0.43694069774E+03  0.41800000000E+01 0.  1.
</event>
<event>
11    1  0.2450992E-009  0.2527254E+03  0.7561462E-02  0.1022457E+00
         22   -1    0    0    0    0  0.00000000000E+00  0.00000000000E+00  0.25864423710E+03  0.25864423710E+03  0.00000000000E+00 0.  1.
         22   -1    0    0    0    0 -0.00000000000E+00 -0.00000000000E+00 -0.34325389408E+04  0.34325389408E+04  0.00000000000E+00 0. -1.
         25    2    1    2    0    0 -0.13547092385E+03 -0.13513967142E+03 -0.22311986260E+04  0.22428797606E+04  0.12508880871E+03 0.  0.
        -24    2    1    2    0    0  0.27100829815E+03  0.26603211686E+03 -0.11145393943E+04  0.11807703888E+04  0.88329297175E+02 0.  0.
         24    2    1    2    0    0 -0.13553737430E+03 -0.13089244544E+03  0.17184331650E+03  0.26753302855E+03  0.80873876085E+02 0.  0.
        -13    1    5    5    0    0 -0.12488903904E+03 -0.13733871177E+03  0.17453554442E+03  0.25479766500E+03  0.00000000000E+00 0.  1.
         14    1    5    5    0    0 -0.10648335256E+02  0.64462663364E+01 -0.26922279205E+01  0.12735363543E+02  0.00000000000E+00 0. -1.
         13    1    4    4    0    0  0.12000521757E+03  0.11763751759E+03 -0.62938695781E+03  0.65143516980E+03  0.00000000000E+00 0. -1.
        -14    1    4    4    0    0  0.15100308057E+03  0.14839459927E+03 -0.48515243645E+03  0.52933521895E+03  0.00000000000E+00 0.  1.
          5    1    3    3  501    0  0.21305895509E+02 -0.11411390292E+01 -0.26473135405E+03  0.26562267524E+03  0.41800000000E+01 0. -1.
         -5    1    3    3    0  501 -0.15677681935E+03 -0.13399853239E+03 -0.19664672719E+04  0.19772570854E+04  0.41800000000E+01 0. -1.
</event>
<event>
11    1  0.2748558E-009  0.8394144E+03  0.7561462E-02  0.8848823E-01
         22   -1    0    0    0    0  0.00000000000E+00  0.00000000000E+00  0.12154717325E+04  0.12154717325E+04  0.00000000000E+00 0. -1.
         22   -1    0    0    0    0 -0.00000000000E+00 -0.00000000000E+00 -0.22352978197E+04  0.22352978197E+04  0.00000000000E+00 0. -1.
         25    2    1    2    0    0 -0.55868902473E+03 -0.61556243501E+03 -0.19597872298E+04  0.21324783344E+04  0.12508925973E+03 0.  0.
        -24    2    1    2    0    0  0.59360996587E+03  0.56222415187E+03  0.83807843274E+03  0.11735354768E+04  0.79632074855E+02 0.  0.
         24    2    1    2    0    0 -0.34920941143E+02  0.53338283137E+02  0.10188270991E+03  0.14475574099E+03  0.80682670964E+02 0.  0.
        -13    1    5    5    0    0  0.14879618920E+02 -0.12092718429E+02  0.29640029441E+02  0.35301108247E+02  0.00000000000E+00 0.  1.
         14    1    5    5    0    0 -0.49800560064E+02  0.65431001566E+02  0.72242680469E+02  0.10945463275E+03  0.00000000000E+00 0. -1.
         11    1    4    4    0    0  0.47655745683E+03  0.40578556744E+03  0.62840867147E+03  0.88694215978E+03  0.00000000000E+00 0. -1.
        -12    1    4    4    0    0  0.11705250904E+03  0.15643858443E+03  0.20966976127E+03  0.28659331702E+03  0.00000000000E+00 0.  1.
          5    1    3    3  501    0 -0.47945940216E+03 -0.58286051207E+03 -0.17696241530E+04  0.19238489572E+04  0.41800000000E+01 0.  1.
         -5    1    3    3    0  501 -0.79229622565E+02 -0.32701922935E+02 -0.19016307685E+03  0.20862937725E+03  0.41800000000E+01 0.  1.
</event>
<event>
11    1  0.2450992E-009  0.1681887E+03  0.7561462E-02  0.1079619E+00
         22   -1    0    0    0    0  0.00000000000E+00  0.00000000000E+00  0.56609969688E+03  0.56609969688E+03  0.00000000000E+00 0.  1.
         22   -1    0    0    0    0 -0.00000000000E+00 -0.00000000000E+00 -0.29227483205E+03  0.29227483205E+03  0.00000000000E+00 0.  1.
         25    2    1    2    0    0 -0.10832293870E+03  0.27890371489E+02 -0.23725289743E+03  0.29060332345E+03  0.12509845079E+03 0.  0.
         24    2    1    2    0    0  0.12463925268E+03 -0.77390841350E+00  0.40063855041E+03  0.42725823544E+03  0.80639998960E+02 0.  0.
        -24    2    1    2    0    0 -0.16316313977E+02 -0.27116463075E+02  0.11043921185E+03  0.14051297004E+03  0.80904576907E+02 0.  0.
        -13    1    4    4    0    0  0.92453450439E+02  0.35576582226E+02  0.24676385809E+03  0.26590550081E+03  0.00000000000E+00 0.  1.
         14    1    4    4    0    0  0.32185802237E+02 -0.36350490640E+02  0.15387469232E+03  0.16135273463E+03  0.00000000000E+00 0. -1.
         11    1    5    5    0    0 -0.60044662508E+01  0.25938271434E+02  0.63769628928E+02  0.69104363926E+02  0.00000000000E+00 0. -1.
        -12    1    5    5    0    0 -0.10311847726E+02 -0.53054734509E+02  0.46669582922E+02  0.71408606116E+02  0.00000000000E+00 0.  1.
          5    1    3    3  501    0 -0.48243226516E+02  0.14506513064E+02 -0.55807504239E+01  0.50857300373E+02  0.41800000000E+01 0.  1.
         -5    1    3    3    0  501 -0.60079712182E+02  0.13383858425E+02 -0.23167214701E+03  0.23974602308E+03  0.41800000000E+01 0.  1.
</event>
<event>
11    1  0.2450992E-009  0.8826301E+03  0.7561462E-02  0.8799437E-01
         22   -1    0    0    0    0  0.00000000000E+00  0.00000000000E+00  0.15850656397E+04  0.15850656397E+04  0.00000000000E+00 0.  1.
         22   -1    0    0    0    0 -0.00000000000E+00 -0.00000000000E+00 -0.83103366772E+03  0.83103366772E+03  0.00000000000E+00 0.  1.
         25    2    1    2    0    0  0.20054541796E+03  0.83025617215E+03 -0.27013311831E+03  0.90452331013E+03  0.12508693338E+03 0.  0.
         24    2    1    2    0    0 -0.10966689814E+03 -0.93672426046E+03  0.82580329172E+03  0.12560997580E+04  0.79726763554E+02 0.  0.
        -24    2    1    2    0    0 -0.90878519826E+02  0.10646808831E+03  0.19836179853E+03  0.25547623923E+03  0.79538333511E+02 0.  0.
        -13    1    4    4    0    0 -0.75106271551E+02 -0.32364973424E+03  0.30194003082E+03  0.44895198486E+03  0.00000000000E+00 0.  1.
         14    1    4    4    0    0 -0.34560626585E+02 -0.61307452622E+03  0.52386326090E+03  0.80714777317E+03  0.00000000000E+00 0. -1.
         13    1    5    5    0    0 -0.73346869080E+02  0.10577229242E+03  0.20001622136E+03  0.23785295847E+03  0.00000000000E+00 0. -1.
        -14    1    5    5    0    0 -0.17531650746E+02  0.69579589153E+00 -0.16544228210E+01  0.17623280758E+02  0.00000000000E+00 0.  1.
          5    1    3    3  501    0  0.18801600937E+03  0.57157431296E+03 -0.22014476354E+03  0.64072490535E+03  0.41800000000E+01 0.  1.
         -5    1    3    3    0  501  0.12529408587E+02  0.25868185919E+03 -0.49988354765E+02  0.26379840478E+03  0.41800000000E+01 0.  1.
</event>
<event>
11    1  0.2450992E-009  0.1786934E+03  0.7561462E-02  0.1070705E+00
         22   -1    0    0    0    0  0.00000000000E+00  0.00000000000E+00  0.36396661592E+02  0.36396661592E+02  0.00000000000E+00 0.  1.
         22   -1    0    0    0    0 -0.00000000000E+00 -0.00000000000E+00 -0.20964627906E+04  0.20964627906E+04  0.00000000000E+00 0. -1.
         25    2    1    2    0    0  0.33022846698E+01 -0.13105045628E+03 -0.15094749865E+04  0.15203116617E+04  0.12509071393E+03 0.  0.
        -24    2    1    2    0    0  0.69053239551E+02  0.11194498570E+03 -0.27289894361E+03  0.31393984346E+03  0.82367239678E+02 0.  0.
         24    2    1    2    0    0 -0.72355524221E+02  0.19105470587E+02 -0.27769219891E+03  0.29860794703E+03  0.80333105262E+02 0.  0.
        -13    1    5    5    0    0 -0.61631082482E+02  0.16033222231E+02 -0.28005537290E+03  0.28720457245E+03  0.00000000000E+00 0.  1.
         14    1    5    5    0    0 -0.10724441739E+02  0.30722483562E+01  0.23631739900E+01  0.11403374583E+02  0.00000000000E+00 0. -1.
         13    1    4    4    0    0 -0.17650845047E+02  0.10803977655E+02 -0.52176762037E+02  0.56131032065E+02  0.00000000000E+00 0. -1.
        -14    1    4    4    0    0  0.86704084598E+02  0.10114100804E+03 -0.22072218157E+03  0.25780881139E+03  0.00000000000E+00 0.  1.
          5    1    3    3  501    0  0.50247659611E+02 -0.31815192676E+02 -0.81741181114E+03  0.81958317160E+03  0.41800000000E+01 0.  1.
         -5    1    3    3    0  501 -0.46945374941E+02 -0.99235263607E+02 -0.69206317531E+03  0.70072849007E+03  0.41800000000E+01 0.  1.
</event>
<event>
11    1  0.2450992E-009  0.1715803E+03  0.7561462E-02  0.1076665E+00
         22   -1    0    0    0    0  0.00000000000E+00  0.00000000000E+00  0.74962081515E+03  0.74962081515E+03  0.00000000000E+00 0. -1.
         22   -1    0    0    0    0 -0.00000000000E+00 -0.00000000000E+00 -0.94630117668E+02  0.94630117668E+02  0.00000000000E+00 0. -1.
         25    2    1    2    0    0  0.64637521731E+02 -0.31178024431E+02  0.12699298858E+03  0.19215842719E+03  0.12509022171E+03 0.  0.
         24    2    1    2    0    0 -0.14625971275E+03  0.13469193981E+03  0.22020412350E+03  0.30757435477E+03  0.81106753627E+02 0.  0.
        -24    2    1    2    0    0  0.81622191016E+02 -0.10351391538E+03  0.30779358540E+03  0.34451815085E+03  0.81108275233E+02 0.  0.
        -13    1    4    4    0    0 -0.16764782392E+02  0.15498291396E+02  0.78095697910E+02  0.81364568437E+02  0.00000000000E+00 0.  1.
         14    1    4    4    0    0 -0.12949493035E+03  0.11919364841E+03  0.14210842559E+03  0.22620978633E+03  0.00000000000E+00 0. -1.
         13    1    5    5    0    0  0.68570102065E+02 -0.48309573719E+02  0.24931372591E+03  0.26304563813E+03  0.00000000000E+00 0. -1.
        -14    1    5    5    0    0  0.13052088950E+02 -0.55204341661E+02  0.58479859488E+02  0.81472512726E+02  0.00000000000E+00 0.  1.
          5    1    3    3  501    0  0.22925667523E+02  0.45275341144E+02  0.74963563944E+02  0.90622574816E+02  0.41800000000E+01 0.  1.
         -5    1    3    3    0  501  0.41711854208E+02 -0.76453365575E+02  0.52029424637E+02  0.10153585237E+03  0.41800000000E+01 0.  1.
</event>
<event>
11    1  0.2450992E-009  0.1296142E+03  0.7561462E-02  0.1119744E+00
         22   -1    0    0    0    0  0.00000000000E+00  0.00000000000E+00  0.68076978816E+03  0.68076978816E+03  0.00000000000E+00 0.  1.
         22   -1    0    0    0    0 -0.00000000000E+00 -0.00000000000E+00 -0.93353347929E+02  0.93353347929E+02  0.00000000000E+00 0. -1.
         25    2    1    2    0    0 -0.17621869079E+02 -0.15364986350E+02  0.20522991616E+01  0.12726480361E+03  0.12508199403E+03 0.  0.
         24    2    1    2    0    0 -0.99505562159E+02  0.23400317996E+02  0.20826089438E+03  0.24388706010E+03  0.75228758942E+02 0.  0.
        -24    2    1    2    0    0  0.11712743124E+03 -0.80353316459E+01  0.37710324669E+03  0.40297127238E+03  0.79972407712E+02 0.  0.
        -11    1    4    4    0    0 -0.76885865477E+02 -0.18211314367E+02  0.14089990607E+03  0.16154216729E+03  0.00000000000E+00 0.  1.
         12    1    4    4    0    0 -0.22619696681E+02  0.41611632363E+02  0.67360988312E+02  0.82344892812E+02  0.00000000000E+00 0. -1.
         13    1    5    5    0    0  0.10637068890E+03  0.13619809195E+02  0.22849486993E+03  0.25240865327E+03  0.00000000000E+00 0. -1.
        -14    1    5    5    0    0  0.10756742336E+02 -0.21655140841E+02  0.14860837675E+03  0.15056261910E+03  0.00000000000E+00 0.  1.
          5    1    3    3  501    0  0.54944837632E+01 -0.46354472392E+02  0.47990054575E+02  0.67077896514E+02  0.41800000000E+01 0. -1.
         -5    1    3    3    0  501 -0.23116352842E+02  0.30989486042E+02 -0.45937755413E+02  0.60186907100E+02  0.41800000000E+01 0. -1.
</event>
<event>
11    1  0.2450992E-009  0.5096921E+03  0.7561462E-02  0.9372121E-01
         22   -1    0    0    0    0  0.00000000000E+00  0.00000000000E+00  0.41648303426E+03  0.41648303426E+03  0.00000000000E+00 0. -1.
         22   -1    0    0    0    0 -0.00000000000E+00 -0.00000000000E+00 -0.20223981918E+04  0.20223981918E+04  0.00000000000E+00 0. -1.
         25    2    1    2    0    0 -0.18017364901E+03 -0.29992015199E+03 -0.13640715072E+04  0.14137727549E+04  0.12509070456E+03 0.  0.
        -24    2    1    2    0    0 -0.19661916686E+03 -0.51221293543E+02 -0.42134410236E+03  0.47435931616E+03  0.78760336151E+02 0.  0.
         24    2    1    2    0    0  0.37679281587E+03  0.35114144553E+03  0.17950045206E+03  0.55074915497E+03  0.76361499198E+02 0.  0.
        -13    1    5    5    0    0  0.15238976520E+03  0.10186955571E+03  0.86540477259E+02  0.20270496078E+03  0.00000000000E+00 0.  1.
         14    1    5    5    0    0  0.22440305066E+03  0.24927188982E+03  0.92959974798E+02  0.34804419419E+03  0.00000000000E+00 0. -1.
         11    1    4    4    0    0 -0.15313092330E+03 -0.72494116027E+02 -0.32240383876E+03  0.36420970851E+03  0.00000000000E+00 0. -1.
        -12    1    4    4    0    0 -0.43488243553E+02  0.21272822484E+02 -0.98940263599E+02  0.11014960765E+03  0.00000000000E+00 0.  1.
          5    1    3    3  501    0  0.28192593686E+01  0.53846979346E+01 -0.10751342430E+03  0.10776619135E+03  0.41800000000E+01 0. -1.
         -5    1    3    3    0  501 -0.18299290838E+03 -0.30530484992E+03 -0.12565580829E+04  0.13060065636E+04  0.41800000000E+01 0. -1.
</event>
<event>
11    1  0.2450992E-009  0.1326746E+03  0.7561462E-02  0.1116026E+00
         22   -1    0    0    0    0  0.00000000000E+00  0.00000000000E+00  0.15933415736E+04  0.15933415736E+04  0.00000000000E+00 0.  1.
         22   -1    0    0    0    0 -0.00000000000E+00 -0.00000000000E+00 -0.33466397918E+02  0.33466397918E+02  0.00000000000E+00 0.  1.
         25    2    1    2    0    0 -0.31810378142E+02  0.31749514537E+02  0.14978402057E+03  0.20025915557E+03  0.12509414352E+03 0.  0.
         24    2    1    2    0    0  0.41477001075E+02 -0.17489776532E+02  0.30791530321E+03  0.32096492493E+03  0.78615616673E+02 0.  0.
        -24    2    1    2    0    0 -0.96666229328E+01 -0.14259738006E+02  0.11021758519E+04  0.11055838910E+04  0.85013809565E+02 0.  0.
        -13    1    4    4    0    0  0.14482095209E+02 -0.47597230901E+02  0.18472940201E+03  0.19131173367E+03  0.00000000000E+00 0.  1.
         14    1    4    4    0    0  0.26994905867E+02  0.30107454369E+02  0.12318590120E+03  0.12965319127E+03  0.00000000000E+00 0. -1.
         13    1    5    5    0    0 -0.32643520167E+02 -0.33677176048E+02  0.39603635347E+03  0.39880389274E+03  0.00000000000E+00 0. -1.
        -14    1    5    5    0    0  0.22976897234E+02  0.19417438043E+02  0.70613949843E+03  0.70677999826E+03  0.00000000000E+00 0.  1.
          5    1    3    3  501    0 -0.55562309247E+01  0.33438022050E+02 -0.12073282124E+02  0.36224433218E+02  0.41800000000E+01 0.  1.
         -5    1    3    3    0  501 -0.26254147218E+02 -0.16885075124E+01  0.16185730269E+03  0.16403472236E+03  0.41800000000E+01 0.  1.
</event>
<event>
11    1  0.2450992E-009  0.1262727E+03  0.7561462E-02  0.1123935E+00
         22   -1    0    0    0    0  0.00000000000E+00  0.00000000000E+00  0.24531682131E+03  0.24531682131E+03  0.00000000000E+00 0. -1.
         22   -1    0    0    0    0 -0.00000000000E+00 -0.00000000000E+00 -0.91095220471E+02  0.91095220471E+02  0.00000000000E+00 0. -1.
         25    2    1    2    0    0  0.13543142710E+02 -0.93429403555E+01  0.70299697466E+02  0.14442932613E+03  0.12508827097E+03 0.  0.
         24    2    1    2    0    0 -0.47734645181E+01  0.18218091086E+02  0.79820277733E+01  0.81327669230E+02  0.78713354703E+02 0.  0.
        -24    2    1    2    0    0 -0.87696781920E+01 -0.88751507308E+01  0.75939875604E+02  0.11065504643E+03  0.79510999470E+02 0.  0.
        -11    1    4    4    0    0  0.13369811567E+02 -0.27516197434E+02  0.97079284795E+01  0.32095745168E+02  0.00000000000E+00 0.  1.
         12    1    4    4    0    0 -0.18143276085E+02  0.45734288520E+02 -0.17259007062E+01  0.49231924061E+02  0.00000000000E+00 0. -1.
         11    1    5    5    0    0  0.11110789914E+02  0.21139297261E+02  0.70260794564E+02  0.74208481954E+02  0.00000000000E+00 0. -1.
        -12    1    5    5    0    0 -0.19880468106E+02 -0.30014447992E+02  0.56790810405E+01  0.36446564472E+02  0.00000000000E+00 0.  1.
          5    1    3    3  501    0 -0.38732095519E+02  0.20279012833E+02 -0.90181315207E+01  0.44835395402E+02  0.41800000000E+01 0. -1.
         -5    1    3    3    0  501  0.52275238229E+02 -0.29621953188E+02  0.79317828987E+02  0.99593930728E+02  0.41800000000E+01 0. -1.
</event>
<event>
11    1  0.2450992E-009  0.1366624E+03  0.7561462E-02  0.1111344E+00
         22   -1    0    0    0    0  0.00000000000E+00  0.00000000000E+00  0.16587229568E+03  0.16587229568E+03  0.00000000000E+00 0. -1.
         22   -1    0    0    0    0 -0.00000000000E+00 -0.00000000000E+00 -0.11522668516E+04  0.11522668516E+04  0.00000000000E+00 0. -1.
         25    2    1    2    0    0 -0.67426237459E+02  0.19472686253E+01 -0.62235840358E+03  0.63837717969E+03  0.12508138023E+03 0.  0.
        -24    2    1    2    0    0  0.46424325566E+02 -0.17751840819E+02 -0.50669032654E+03  0.51511811832E+03  0.78366082964E+02 0.  0.
         24    2    1    2    0    0  0.21001911894E+02  0.15804572194E+02  0.14265417418E+03  0.16464384930E+03  0.77887861043E+02 0.  0.
        -13    1    5    5    0    0 -0.99851996161E+01  0.21290009455E+02  0.58024242581E+01  0.24220587137E+02  0.00000000000E+00 0.  1.
         14    1    5    5    0    0  0.30987111510E+02 -0.54854372616E+01  0.13685174992E+03  0.14042326217E+03  0.00000000000E+00 0. -1.
         13    1    4    4    0    0  0.39531564865E+02  0.23915431302E+02 -0.34164053697E+03  0.34475056051E+03  0.00000000000E+00 0. -1.
        -14    1    4    4    0    0  0.68927607005E+01 -0.41667272121E+02 -0.16504978957E+03  0.17036755781E+03  0.00000000000E+00 0.  1.
          5    1    3    3  501    0 -0.15394062953E+02 -0.51003602093E+02 -0.40809282345E+03  0.41157693030E+03  0.41800000000E+01 0. -1.
         -5    1    3    3    0  501 -0.52032174507E+02  0.52950870718E+02 -0.21426558013E+03  0.22680024939E+03  0.41800000000E+01 0. -1.
</event>
<event>
11    1  0.2450992E-009  0.1462474E+03  0.7561462E-02  0.1100776E+00
         22   -1    0    0    0    0  0.00000000000E+00  0.00000000000E+00  0.80966546319E+03  0.80966546319E+03  0.00000000000E+00 0. -1.
         22   -1    0    0    0    0 -0.00000000000E+00 -0.00000000000E+00 -0.52931335306E+02  0.52931335306E+02  0.00000000000E+00 0. -1.
         25    2    1    2    0    0 -0.67799876056E+02 -0.45696810560E+02  0.23379707568E+03  0.27747703952E+03  0.12508962058E+03 0.  0.
         24    2    1    2    0    0  0.75766655229E+02  0.72144610672E+01  0.91641533167E+02  0.14473288065E+03  0.82199766700E+02 0.  0.
        -24    2    1    2    0    0 -0.79667791728E+01  0.38482349492E+02  0.43129551904E+03  0.44038687833E+03  0.79877512914E+02 0.  0.
        -13    1    4    4    0    0  0.16020045717E+02 -0.33949356763E+02  0.44452852708E+02  0.58182959733E+02  0.00000000000E+00 0.  1.
         14    1    4    4    0    0  0.59746609512E+02  0.41163817830E+02  0.47188680459E+02  0.86549920913E+02  0.00000000000E+00 0. -1.
         11    1    5    5    0    0  0.53107418988E+01  0.50570369267E+02  0.40706435570E+03  0.41022793165E+03  0.00000000000E+00 0. -1.
        -12    1    5    5    0    0 -0.13277521072E+02 -0.12088019775E+02  0.24231163340E+02  0.30158946677E+02  0.00000000000E+00 0.  1.
          5    1    3    3  501    0 -0.41161248852E+02 -0.59183400373E+02  0.42438822180E+02  0.83758279082E+02  0.41800000000E+01 0.  1.
         -5    1    3    3    0  501 -0.26638627204E+02  0.13486589813E+02  0.19135825350E+03  0.19371876044E+03  0.41800000000E+01 0.  1.
</event>
<event>
11    1  0.2450992E-009  0.2597692E+03  0.7561462E-02  0.1018820E+00
         22   -1    0    0    0    0  0.00000000000E+00  0.00000000000E+00  0.15970483141E+04  0.15970483141E+04  0.00000000000E+00 0. -1.
         22   -1    0    0    0    0 -0.00000000000E+00 -0.00000000000E+00 -0.10055872068E+03  0.10055872068E+03  0.00000000000E+00 0. -1.
         25    2    1    2    0    0 -0.23854370950E+03 -0.14733219593E+03  0.26814253257E+03  0.40762465813E+03  0.12509023481E+03 0.  0.
         24    2    1    2    0    0  0.16303679313E+03  0.59098658620E+02  0.33751163013E+03  0.38779591842E+03  0.79987039605E+02 0.  0.
        -24    2    1    2    0    0  0.75506916366E+02  0.88233537307E+02  0.89083543071E+03  0.90218645822E+03  0.82862471956E+02 0.  0.
        -13    1    4    4    0    0  0.36636672278E+02  0.39896976890E+02  0.16084485744E+03  0.16972060183E+03  0.00000000000E+00 0.  1.
         14    1    4    4    0    0  0.12640012086E+03  0.19201681730E+02  0.17666677269E+03  0.21807531659E+03  0.00000000000E+00 0. -1.
         11    1    5    5    0    0  0.41845923639E+02  0.93676758558E+02  0.76357605084E+03  0.77043805840E+03  0.00000000000E+00 0. -1.
        -12    1    5    5    0    0  0.33660992727E+02 -0.54432212515E+01  0.12725937987E+03  0.13174839982E+03  0.00000000000E+00 0.  1.
          5    1    3    3  501    0 -0.21770271403E+03 -0.73131368099E+02  0.19544436517E+03  0.30159350287E+03  0.41800000000E+01 0. -1.
         -5    1    3    3    0  501 -0.20840995467E+02 -0.74200827827E+02  0.72698167408E+02  0.10603115526E+03  0.41800000000E+01 0. -1.
</event>
<event>
11    1  0.2450992E-009  0.1497287E+03  0.7561462E-02  0.1097156E+00
         22   -1    0    0    0    0  0.00000000000E+00  0.00000000000E+00  0.19077718876E+04  0.19077718876E+04  0.00000000000E+00 0. -1.
         22   -1    0    0    0    0 -0.00000000000E+00 -0.00000000000E+00 -0.29726242196E+03  0.29726242196E+03  0.00000000000E+00 0.  1.
         25    2    1    2    0    0 -0.83799127563E+02  0.20210952553E+02 -0.25286641297E+03  0.29499002080E+03  0.12508762200E+03 0.  0.
        -24    2    1    2    0    0  0.19713102808E+01 -0.28995825316E+02  0.60167071000E+02  0.10318838989E+03  0.78632839362E+02 0.  0.
         24    2    1    2    0    0  0.81827817283E+02  0.87848727629E+01  0.18032088076E+04  0.18068558989E+04  0.79957925129E+02 0.  0.
        -13    1    5    5    0    0  0.84060983207E+02  0.54788450158E+00  0.97886972125E+03  0.98247263588E+03  0.00000000000E+00 0.  1.
         14    1    5    5    0    0 -0.22331659243E+01  0.82369882613E+01  0.82433908635E+03  0.82438326299E+03  0.00000000000E+00 0. -1.
         11    1    4    4    0    0 -0.18899093647E+02  0.16623573531E+02  0.43623963983E+02  0.50364364100E+02  0.00000000000E+00 0. -1.
        -12    1    4    4    0    0  0.20870403928E+02 -0.45619398847E+02  0.16543107017E+02  0.52824025794E+02  0.00000000000E+00 0.  1.
          5    1    3    3  501    0  0.30375068948E+02  0.15531687982E+02 -0.86860105952E+02  0.93413214008E+02  0.41800000000E+01 0.  1.
         -5    1    3    3    0  501 -0.11417419651E+03  0.46792645712E+01 -0.16600630702E+03  0.20157680679E+03  0.41800000000E+01 0.  1.
</event>
<event>
11    1  0.2450992E-009  0.1272189E+03  0.7561462E-02  0.1122734E+00
         22   -1    0    0    0    0  0.00000000000E+00  0.00000000000E+00  0.13544600520E+04  0.13544600520E+04  0.00000000000E+00 0. -1.
         22   -1    0    0    0    0 -0.00000000000E+00 -0.00000000000E+00 -0.44737475214E+02  0.44737475214E+02  0.00000000000E+00 0. -1.
         25    2    1    2    0    0  0.25137576794E+02  0.13523193284E+02  0.15270168369E+03  0.19944918986E+03  0.12508957035E+03 0.  0.
        -24    2    1    2    0    0  0.64291069920E-01  0.47988025576E+02  0.12592918574E+03  0.16360508318E+03  0.92766420057E+02 0.  0.
         24    2    1    2    0    0 -0.25201867864E+02 -0.61511218860E+02  0.10310917074E+04  0.10361432542E+04  0.77614238359E+02 0.  0.
        -11    1    5    5    0    0  0.11979543635E+02  0.52157816003E+00  0.28151486717E+02  0.30598818831E+02  0.00000000000E+00 0.  1.
         12    1    5    5    0    0 -0.37181411499E+02 -0.62032797020E+02  0.10029402207E+04  0.10055444354E+04  0.00000000000E+00 0. -1.
         13    1    4    4    0    0 -0.35974908830E+02  0.45126230316E+02  0.39542127667E+02  0.69958206011E+02  0.00000000000E+00 0. -1.
        -14    1    4    4    0    0  0.36039199900E+02  0.28617952603E+01  0.86387058073E+02  0.93646877172E+02  0.00000000000E+00 0.  1.
          5    1    3    3  501    0  0.28363542962E+01 -0.15468903522E+01  0.16808437677E+03  0.16816738057E+03  0.41800000000E+01 0.  1.
         -5    1    3    3    0  501  0.22301222498E+02  0.15070083636E+02 -0.15382693080E+02  0.31281809284E+02  0.41800000000E+01 0.  1.
</event>
<event>
11    1  0.2450992E-009  0.1422743E+03  0.7561462E-02  0.1105045E+00
         22   -1    0    0    0    0  0.00000000000E+00  0.00000000000E+00  0.10180494248E+03  0.10180494248E+03  0.00000000000E+00 0.  1.
         22   -1    0    0    0    0 -0.00000000000E+00 -0.00000000000E+00 -0.54398043108E+03  0.54398043108E+03  0.00000000000E+00 0.  1.
         25    2    1    2    0    0 -0.38839565952E+02 -0.43150371580E+02 -0.27172589033E+03  0.30471934777E+03  0.12509378472E+03 0.  0.
        -24    2    1    2    0    0  0.40323910636E+02  0.64430034568E+02 -0.21819076810E+03  0.24465883544E+03  0.80457984991E+02 0.  0.
         24    2    1    2    0    0 -0.14843446842E+01 -0.21279662988E+02  0.47741169834E+02  0.96407190353E+02  0.80994442517E+02 0.  0.
        -11    1    5    5    0    0  0.27813797952E+01 -0.60765152867E+01  0.69334830785E+02  0.69656147407E+02  0.00000000000E+00 0.  1.
         12    1    5    5    0    0 -0.42657244794E+01 -0.15203147701E+02 -0.21593660952E+02  0.26751042945E+02  0.00000000000E+00 0. -1.
         13    1    4    4    0    0  0.16393224490E+02 -0.17590779694E+02 -0.34305019911E+02  0.41892812397E+02  0.00000000000E+00 0. -1.
        -14    1    4    4    0    0  0.23930686146E+02  0.82020814262E+02 -0.18388574819E+03  0.20276602304E+03  0.00000000000E+00 0.  1.
          5    1    3    3  501    0  0.43666065569E+02 -0.26933573546E+02 -0.13076682585E+03  0.14053319113E+03  0.41800000000E+01 0. -1.
         -5    1    3    3    0  501 -0.82505631521E+02 -0.16216798034E+02 -0.14095906448E+03  0.16418615664E+03  0.41800000000E+01 0. -1.
</event>
<event>
11    1  0.2450992E-009  0.1933124E+03  0.7561462E-02  0.1059356E+00
         22   -1    0    0    0    0  0.00000000000E+00  0.00000000000E+00  0.92029237667E+03  0.92029237667E+03  0.00000000000E+00 0.  1.
         22   -1    0    0    0    0 -0.00000000000E+00 -0.00000000000E+00 -0.17096375386E+03  0.17096375386E+03  0.00000000000E+00 0.  1.
         25    2    1    2    0    0 -0.14286893695E+03  0.51769045007E+01 -0.38586309815E+02  0.19384192945E+03  0.12508979504E+03 0.  0.
        -24    2    1    2    0    0  0.15511100428E+03 -0.19068334665E+02  0.97399195904E+02  0.20189607864E+03  0.82779213399E+02 0.  0.
         24    2    1    2    0    0 -0.12242067333E+02  0.13891430164E+02  0.69051573672E+03  0.69551812244E+03  0.81182731773E+02 0.  0.
        -13    1    5    5    0    0 -0.50295020782E+00  0.18463576636E+02  0.32500797731E+02  0.37382595874E+02  0.00000000000E+00 0.  1.
         14    1    5    5    0    0 -0.11739117125E+02 -0.45721464721E+01  0.65801493899E+03  0.65813552656E+03  0.00000000000E+00 0. -1.
         11    1    4    4    0    0  0.16498102823E+03 -0.21132723059E+02  0.94937975515E+02  0.19151645061E+03  0.00000000000E+00 0. -1.
        -12    1    4    4    0    0 -0.98700239485E+01  0.20643883948E+01  0.24612203888E+01  0.10379628028E+02  0.00000000000E+00 0.  1.
          5    1    3    3  501    0 -0.13802000883E+03  0.48322918174E+02 -0.27854123775E+02  0.14892263720E+03  0.41800000000E+01 0. -1.
         -5    1    3    3    0  501 -0.48489281210E+01 -0.43146013673E+02 -0.10732186040E+02  0.44919292258E+02  0.41800000000E+01 0. -1.
</event>
<event>
11    1  0.2450992E-009  0.4867409E+03  0.7561462E-02  0.9423647E-01
         22   -1    0    0    0    0  0.00000000000E+00  0.00000000000E+00  0.29416167961E+04  0.29416167961E+04  0.00000000000E+00 0.  1.
         22   -1    0    0    0    0 -0.00000000000E+00 -0.00000000000E+00 -0.21174778660E+03  0.21174778660E+03  0.00000000000E+00 0.  1.
         25    2    1    2    0    0  0.95340865909E+02  0.13172985469E+03  0.14683319808E+03  0.25229340074E+03  0.12509730880E+03 0.  0.
        -24    2    1    2    0    0 -0.28019602295E+03  0.32611847648E+03  0.22764465087E+03  0.49314072962E+03  0.80638825381E+02 0.  0.
         24    2    1    2    0    0  0.18485515705E+03 -0.45784833116E+03  0.23553911606E+04  0.24079304523E+04  0.80405352238E+02 0.  0.
        -13    1    5    5    0    0  0.16952910468E+03 -0.42723825427E+03  0.20655108236E+04  0.21160358233E+04  0.00000000000E+00 0.  1.
         14    1    5    5    0    0  0.15326052364E+02 -0.30610076896E+02  0.28988033699E+03  0.29189462903E+03  0.00000000000E+00 0. -1.
         13    1    4    4    0    0 -0.40237092656E+02  0.39450066952E+02  0.18092192375E+01  0.56379115656E+02  0.00000000000E+00 0. -1.
        -14    1    4    4    0    0 -0.23995893030E+03  0.28666840953E+03  0.22583543163E+03  0.43676161396E+03  0.00000000000E+00 0.  1.
          5    1    3    3  501    0  0.33012248959E+02  0.41526002765E+02 -0.16335115419E+02  0.55664404090E+02  0.41800000000E+01 0.  1.
         -5    1    3    3    0  501  0.62328616950E+02  0.90203851922E+02  0.16316831350E+03  0.19662899665E+03  0.41800000000E+01 0.  1.
</event>
<event>
11    1  0.2450992E-009  0.2653742E+03  0.7561462E-02  0.1016014E+00
         22   -1    0    0    0    0  0.00000000000E+00  0.00000000000E+00  0.26065328387E+03  0.26065328387E+03  0.00000000000E+00 0. -1.
         22   -1    0    0    0    0 -0.00000000000E+00 -0.00000000000E+00 -0.64542506009E+03  0.64542506009E+03  0.00000000000E+00 0.  1.
         25    2    1    2    0    0  0.16798980610E+03 -0.11099867584E+03 -0.29615401815E+03  0.37933600199E+03  0.12508924395E+03 0.  0.
         24    2    1    2    0    0 -0.29101534165E+03  0.18507976279E+03 -0.80010356315E+02  0.36192392124E+03  0.75118705907E+02 0.  0.
        -24    2    1    2    0    0  0.12302553555E+03 -0.74081086954E+02 -0.86074017517E+01  0.16481842073E+03  0.80422227069E+02 0.  0.
        -13    1    4    4    0    0 -0.52854271610E+02  0.21156979763E+02  0.12643903144E+02  0.58318608581E+02  0.00000000000E+00 0.  1.
         14    1    4    4    0    0 -0.23816107004E+03  0.16392278303E+03 -0.92654259459E+02  0.30360531266E+03  0.00000000000E+00 0. -1.
         11    1    5    5    0    0  0.11357231491E+03 -0.85059573186E+02 -0.23743313327E+02  0.14386641940E+03  0.00000000000E+00 0. -1.
        -12    1    5    5    0    0  0.94532206371E+01  0.10978486232E+02  0.15135911576E+02  0.20952001327E+02  0.00000000000E+00 0.  1.
          5    1    3    3  501    0  0.17949619300E+03 -0.74583801284E+02 -0.27057655385E+03  0.33318278859E+03  0.41800000000E+01 0.  1.
         -5    1    3    3    0  501 -0.11506386897E+02 -0.36414874554E+02 -0.25577464293E+02  0.46153213408E+02  0.41800000000E+01 0.  1.
</event>
<event>
11    1  0.2450992E-009  0.3482203E+03  0.7561462E-02  0.9816247E-01
         22   -1    0    0    0    0  0.00000000000E+00  0.00000000000E+00  0.15305935569E+04  0.15305935569E+04  0.00000000000E+00 0.  1.
         22   -1    0    0    0    0 -0.00000000000E+00 -0.00000000000E+00 -0.17227915290E+03  0.17227915290E+03  0.00000000000E+00 0.  1.
         25    2    1    2    0    0  0.24879767138E+03  0.14361491663E+03  0.17628926332E+03  0.35951372197E+03  0.12508671534E+03 0.  0.
        -24    2    1    2    0    0 -0.38292877476E+03 -0.16228538157E+03  0.56123134778E+03  0.70321683509E+03  0.81008023128E+02 0.  0.
         24    2    1    2    0    0  0.13413110338E+03  0.18670464933E+02  0.62079379289E+03  0.64014215274E+03  0.77828678940E+02 0.  0.
        -13    1    5    5    0    0  0.74790664901E+02 -0.28485660893E+02  0.34074824409E+03  0.35002063122E+03  0.00000000000E+00 0.  1.
         14    1    5    5    0    0  0.59340438481E+02  0.47156125826E+02  0.28004554880E+03  0.29012152152E+03  0.00000000000E+00 0. -1.
         13    1    4    4    0    0 -0.27693087061E+03 -0.12778455984E+03  0.46420632102E+03  0.55543416289E+03  0.00000000000E+00 0. -1.
        -14    1    4    4    0    0 -0.10599790415E+03 -0.34500821722E+02  0.97025026758E+02  0.14778267220E+03  0.00000000000E+00 0.  1.
          5    1    3    3  501    0  0.13797947080E+03  0.78524120775E+02  0.16720257763E+03  0.23060474035E+03  0.41800000000E+01 0.  1.
         -5    1    3    3    0  501  0.11081820058E+03  0.65090795859E+02  0.90866856980E+01  0.12890898162E+03  0.41800000000E+01 0.  1.
</event>
<event>
11    1  0.2450992E-009  0.1722309E+03  0.7561462E-02  0.1076106E+00
         22   -1    0    0    0    0  0.00000000000E+00  0.00000000000E+00  0.23806827457E+03  0.23806827457E+03  0.00000000000E+00 0. -1.
         22   -1    0    0    0    0 -0.00000000000E+00 -0.00000000000E+00 -0.21638248188E+03  0.21638248188E+03  0.00000000000E+00 0.  1.
         25    2    1    2    0    0 -0.14479102745E+03  0.23224909457E+01  0.13401096903E+02  0.19182626606E+03  0.12509153193E+03 0.  0.
         24    2    1    2    0    0  0.59908098411E+02  0.70744359192E+02 -0.93696761255E+00  0.12221981724E+03  0.79643337475E+02 0.  0.
        -24    2    1    2    0    0  0.84882929036E+02 -0.73066850138E+02  0.92216633993E+01  0.14040467316E+03  0.84169810138E+02 0.  0.
        -13    1    4    4    0    0  0.72740121638E+02  0.78206896591E+02 -0.46898960700E+01  0.10690855483E+03  0.00000000000E+00 0.  1.
         14    1    4    4    0    0 -0.12832023226E+02 -0.74625373992E+01  0.37529284574E+01  0.15311262408E+02  0.00000000000E+00 0. -1.
         13    1    5    5    0    0  0.37181610356E+02 -0.12369212908E+02  0.41187568027E+02  0.56849673144E+02  0.00000000000E+00 0. -1.
        -14    1    5    5    0    0  0.47701318680E+02 -0.60697637230E+02 -0.31965904627E+02  0.83555000017E+02  0.00000000000E+00 0.  1.
          5    1    3    3  501    0  0.11508026826E+02 -0.19007426801E+01  0.31997504740E+02  0.34312682987E+02  0.41800000000E+01 0.  1.
         -5    1    3    3    0  501 -0.15629905427E+03  0.42232336259E+01 -0.18596407836E+02  0.15751358308E+03  0.41800000000E+01 0.  1.
</event>
<event>
11    1  0.2450992E-009  0.2084020E+03  0.7561462E-02  0.1048736E+00
         22   -1    0    0    0    0  0.00000000000E+00  0.00000000000E+00  0.43395138288E+02  0.43395138288E+02  0.00000000000E+00 0.  1.
         22   -1    0    0    0    0 -0.00000000000E+00 -0.00000000000E+00 -0.18502636643E+04  0.18502636643E+04  0.00000000000E+00 0.  1.
         25    2    1    2    0    0  0.33425021690E+02 -0.12989217663E+03 -0.81251316728E+03  0.83295625674E+03  0.12509703838E+03 0.  0.
        -24    2    1    2    0    0 -0.51498153613E+02  0.21213220913E+03 -0.81192670443E+03  0.84433086009E+03  0.77572507719E+02 0.  0.
         24    2    1    2    0    0  0.18073131923E+02 -0.82240032507E+02 -0.18242865429E+03  0.21637168575E+03  0.80289672092E+02 0.  0.
        -13    1    5    5    0    0  0.43073666834E+02 -0.80393149327E+02 -0.13989038736E+03  0.16699616675E+03  0.00000000000E+00 0.  1.
         14    1    5    5    0    0 -0.25000534911E+02 -0.18468831796E+01 -0.42538266933E+02  0.49375519004E+02  0.00000000000E+00 0. -1.
         13    1    4    4    0    0  0.13278167511E+02  0.58786088249E+01 -0.35146988656E+02  0.38028654798E+02  0.00000000000E+00 0. -1.
        -14    1    4    4    0    0 -0.64776321123E+02  0.20625360031E+03 -0.77677971577E+03  0.80630220529E+03  0.00000000000E+00 0.  1.
          5    1    3    3  501    0 -0.16923304074E+02 -0.73341754029E+02 -0.64112219853E+03  0.64553896626E+03  0.41800000000E+01 0.  1.
         -5    1    3    3    0  501  0.50348325764E+02 -0.56550422596E+02 -0.17139096875E+03  0.18741729048E+03  0.41800000000E+01 0.  1.
</event>
<event>
11    1  0.2450992E-009  0.1873771E+03  0.7561462E-02  0.1063827E+00
         22   -1    0    0    0    0  0.00000000000E+00  0.00000000000E+00  0.83217718688E+03  0.83217718688E+03  0.00000000000E+00 0.  1.
         22   -1    0    0    0    0 -0.00000000000E+00 -0.00000000000E+00 -0.12859728009E+04  0.12859728009E+04  0.00000000000E+00 0. -1.
         25    2    1    2    0    0 -0.15453817605E+02  0.11119195632E+03 -0.98056185464E+03  0.99486861367E+03  0.12513806801E+03 0.  0.
        -24    2    1    2    0    0 -0.79095591034E+02 -0.81479791832E+01 -0.27885501553E+03  0.30154821767E+03  0.82756907917E+02 0.  0.
         24    2    1    2    0    0  0.94549408639E+02 -0.10304397713E+03  0.80562125614E+03  0.82173315645E+03  0.81621811796E+02 0.  0.
        -13    1    5    5    0    0  0.57289905443E+02 -0.10944324291E+03  0.58558801194E+03  0.59847579434E+03  0.00000000000E+00 0.  1.
         14    1    5    5    0    0  0.37259503196E+02  0.63992657769E+01  0.22003324420E+03  0.22325736211E+03  0.00000000000E+00 0. -1.
         13    1    4    4    0    0  0.26467205830E+01  0.28903762075E+01  0.47694274904E+01  0.61730740358E+01  0.00000000000E+00 0. -1.
        -14    1    4    4    0    0 -0.81742311617E+02 -0.11038355391E+02 -0.28362444302E+03  0.29537514364E+03  0.00000000000E+00 0.  1.
          5    1    3    3  501    0 -0.60429168894E+02  0.92187270378E+02 -0.51179579271E+03  0.52354807144E+03  0.41800000000E+01 0.  1.
         -5    1    3    3    0  501  0.44975351289E+02  0.19004685939E+02 -0.46876606193E+03  0.47132054223E+03  0.41800000000E+01 0.  1.
</event>
<event>
11    1  0.2450992E-009  0.3465115E+03  0.7561462E-02  0.9822262E-01
         22   -1    0    0    0    0  0.00000000000E+00  0.00000000000E+00  0.10497626314E+04  0.10497626314E+04  0.00000000000E+00 0. -1.
         22   -1    0    0    0    0 -0.00000000000E+00 -0.00000000000E+00 -0.43976264684E+03  0.43976264684E+03  0.00000000000E+00 0. -1.
         25    2    1    2    0    0 -0.66720625857E+02 -0.83160823403E+02 -0.19164348454E+03  0.25247310859E+03  0.12509228965E+03 0.  0.
        -24    2    1    2    0    0  0.77973959718E+02 -0.26673193126E+03 -0.67063969828E+02  0.29702433062E+03  0.80622672867E+02 0.  0.
         24    2    1    2    0    0 -0.11253333861E+02  0.34989275467E+03  0.86870743896E+03  0.94002783906E+03  0.80300351249E+02 0.  0.
        -11    1    5    5    0    0  0.15544441656E+02  0.60543540095E+02  0.22966154552E+03  0.23801591419E+03  0.00000000000E+00 0.  1.
         12    1    5    5    0    0 -0.26797775517E+02  0.28934921457E+03  0.63904589344E+03  0.70201192488E+03  0.00000000000E+00 0. -1.
         11    1    4    4    0    0  0.67096015697E+02 -0.26516788775E+03 -0.74819716132E+02  0.28357340132E+03  0.00000000000E+00 0. -1.
        -12    1    4    4    0    0  0.10877944022E+02 -0.15640435184E+01  0.77557463041E+01  0.13450929299E+02  0.00000000000E+00 0.  1.
          5    1    3    3  501    0 -0.81194451606E+02 -0.15762553068E+01 -0.98864186369E+02  0.12801024685E+03  0.41800000000E+01 0. -1.
         -5    1    3    3    0  501  0.14473825749E+02 -0.81584568096E+02 -0.92779298174E+02  0.12446286174E+03  0.41800000000E+01 0. -1.
</event>
<event>
11    1  0.2450992E-009  0.2664970E+03  0.7561462E-02  0.1015460E+00
         22   -1    0    0    0    0  0.00000000000E+00  0.00000000000E+00  0.51621788342E+03  0.51621788342E+03  0.00000000000E+00 0. -1.
         22   -1    0    0    0    0 -0.00000000000E+00 -0.00000000000E+00 -0.64557951722E+03  0.64557951722E+03  0.00000000000E+00 0.  1.
         25    2    1    2    0    0 -0.12967285299E+03 -0.12504677276E+03 -0.32493459435E+02  0.22170698662E+03  0.12508564598E+03 0.  0.
        -24    2    1    2    0    0  0.22442322113E+03  0.34365683040E+03 -0.37742087156E+03  0.56351434942E+03  0.81462313077E+02 0.  0.
         24    2    1    2    0    0 -0.94750368141E+02 -0.21861005764E+03  0.28055269720E+03  0.37657606460E+03  0.79572149408E+02 0.  0.
        -11    1    5    5    0    0 -0.23672592987E+02 -0.14595934262E+03  0.14447037681E+03  0.20672738361E+03  0.00000000000E+00 0.  1.
         12    1    5    5    0    0 -0.71077775154E+02 -0.72650715016E+02  0.13608232038E+03  0.16984868099E+03  0.00000000000E+00 0. -1.
         11    1    4    4    0    0  0.14565441967E+02  0.69190389586E+02 -0.87416715469E+02  0.11243284331E+03  0.00000000000E+00 0. -1.
        -12    1    4    4    0    0  0.20985777916E+03  0.27446644081E+03 -0.29000415609E+03  0.45108150611E+03  0.00000000000E+00 0.  1.
          5    1    3    3  501    0 -0.43044741532E+01 -0.82481525084E+02 -0.33533845884E+02  0.89239686786E+02  0.41800000000E+01 0.  1.
         -5    1    3    3    0  501 -0.12536837883E+03 -0.42565247679E+02  0.10403864489E+01  0.13246729983E+03  0.41800000000E+01 0.  1.
</event>
<event>
11    1  0.2450992E-009  0.2007328E+03  0.7561462E-02  0.1054007E+00
         22   -1    0    0    0    0  0.00000000000E+00  0.00000000000E+00  0.21200560839E+03  0.21200560839E+03  0.00000000000E+00 0.  1.
         22   -1    0    0    0    0 -0.00000000000E+00 -0.00000000000E+00 -0.27876175699E+04  0.27876175699E+04  0.00000000000E+00 0.  1.
         25    2    1    2    0    0  0.85379620032E+02  0.55995390481E+02 -0.11639014278E+04  0.11750496885E+04  0.12510025413E+03 0.  0.
        -24    2    1    2    0    0 -0.17567141229E+03 -0.21431816798E+03 -0.15573133056E+04  0.15837005805E+04  0.78038930189E+02 0.  0.
         24    2    1    2    0    0  0.90291792263E+02  0.15832277749E+03  0.14560277192E+03  0.24087290925E+03  0.60007346191E+02 0.  0.
        -11    1    5    5    0    0  0.75976521100E+02  0.13191805941E+03  0.14586666514E+03  0.21083616900E+03  0.00000000000E+00 0.  1.
         12    1    5    5    0    0  0.14315271164E+02  0.26404718083E+02 -0.26389322198E+00  0.30036740256E+02  0.00000000000E+00 0. -1.
         13    1    4    4    0    0 -0.52186202904E+02 -0.49408804301E+02 -0.61157341196E+03  0.61578134750E+03  0.00000000000E+00 0. -1.
        -14    1    4    4    0    0 -0.12348520939E+03 -0.16490936367E+03 -0.94573989369E+03  0.96791923303E+03  0.00000000000E+00 0.  1.
          5    1    3    3  501    0  0.10449794158E+03  0.53752809587E+02 -0.11278906857E+04  0.11340035519E+04  0.41800000000E+01 0.  1.
         -5    1    3    3    0  501 -0.19118321553E+02  0.22425808943E+01 -0.36010742067E+02  0.41046136630E+02  0.41800000000E+01 0.  1.
</event>
<event>
11    1  0.2450992E-009  0.3284235E+03  0.7561462E-02  0.9888312E-01
         22   -1    0    0    0    0  0.00000000000E+00  0.00000000000E+00  0.10078702005E+04  0.10078702005E+04  0.00000000000E+00 0.  1.
         22   -1    0    0    0    0 -0.00000000000E+00 -0.00000000000E+00 -0.10447421288E+04  0.10447421288E+04  0.00000000000E+00 0. -1.
         25    2    1    2    0    0 -0.28059624344E+02  0.23109367525E+03 -0.40770598914E+03  0.48586076754E+03  0.12507950508E+03 0.  0.
         24    2    1    2    0    0  0.31727915149E+03 -0.91790500265E+02 -0.51711581041E+03  0.61880840957E+03  0.80146930509E+02 0.  0.
        -24    2    1    2    0    0 -0.28921952715E+03 -0.13930317498E+03  0.88794987130E+03  0.94794315220E+03  0.84189883108E+02 0.  0.
        -13    1    4    4    0    0  0.58467991972E+02 -0.41669674361E+02 -0.15577759788E+03  0.17152704699E+03  0.00000000000E+00 0.  1.
         14    1    4    4    0    0  0.25881115952E+03 -0.50120825904E+02 -0.36133821252E+03  0.44728136258E+03  0.00000000000E+00 0. -1.
         11    1    5    5    0    0 -0.17182731013E+03 -0.12697472448E+03  0.55664176473E+03  0.59623590918E+03  0.00000000000E+00 0. -1.
        -12    1    5    5    0    0 -0.11739221702E+03 -0.12328450502E+02  0.33130810657E+03  0.35170724301E+03  0.00000000000E+00 0.  1.
          5    1    3    3  501    0 -0.38260753689E+02  0.23840412416E+03 -0.34096633347E+03  0.41782283884E+03  0.41800000000E+01 0. -1.
         -5    1    3    3    0  501  0.10201129345E+02 -0.73104489124E+01 -0.66739655671E+02  0.68037928704E+02  0.41800000000E+01 0. -1.
</event>
<event>
11    1  0.2450992E-009  0.1412544E+03  0.7561462E-02  0.1106166E+00
         22   -1    0    0    0    0  0.00000000000E+00  0.00000000000E+00  0.22969542032E+03  0.22969542032E+03  0.00000000000E+00 0. -1.
         22   -1    0    0    0    0 -0.00000000000E+00 -0.00000000000E+00 -0.19351495996E+03  0.19351495996E+03  0.00000000000E+00 0. -1.
         25    2    1    2    0    0 -0.25934393194E+02  0.49109167244E+02 -0.74467145275E+02  0.15580830815E+03  0.12508625067E+03 0.  0.
         24    2    1    2    0    0  0.27169128433E+02  0.55862556639E+02  0.16846437306E+02  0.10855718979E+03  0.87418958074E+02 0.  0.
        -24    2    1    2    0    0 -0.12347352396E+01 -0.10497172388E+03  0.93801168331E+02  0.15884488233E+03  0.73569355559E+02 0.  0.
        -11    1    4    4    0    0 -0.20907064585E+02  0.18003602331E+02 -0.22673645925E+02  0.35711752491E+02  0.00000000000E+00 0.  1.
         12    1    4    4    0    0  0.48076193019E+02  0.37858954308E+02  0.39520083231E+02  0.72845437297E+02  0.00000000000E+00 0. -1.
         11    1    5    5    0    0 -0.17234032482E+02 -0.29024858709E+02 -0.39967833379E+01  0.33991595663E+02  0.00000000000E+00 0. -1.
        -12    1    5    5    0    0  0.15999297242E+02 -0.75946865174E+02  0.97797951669E+02  0.12485328667E+03  0.00000000000E+00 0.  1.
          5    1    3    3  501    0 -0.29329712576E+02  0.78565773737E+02 -0.89142393932E+02  0.12246081675E+03  0.41800000000E+01 0. -1.
         -5    1    3    3    0  501  0.33953193825E+01 -0.29456606493E+02  0.14675248657E+02  0.33347491404E+02  0.41800000000E+01 0. -1.
</event>
<event>
11    1  0.2450992E-009  0.1435721E+03  0.7561462E-02  0.1103634E+00
         22   -1    0    0    0    0  0.00000000000E+00  0.00000000000E+00  0.28086085213E+02  0.28086085213E+02  0.00000000000E+00 0.  1.
         22   -1    0    0    0    0 -0.00000000000E+00 -0.00000000000E+00 -0.15194883696E+04  0.15194883696E+04  0.00000000000E+00 0.  1.
         25    2    1    2    0    0 -0.20950184535E+02  0.14562742838E+02 -0.63413514937E+03  0.64685907210E+03  0.12509311647E+03 0.  0.
         24    2    1    2    0    0 -0.46746629893E+02 -0.81332760941E+02 -0.62859282956E+03  0.64060565206E+03  0.80289418154E+02 0.  0.
        -24    2    1    2    0    0  0.67696814428E+02  0.66770018103E+02 -0.22867430546E+03  0.26010973065E+03  0.79523832909E+02 0.  0.
        -11    1    4    4    0    0 -0.20317749476E+02 -0.92257347872E+02 -0.45930451534E+03  0.46891882772E+03  0.00000000000E+00 0.  1.
         12    1    4    4    0    0 -0.26428880416E+02  0.10924586931E+02 -0.16928831422E+03  0.17168682434E+03  0.00000000000E+00 0. -1.
         13    1    5    5    0    0  0.11011826398E+02 -0.15455203173E+02 -0.70793936413E+02  0.73293281128E+02  0.00000000000E+00 0. -1.
        -14    1    5    5    0    0  0.56684988030E+02  0.82225221275E+02 -0.15788036905E+03  0.18681644952E+03  0.00000000000E+00 0.  1.
          5    1    3    3  501    0 -0.30443633383E+02  0.66988502300E+02 -0.33821152147E+03  0.34614849401E+03  0.41800000000E+01 0.  1.
         -5    1    3    3    0  501  0.94934488476E+01 -0.52425759462E+02 -0.29592362790E+03  0.30071057809E+03  0.41800000000E+01 0.  1.
</event>
<event>
11    1  0.2450992E-009  0.1282608E+03  0.7561462E-02  0.1121425E+00
         22   -1    0    0    0    0  0.00000000000E+00  0.00000000000E+00  0.49512108261E+03  0.49512108261E+03  0.00000000000E+00 0. -1.
         22   -1    0    0    0    0 -0.00000000000E+00 -0.00000000000E+00 -0.20171163544E+03  0.20171163544E+03  0.00000000000E+00 0.  1.
         25    2    1    2    0    0 -0.34438463173E+01 -0.94716149943E+01 -0.89231012615E+02  0.15398618573E+03  0.12509196703E+03 0.  0.
        -24    2    1    2    0    0 -0.25000367534E+02  0.32320216518E+01 -0.52431763202E+02  0.99422642417E+02  0.80624485685E+02 0.  0.
         24    2    1    2    0    0  0.28444213851E+02  0.62395933426E+01  0.43507222299E+03  0.44342388990E+03  0.80553715535E+02 0.  0.
        -13    1    5    5    0    0  0.54444062480E+02 -0.94939786934E+01  0.28131210546E+03  0.28668936543E+03  0.00000000000E+00 0.  1.
         14    1    5    5    0    0 -0.25999848628E+02  0.15733572036E+02  0.15376011753E+03  0.15673452447E+03  0.00000000000E+00 0. -1.
         11    1    4    4    0    0 -0.49076046041E+02  0.42127947010E+01 -0.56532154523E+02  0.74980600352E+02  0.00000000000E+00 0. -1.
        -12    1    4    4    0    0  0.24075678507E+02 -0.98077304926E+00  0.41003913208E+01  0.24442042065E+02  0.00000000000E+00 0.  1.
          5    1    3    3  501    0  0.37177904328E+02 -0.53593899933E+02 -0.45201943406E+02  0.79468174560E+02  0.41800000000E+01 0. -1.
         -5    1    3    3    0  501 -0.40621750645E+02  0.44122284939E+02 -0.44029069209E+02  0.74518011173E+02  0.41800000000E+01 0. -1.
</event>
<event>
11    1  0.2450992E-009  0.2883728E+03  0.7561462E-02  0.1005236E+00
         22   -1    0    0    0    0  0.00000000000E+00  0.00000000000E+00  0.56751484611E+03  0.56751484611E+03  0.00000000000E+00 0. -1.
         22   -1    0    0    0    0 -0.00000000000E+00 -0.00000000000E+00 -0.22959187168E+03  0.22959187168E+03  0.00000000000E+00 0.  1.
         25    2    1    2    0    0 -0.12019636463E+03 -0.20906657159E+03  0.13450247469E+03  0.30314060839E+03  0.12508922949E+03 0.  0.
        -24    2    1    2    0    0  0.21149566328E+03  0.18421016773E+03  0.43556337528E+02  0.29534814982E+03  0.81667457305E+02 0.  0.
         24    2    1    2    0    0 -0.91299298655E+02  0.24856403859E+02  0.15986416222E+03  0.19861795957E+03  0.70279020722E+02 0.  0.
        -13    1    5    5    0    0 -0.65093999297E+02  0.41531588442E+02  0.72578683949E+02  0.10597059473E+03  0.00000000000E+00 0.  1.
         14    1    5    5    0    0 -0.26205299359E+02 -0.16675184584E+02  0.87285478270E+02  0.92647364842E+02  0.00000000000E+00 0. -1.
         13    1    4    4    0    0  0.69101678932E+02  0.90234675948E+02  0.51009255112E+02  0.12457641383E+03  0.00000000000E+00 0. -1.
        -14    1    4    4    0    0  0.14239398435E+03  0.93975491781E+02 -0.74529175845E+01  0.17077173600E+03  0.00000000000E+00 0.  1.
          5    1    3    3  501    0 -0.43923392781E+02 -0.62903798374E+01  0.58432053954E+02  0.73488847053E+02  0.41800000000E+01 0. -1.
         -5    1    3    3    0  501 -0.76272971847E+02 -0.20277619175E+03  0.76070420731E+02  0.22965176134E+03  0.41800000000E+01 0. -1.
</event>
<event>
11    1  0.2450992E-009  0.3036273E+03  0.7561462E-02  0.9986677E-01
         22   -1    0    0    0    0  0.00000000000E+00  0.00000000000E+00  0.24438820504E+04  0.24438820504E+04  0.00000000000E+00 0. -1.
         22   -1    0    0    0    0 -0.00000000000E+00 -0.00000000000E+00 -0.21540788818E+03  0.21540788818E+03  0.00000000000E+00 0. -1.
         25    2    1    2    0    0  0.27838141761E+03 -0.30163065290E+02 -0.68612756836E+02  0.31426482844E+03  0.12509455551E+03 0.  0.
         24    2    1    2    0    0 -0.69118904408E+02 -0.12547906450E+03  0.47945670958E+03  0.50705524147E+03  0.81877121169E+02 0.  0.
        -24    2    1    2    0    0 -0.20926251320E+03  0.15564212979E+03  0.18176302094E+04  0.18379698686E+04  0.79613991917E+02 0.  0.
        -13    1    4    4    0    0  0.12371620386E+02 -0.48909954861E+02  0.19471114002E+03  0.20114091757E+03  0.00000000000E+00 0.  1.
         14    1    4    4    0    0 -0.81490524793E+02 -0.76569109639E+02  0.28474556956E+03  0.30591432390E+03  0.00000000000E+00 0. -1.
         11    1    5    5    0    0 -0.15162813416E+03  0.12939020937E+03  0.15593401410E+04  0.15720288142E+04  0.00000000000E+00 0. -1.
        -12    1    5    5    0    0 -0.57634379038E+02  0.26251920421E+02  0.25829006847E+03  0.26594105445E+03  0.00000000000E+00 0.  1.
          5    1    3    3  501    0  0.11885416322E+03 -0.67174868556E+02  0.18234337028E+00  0.13658799629E+03  0.41800000000E+01 0. -1.
         -5    1    3    3    0  501  0.15952725438E+03  0.37011803266E+02 -0.68795100206E+02  0.17767683216E+03  0.41800000000E+01 0. -1.
</event>
<event>
11    1  0.2450992E-009  0.1799641E+03  0.7561462E-02  0.1069672E+00
         22   -1    0    0    0    0  0.00000000000E+00  0.00000000000E+00  0.32888936479E+03  0.32888936479E+03  0.00000000000E+00 0. -1.
         22   -1    0    0    0    0 -0.00000000000E+00 -0.00000000000E+00 -0.34593139071E+03  0.34593139071E+03  0.00000000000E+00 0.  1.
         25    2    1    2    0    0 -0.78822852998E+02 -0.54716783793E+02 -0.12840568844E+03  0.20332797325E+03  0.12508906946E+03 0.  0.
        -24    2    1    2    0    0  0.13057002814E+03  0.13702358220E+03 -0.97731829442E+02  0.22787983940E+03  0.80955026960E+02 0.  0.
         24    2    1    2    0    0 -0.51747175138E+02 -0.82306798409E+02  0.20909549197E+03  0.24361294285E+03  0.78575835738E+02 0.  0.
        -11    1    5    5    0    0 -0.24275549582E+02 -0.21932863114E+02  0.10697873536E+02  0.34420884504E+02  0.00000000000E+00 0.  1.
         12    1    5    5    0    0 -0.27471625557E+02 -0.60373935295E+02  0.19839761844E+03  0.20919205835E+03  0.00000000000E+00 0. -1.
         11    1    4    4    0    0  0.13113691356E+03  0.11178916583E+03 -0.59963583571E+02  0.18245366275E+03  0.00000000000E+00 0. -1.
        -12    1    4    4    0    0 -0.56688542478E+00  0.25234416373E+02 -0.37768245871E+02  0.45426176649E+02  0.00000000000E+00 0.  1.
          5    1    3    3  501    0 -0.96227203713E+02 -0.77284260948E+02 -0.12246311919E+03  0.17391727829E+03  0.41800000000E+01 0.  1.
         -5    1    3    3    0  501  0.17404350715E+02  0.22567477155E+02 -0.59425692560E+01  0.29410694965E+02  0.41800000000E+01 0.  1.
</event>
<event>
11    1  0.2450992E-009  0.1352244E+03  0.7561462E-02  0.1113012E+00
         22   -1    0    0    0    0  0.00000000000E+00  0.00000000000E+00  0.14150436961E+03  0.14150436961E+03  0.00000000000E+00 0. -1.
         22   -1    0    0    0    0 -0.00000000000E+00 -0.00000000000E+00 -0.22239345483E+03  0.22239345483E+03  0.00000000000E+00 0.  1.
         25    2    1    2    0    0  0.22265069996E+02  0.47996902518E+01 -0.58960731079E+02  0.14014665650E+03  0.12508376054E+03 0.  0.
        -24    2    1    2    0    0 -0.85605244759E+02 -0.12143395492E+02 -0.22015892676E+02  0.12145191248E+03  0.82402351483E+02 0.  0.
         24    2    1    2    0    0  0.63340174763E+02  0.73437052406E+01  0.87538536152E-01  0.10229925545E+03  0.79995138963E+02 0.  0.
        -11    1    5    5    0    0  0.26951600742E+02 -0.19382616438E+01 -0.39419433728E+02  0.47791603826E+02  0.00000000000E+00 0.  1.
         12    1    5    5    0    0  0.36388574021E+02  0.92819668844E+01  0.39506972265E+02  0.54507651628E+02  0.00000000000E+00 0. -1.
         13    1    4    4    0    0 -0.14687811064E+01 -0.23935992247E+02  0.15525821404E+02  0.28568167128E+02  0.00000000000E+00 0. -1.
        -14    1    4    4    0    0 -0.84136463653E+02  0.11792596754E+02 -0.37541714080E+02  0.92883745350E+02  0.00000000000E+00 0.  1.
          5    1    3    3  501    0  0.16860118201E+02 -0.14200746022E+02 -0.95661884381E+02  0.98257790005E+02  0.41800000000E+01 0.  1.
         -5    1    3    3    0  501  0.54049517947E+01  0.19000436274E+02  0.36701153303E+02  0.41888866495E+02  0.41800000000E+01 0.  1.
</event>
<event>
11    1  0.2450992E-009  0.1359730E+04  0.7561462E-02  0.8396420E-01
         22   -1    0    0    0    0  0.00000000000E+00  0.00000000000E+00  0.12799615345E+04  0.12799615345E+04  0.00000000000E+00 0. -1.
         22   -1    0    0    0    0 -0.00000000000E+00 -0.00000000000E+00 -0.17955990675E+04  0.17955990675E+04  0.00000000000E+00 0. -1.
         25    2    1    2    0    0  0.92157776060E+03 -0.10806789762E+04 -0.43650396487E+03  0.14910921600E+04  0.12508996762E+03 0.  0.
        -24    2    1    2    0    0 -0.92979984907E+03  0.89463548807E+03 -0.25258499408E+03  0.13174072452E+04  0.82838726193E+02 0.  0.
         24    2    1    2    0    0  0.82220884683E+01  0.18604348809E+03  0.17345142593E+03  0.26706119686E+03  0.80972239142E+02 0.  0.
        -13    1    5    5    0    0  0.77010011972E+01  0.19383397927E+03  0.17169956624E+03  0.25905917855E+03  0.00000000000E+00 0.  1.
         14    1    5    5    0    0  0.52108727111E+00 -0.77904911815E+01  0.17518596898E+01  0.80020183183E+01  0.00000000000E+00 0. -1.
         11    1    4    4    0    0 -0.53480836422E+03  0.47057309742E+03 -0.11245969107E+03  0.72118389372E+03  0.00000000000E+00 0. -1.
        -12    1    4    4    0    0 -0.39499148486E+03  0.42406239066E+03 -0.14012530301E+03  0.59622335146E+03  0.00000000000E+00 0.  1.
          5    1    3    3  501    0  0.46214280070E+03 -0.47490878124E+03 -0.24993014503E+03  0.70823503763E+03  0.41800000000E+01 0.  1.
         -5    1    3    3    0  501  0.45943495990E+03 -0.60577019492E+03 -0.18657381985E+03  0.78285712240E+03  0.41800000000E+01 0.  1.
</event>
<event>
11    1  0.2450992E-009  0.1302975E+03  0.7561462E-02  0.1118904E+00
         22   -1    0    0    0    0  0.00000000000E+00  0.00000000000E+00  0.17465979103E+04  0.17465979103E+04  0.00000000000E+00 0.  1.
         22   -1    0    0    0    0 -0.00000000000E+00 -0.00000000000E+00 -0.20195480978E+04  0.20195480978E+04  0.00000000000E+00 0. -1.
         25    2    1    2    0    0 -0.34304956320E+02  0.16482637026E+02 -0.13668525571E+04  0.13730921449E+04  0.12509043984E+03 0.  0.
         24    2    1    2    0    0 -0.21321532715E+01 -0.14982193806E+02 -0.64618157767E+03  0.65081667420E+03  0.76044065463E+02 0.  0.
        -24    2    1    2    0    0  0.36437109591E+02 -0.15004432197E+01  0.17400839473E+04  0.17422371890E+04  0.78538937796E+02 0.  0.
        -11    1    4    4    0    0  0.89254818916E+01  0.65141666661E+01 -0.12538492504E+02  0.16712641581E+02  0.00000000000E+00 0.  1.
         12    1    4    4    0    0 -0.11057635163E+02 -0.21496360472E+02 -0.63364308516E+03  0.63410403262E+03  0.00000000000E+00 0. -1.
         11    1    5    5    0    0 -0.56491630252E+01  0.23904852441E+02  0.22151191117E+03  0.22286965205E+03  0.00000000000E+00 0. -1.
        -12    1    5    5    0    0  0.42086272616E+02 -0.25405295661E+02  0.15185720361E+04  0.15193675369E+04  0.00000000000E+00 0.  1.
          5    1    3    3  501    0 -0.42888702467E+02  0.57274451697E+02 -0.48735709893E+03  0.49259944975E+03  0.41800000000E+01 0. -1.
         -5    1    3    3    0  501  0.85837461472E+01 -0.40791814671E+02 -0.87949545817E+03  0.88049269513E+03  0.41800000000E+01 0. -1.
</event>
<event>
11    1  0.2450992E-009  0.2631681E+03  0.7561462E-02  0.1017109E+00
         22   -1    0    0    0    0  0.00000000000E+00  0.00000000000E+00  0.87954120106E+03  0.87954120106E+03  0.00000000000E+00 0. -1.
         22   -1    0    0    0    0 -0.00000000000E+00 -0.00000000000E+00 -0.29819228087E+03  0.29819228087E+03  0.00000000000E+00 0. -1.
         25    2    1    2    0    0 -0.10576949457E+03 -0.11101969718E+03 -0.15744272211E+03  0.25287927849E+03  0.12508860699E+03 0.  0.
        -24    2    1    2    0    0  0.30728999763E+03  0.12558367940E+02  0.40342980726E+03  0.51375422829E+03  0.81258491535E+02 0.  0.
         24    2    1    2    0    0 -0.20152050306E+03  0.98461329239E+02  0.33536183505E+03  0.41109997516E+03  0.78933406487E+02 0.  0.
        -13    1    5    5    0    0 -0.46167930895E+02 -0.33712712365E+01  0.10802069140E+03  0.11752154306E+03  0.00000000000E+00 0.  1.
         14    1    5    5    0    0 -0.15535257217E+03  0.10183260048E+03  0.22734114365E+03  0.29357843210E+03  0.00000000000E+00 0. -1.
         13    1    4    4    0    0  0.31067003043E+03  0.16070798569E+02  0.38652683970E+03  0.49616240908E+03  0.00000000000E+00 0. -1.
        -14    1    4    4    0    0 -0.33800328010E+01 -0.35124306292E+01  0.16902967559E+02  0.17591819205E+02  0.00000000000E+00 0.  1.
          5    1    3    3  501    0 -0.16670992611E+02 -0.10705572796E+03 -0.91651376525E+02  0.14197287805E+03  0.41800000000E+01 0.  1.
         -5    1    3    3    0  501 -0.89098501960E+02 -0.39639692224E+01 -0.65791345586E+02  0.11090640044E+03  0.41800000000E+01 0.  1.
</event>
<event>
11    1  0.2450992E-009  0.1551937E+03  0.7561462E-02  0.1091687E+00
         22   -1    0    0    0    0  0.00000000000E+00  0.00000000000E+00  0.76104410228E+03  0.76104410228E+03  0.00000000000E+00 0. -1.
         22   -1    0    0    0    0 -0.00000000000E+00 -0.00000000000E+00 -0.88032620245E+03  0.88032620245E+03  0.00000000000E+00 0.  1.
         25    2    1    2    0    0  0.23713849772E+02  0.55231735955E+02 -0.41154344718E+03  0.43431495924E+03  0.12509429873E+03 0.  0.
         24    2    1    2    0    0 -0.89764207285E+02 -0.94826304586E+02 -0.44021127680E+03  0.46600370136E+03  0.79522578612E+02 0.  0.
        -24    2    1    2    0    0  0.66050357513E+02  0.39594568631E+02  0.73247262381E+03  0.74105164412E+03  0.81920785150E+02 0.  0.
        -13    1    4    4    0    0 -0.87862007209E+02 -0.53781761296E+02 -0.23298874017E+03  0.25474686103E+03  0.00000000000E+00 0.  1.
         14    1    4    4    0    0 -0.19022000753E+01 -0.41044543290E+02 -0.20722253662E+03  0.21125684032E+03  0.00000000000E+00 0. -1.
         13    1    5    5    0    0  0.17491489553E+02  0.57823041317E+02  0.37458961939E+03  0.37942962360E+03  0.00000000000E+00 0. -1.
        -14    1    5    5    0    0  0.48558867960E+02 -0.18228472686E+02  0.35788300442E+03  0.36162202052E+03  0.00000000000E+00 0.  1.
          5    1    3    3  501    0  0.61995585082E+02  0.48167164094E+02 -0.14528180672E+03  0.16519020561E+03  0.41800000000E+01 0. -1.
         -5    1    3    3    0  501 -0.38281735310E+02  0.70645718610E+01 -0.26626164047E+03  0.26912475363E+03  0.41800000000E+01 0. -1.
</event>
<event>
11    1  0.5868851E-009  0.1259648E+04  0.7561462E-02  0.8464968E-01
         22   -1    0    0    0    0  0.00000000000E+00  0.00000000000E+00  0.14067297651E+04  0.14067297651E+04  0.00000000000E+00 0.  1.
         22   -1    0    0    0    0 -0.00000000000E+00 -0.00000000000E+00 -0.27830671660E+04  0.27830671660E+04  0.00000000000E+00 0.  1.
         25    2    1    2    0    0  0.30039483365E+03  0.12235727132E+04 -0.22426421538E+04  0.25753563237E+04  0.12509645791E+03 0.  0.
        -24    2    1    2    0    0 -0.18801503622E+03 -0.11979246690E+04  0.82365817019E+03  0.14680713742E+04  0.80297023457E+02 0.  0.
         24    2    1    2    0    0 -0.11237979744E+03 -0.25648044197E+02  0.42646582729E+02  0.14636923315E+03  0.79486982282E+02 0.  0.
        -13    1    5    5    0    0  0.11993913920E+02 -0.38454011856E+01  0.96269733647E+01  0.15853065873E+02  0.00000000000E+00 0.  1.
         14    1    5    5    0    0 -0.12437371136E+03 -0.21802643011E+02  0.33019609365E+02  0.13051616728E+03  0.00000000000E+00 0. -1.
         13    1    4    4    0    0 -0.54478840568E+02 -0.52200283121E+03  0.32110737277E+03  0.61527623447E+03  0.00000000000E+00 0. -1.
        -14    1    4    4    0    0 -0.13353619565E+03 -0.67592183778E+03  0.50255079742E+03  0.85279513972E+03  0.00000000000E+00 0.  1.
          5    1    3    3  501    0  0.26182301956E+03  0.97176303010E+03 -0.16933963904E+04  0.19698942834E+04  0.41800000000E+01 0. -1.
         -5    1    3    3    0  501  0.38571814095E+02  0.25180968309E+03 -0.54924576337E+03  0.60546204036E+03  0.41800000000E+01 0. -1.
</event>
<event>
11    1  0.2450992E-009  0.1482768E+03  0.7561462E-02  0.1098653E+00
         22   -1    0    0    0    0  0.00000000000E+00  0.00000000000E+00  0.70941676890E+03  0.70941676890E+03  0.00000000000E+00 0. -1.
         22   -1    0    0    0    0 -0.00000000000E+00 -0.00000000000E+00 -0.22690442279E+03  0.22690442279E+03  0.00000000000E+00 0. -1.
         25    2    1    2    0    0  0.74613928786E+02 -0.34484690139E+02 -0.18514819626E+03  0.23808390381E+03  0.12509060098E+03 0.  0.
        -24    2    1    2    0    0 -0.38724091262E+02  0.48826903967E+02  0.22964354894E+03  0.25153949000E+03  0.81561839491E+02 0.  0.
         24    2    1    2    0    0 -0.35889837524E+02 -0.14342213828E+02  0.43801699342E+03  0.44669779788E+03  0.78652759418E+02 0.  0.
        -11    1    5    5    0    0  0.24707035804E+02 -0.89862497306E+01  0.15534896212E+03  0.15755789518E+03  0.00000000000E+00 0.  1.
         12    1    5    5    0    0 -0.60596873328E+02 -0.53559640976E+01  0.28266803130E+03  0.28913990269E+03  0.00000000000E+00 0. -1.
         13    1    4    4    0    0  0.20276854607E+02 -0.68794719168E+01  0.43805185998E+02  0.48758304800E+02  0.00000000000E+00 0. -1.
        -14    1    4    4    0    0 -0.59000945869E+02  0.55706375884E+02  0.18583836295E+03  0.20278118520E+03  0.00000000000E+00 0.  1.
          5    1    3    3  501    0 -0.33972171527E+02 -0.20999964834E+02 -0.51543539872E+02  0.65340002019E+02  0.41800000000E+01 0.  1.
         -5    1    3    3    0  501  0.10858610031E+03 -0.13484725305E+02 -0.13360465639E+03  0.17274390179E+03  0.41800000000E+01 0.  1.
</event>
<event>
11    1  0.2450992E-009  0.9057571E+03  0.7561462E-02  0.8774211E-01
         22   -1    0    0    0    0  0.00000000000E+00  0.00000000000E+00  0.11002709076E+04  0.11002709076E+04  0.00000000000E+00 0. -1.
         22   -1    0    0    0    0 -0.00000000000E+00 -0.00000000000E+00 -0.11630028533E+04  0.11630028533E+04  0.00000000000E+00 0. -1.
         25    2    1    2    0    0 -0.56867570675E+03  0.70705063441E+03 -0.58597516407E+03  0.10873474192E+04  0.12507940737E+03 0.  0.
         24    2    1    2    0    0  0.53973326979E+03 -0.68551049062E+03  0.28018844805E+03  0.91998663545E+03  0.81444506961E+02 0.  0.
        -24    2    1    2    0    0  0.28942436955E+02 -0.21540143793E+02  0.24305477027E+03  0.25593970623E+03  0.71609143399E+02 0.  0.
        -11    1    4    4    0    0  0.14778914548E+03 -0.20330857246E+03  0.43768097981E+02  0.25513065978E+03  0.00000000000E+00 0.  1.
         12    1    4    4    0    0  0.39194412432E+03 -0.48220191816E+03  0.23642035007E+03  0.66485597568E+03  0.00000000000E+00 0. -1.
         13    1    5    5    0    0 -0.21088425254E+02 -0.11109064454E+02  0.12569456887E+03  0.12793458342E+03  0.00000000000E+00 0. -1.
        -14    1    5    5    0    0  0.50030862210E+02 -0.10431079339E+02  0.11736020141E+03  0.12800512280E+03  0.00000000000E+00 0.  1.
          5    1    3    3  501    0 -0.32916856672E+03  0.42405572153E+03 -0.41763186721E+03  0.68015369527E+03  0.41800000000E+01 0.  1.
         -5    1    3    3    0  501 -0.23950714003E+03  0.28299491288E+03 -0.16834329686E+03  0.40719372397E+03  0.41800000000E+01 0.  1.
</event>
<event>
11    1  0.2450992E-009  0.2201149E+03  0.7561462E-02  0.1041146E+00
         22   -1    0    0    0    0  0.00000000000E+00  0.00000000000E+00  0.14135366215E+03  0.14135366215E+03  0.00000000000E+00 0. -1.
         22   -1    0    0    0    0 -0.00000000000E+00 -0.00000000000E+00 -0.62512743392E+03  0.62512743392E+03  0.00000000000E+00 0.  1.
         25    2    1    2    0    0 -0.11673578900E+03 -0.14098936899E+03 -0.40622186426E+03  0.46278274159E+03  0.12508563588E+03 0.  0.
         24    2    1    2    0    0  0.14838839616E+03  0.10326057672E+03 -0.53136509517E+02  0.20575597988E+03  0.82644853398E+02 0.  0.
        -24    2    1    2    0    0 -0.31652607164E+02  0.37728792275E+02 -0.24415397988E+02  0.97942374604E+02  0.81063233203E+02 0.  0.
        -13    1    4    4    0    0  0.82846450410E+02  0.41113714189E+02 -0.67231388980E+02  0.11434129396E+03  0.00000000000E+00 0.  1.
         14    1    4    4    0    0  0.65541945755E+02  0.62146862530E+02  0.14094879462E+02  0.91414685924E+02  0.00000000000E+00 0. -1.
         13    1    5    5    0    0  0.87071223696E+01 -0.21926709529E+01 -0.38433964240E+02  0.39468866124E+02  0.00000000000E+00 0. -1.
        -14    1    5    5    0    0 -0.40359729533E+02  0.39921463227E+02  0.14018566253E+02  0.58473508480E+02  0.00000000000E+00 0.  1.
          5    1    3    3  501    0 -0.57964101016E+02 -0.13528367487E+03 -0.35566050877E+03  0.38493295467E+03  0.41800000000E+01 0. -1.
         -5    1    3    3    0  501 -0.58771687985E+02 -0.57056941263E+01 -0.50561355498E+02  0.77849786922E+02  0.41800000000E+01 0. -1.
</event>
<event>
11    1  0.2450992E-009  0.1062962E+04  0.7561462E-02  0.8621331E-01
         22   -1    0    0    0    0  0.00000000000E+00  0.00000000000E+00  0.10945685429E+04  0.10945685429E+04  0.00000000000E+00 0. -1.
         22   -1    0    0    0    0 -0.00000000000E+00 -0.00000000000E+00 -0.25806716752E+03  0.25806716752E+03  0.00000000000E+00 0.  1.
         25    2    1    2    0    0  0.22710939813E+03 -0.82974436509E+02 -0.14611272078E+03  0.30896618151E+03  0.12509092017E+03 0.  0.
         24    2    1    2    0    0 -0.27609502192E+02  0.13817250290E+02  0.96662754099E+02  0.12958993546E+03  0.80601875442E+02 0.  0.
        -24    2    1    2    0    0 -0.19949989594E+03  0.69157186219E+02  0.88595134203E+03  0.91407959342E+03  0.77774017456E+02 0.  0.
        -13    1    4    4    0    0 -0.52834118196E+02  0.93003695247E+01  0.86985093806E+02  0.10219759030E+03  0.00000000000E+00 0.  1.
         14    1    4    4    0    0  0.25224616004E+02  0.45168807648E+01  0.96776602925E+01  0.27392345156E+02  0.00000000000E+00 0. -1.
         13    1    5    5    0    0 -0.13194911091E+03  0.76039835722E+02  0.69280191312E+03  0.70934273473E+03  0.00000000000E+00 0. -1.
        -14    1    5    5    0    0 -0.67550785036E+02 -0.68826495027E+01  0.19314942890E+03  0.20473685869E+03  0.00000000000E+00 0.  1.
          5    1    3    3  501    0  0.22843955642E+03 -0.44293004651E+02 -0.11792154753E+03  0.26090125521E+03  0.41800000000E+01 0. -1.
         -5    1    3    3    0  501 -0.13301582827E+01 -0.38681431858E+02 -0.28191173244E+02  0.48064926303E+02  0.41800000000E+01 0. -1.
</event>
<event>
11    1  0.2450992E-009  0.1571146E+03  0.7561462E-02  0.1089823E+00
         22   -1    0    0    0    0  0.00000000000E+00  0.00000000000E+00  0.16258697920E+03  0.16258697920E+03  0.00000000000E+00 0. -1.
         22   -1    0    0    0    0 -0.00000000000E+00 -0.00000000000E+00 -0.53640593539E+03  0.53640593539E+03  0.00000000000E+00 0. -1.
         25    2    1    2    0    0 -0.69005413978E+01 -0.13390451862E+03 -0.34512792107E+03  0.39081795715E+03  0.12508939262E+03 0.  0.
        -24    2    1    2    0    0  0.16160307682E+02  0.42300335368E+02 -0.12390948607E+03  0.15436485196E+03  0.80152809460E+02 0.  0.
         24    2    1    2    0    0 -0.92597662837E+01  0.91604183255E+02  0.95218450952E+02  0.15381010549E+03  0.78191594739E+02 0.  0.
        -11    1    5    5    0    0 -0.13645004632E+02 -0.73140905210E+01 -0.12991634766E+01  0.15536083718E+02  0.00000000000E+00 0.  1.
         12    1    5    5    0    0  0.43852383479E+01  0.98918273776E+02  0.96517614429E+02  0.13827402177E+03  0.00000000000E+00 0. -1.
         11    1    4    4    0    0  0.86076086201E+01  0.37666040327E+02 -0.13485576221E+03  0.14028149600E+03  0.00000000000E+00 0. -1.
        -12    1    4    4    0    0  0.75526990614E+01  0.46342950408E+01  0.10946276137E+02  0.14083355953E+02  0.00000000000E+00 0.  1.
          5    1    3    3  501    0  0.22927160534E+02 -0.71628194804E+02 -0.29735751011E+03  0.30674943228E+03  0.41800000000E+01 0. -1.
         -5    1    3    3    0  501 -0.29827701932E+02 -0.62276323820E+02 -0.47770410960E+02  0.84068524873E+02  0.41800000000E+01 0. -1.
</event>
<event>
11    1  0.2450992E-009  0.1531028E+03  0.7561462E-02  0.1093750E+00
         22   -1    0    0    0    0  0.00000000000E+00  0.00000000000E+00  0.54166848026E+03  0.54166848026E+03  0.00000000000E+00 0.  1.
         22   -1    0    0    0    0 -0.00000000000E+00 -0.00000000000E+00 -0.10352567333E+03  0.10352567333E+03  0.00000000000E+00 0.  1.
         25    2    1    2    0    0 -0.58731854457E+02 -0.56503095436E+02 -0.26280521356E+01  0.14935320713E+03  0.12512970591E+03 0.  0.
         24    2    1    2    0    0  0.75808135637E+02  0.86775768700E+02  0.27462145880E+03  0.30778062267E+03  0.77685639577E+02 0.  0.
        -24    2    1    2    0    0 -0.17076281180E+02 -0.30272673264E+02  0.16614940027E+03  0.18806032379E+03  0.80950775470E+02 0.  0.
        -13    1    4    4    0    0  0.86784670067E+02  0.77991894618E+02  0.26788212937E+03  0.29219026305E+03  0.00000000000E+00 0.  1.
         14    1    4    4    0    0 -0.10976534430E+02  0.87838740823E+01  0.67393294283E+01  0.15590359621E+02  0.00000000000E+00 0. -1.
         13    1    5    5    0    0 -0.16457486496E+02 -0.58033048391E+02  0.11495641713E+03  0.12982165231E+03  0.00000000000E+00 0. -1.
        -14    1    5    5    0    0 -0.61879468442E+00  0.27760375127E+02  0.51192983133E+02  0.58238671483E+02  0.00000000000E+00 0.  1.
          5    1    3    3  501    0 -0.65599237091E+02  0.20764675119E+02 -0.15379246172E+02  0.70628784873E+02  0.41800000000E+01 0. -1.
         -5    1    3    3    0  501  0.68673826345E+01 -0.77267770556E+02  0.12751194037E+02  0.78724422261E+02  0.41800000000E+01 0. -1.
</event>
<event>
11    1  0.2450992E-009  0.1670482E+03  0.7561462E-02  0.1080629E+00
         22   -1    0    0    0    0  0.00000000000E+00  0.00000000000E+00  0.19042065591E+04  0.19042065591E+04  0.00000000000E+00 0. -1.
         22   -1    0    0    0    0 -0.00000000000E+00 -0.00000000000E+00 -0.11920009366E+03  0.11920009366E+03  0.00000000000E+00 0.  1.
         25    2    1    2    0    0  0.75530330396E+02  0.10157139582E+03  0.37656380642E+02  0.18189657832E+03  0.12508710142E+03 0.  0.
         24    2    1    2    0    0 -0.10487638119E+03 -0.27714280911E+02  0.58741448923E+02  0.14911723222E+03  0.83775022687E+02 0.  0.
        -24    2    1    2    0    0  0.29346050790E+02 -0.73857114910E+02  0.16886086359E+04  0.16923928423E+04  0.80488155241E+02 0.  0.
        -13    1    4    4    0    0 -0.39260247185E+02 -0.46166327474E+02  0.23424772154E+01  0.60648033777E+02  0.00000000000E+00 0.  1.
         14    1    4    4    0    0 -0.65616134000E+02  0.18452046563E+02  0.56398971707E+02  0.88469198443E+02  0.00000000000E+00 0. -1.
         11    1    5    5    0    0 -0.80736873339E+01  0.60846597751E+00  0.76225481830E+03  0.76229781758E+03  0.00000000000E+00 0. -1.
        -12    1    5    5    0    0  0.37419738124E+02 -0.74465580888E+02  0.92635381762E+03  0.93009502469E+03  0.00000000000E+00 0.  1.
          5    1    3    3  501    0  0.23375714622E+02 -0.27348621392E+02 -0.45471826551E+01  0.36503703871E+02  0.41800000000E+01 0.  1.
         -5    1    3    3    0  501  0.52154615773E+02  0.12892001721E+03  0.42203563297E+02  0.14539287445E+03  0.41800000000E+01 0.  1.
</event>
<event>
11    1  0.2450992E-009  0.2324172E+03  0.7561462E-02  0.1033706E+00
         22   -1    0    0    0    0  0.00000000000E+00  0.00000000000E+00  0.73331872881E+03  0.73331872881E+03  0.00000000000E+00 0. -1.
         22   -1    0    0    0    0 -0.00000000000E+00 -0.00000000000E+00 -0.36080376928E+03  0.36080376928E+03  0.00000000000E+00 0.  1.
         25    2    1    2    0    0  0.14454603347E+03  0.15441435835E+03 -0.23411913041E+03  0.33940557052E+03  0.12508806587E+03 0.  0.
        -24    2    1    2    0    0 -0.18362796151E+03 -0.16430141647E+02  0.10407182058E+03  0.22631557016E+03  0.79991347375E+02 0.  0.
         24    2    1    2    0    0  0.39081928049E+02 -0.13798421670E+03  0.50256226936E+03  0.52840135741E+03  0.77923800989E+02 0.  0.
        -13    1    5    5    0    0  0.47994211184E+02 -0.54709685397E+02  0.30976243597E+03  0.31819704700E+03  0.00000000000E+00 0.  1.
         14    1    5    5    0    0 -0.89122831350E+01 -0.83274531308E+02  0.19279983339E+03  0.21020431040E+03  0.00000000000E+00 0. -1.
         13    1    4    4    0    0 -0.15708845294E+02 -0.27698727891E+02  0.24379431699E+02  0.40104164837E+02  0.00000000000E+00 0. -1.
        -14    1    4    4    0    0 -0.16791911622E+03  0.11268586244E+02  0.79692388880E+02  0.18621140533E+03  0.00000000000E+00 0.  1.
          5    1    3    3  501    0  0.12997706280E+03  0.11174579324E+03 -0.23869490119E+03  0.29389434737E+03  0.41800000000E+01 0.  1.
         -5    1    3    3    0  501  0.14568970662E+02  0.42668565114E+02  0.45757707794E+01  0.45511223158E+02  0.41800000000E+01 0.  1.
</event>
<event>
11    1  0.2450992E-009  0.1986090E+03  0.7561462E-02  0.1055512E+00
         22   -1    0    0    0    0  0.00000000000E+00  0.00000000000E+00  0.19026451012E+03  0.19026451012E+03  0.00000000000E+00 0. -1.
         22   -1    0    0    0    0 -0.00000000000E+00 -0.00000000000E+00 -0.56595378867E+03  0.56595378867E+03  0.00000000000E+00 0. -1.
         25    2    1    2    0    0  0.34802991647E+02  0.78773674876E+02 -0.28791848627E+03  0.32551525885E+03  0.12508632590E+03 0.  0.
        -24    2    1    2    0    0 -0.23234517912E+02  0.13092349548E+03 -0.12973845056E+03  0.20168092436E+03  0.78500479019E+02 0.  0.
         24    2    1    2    0    0 -0.11568473735E+02 -0.20969717035E+03  0.41967658284E+02  0.22902211558E+03  0.81136380524E+02 0.  0.
        -11    1    5    5    0    0 -0.31402136815E+01 -0.97832445453E+01  0.26396376032E+02  0.28325632975E+02  0.00000000000E+00 0.  1.
         12    1    5    5    0    0 -0.84282600535E+01 -0.19991392581E+03  0.15571282251E+02  0.20069648261E+03  0.00000000000E+00 0. -1.
         11    1    4    4    0    0  0.21269748211E+02  0.86482130367E+02 -0.93351179659E+02  0.12901939314E+03  0.00000000000E+00 0. -1.
        -12    1    4    4    0    0 -0.44504266122E+02  0.44441365110E+02 -0.36387270902E+02  0.72661531223E+02  0.00000000000E+00 0.  1.
          5    1    3    3  501    0  0.53415749881E+01 -0.33421835394E+02 -0.87489853882E+02  0.93901535859E+02  0.41800000000E+01 0.  1.
         -5    1    3    3    0  501  0.29461416658E+02  0.11219551027E+03 -0.20042863239E+03  0.23161372299E+03  0.41800000000E+01 0.  1.
</event>
<event>
11    1  0.2450992E-009  0.1382696E+03  0.7561462E-02  0.1109506E+00
         22   -1    0    0    0    0  0.00000000000E+00  0.00000000000E+00  0.58615483168E+03  0.58615483168E+03  0.00000000000E+00 0. -1.
         22   -1    0    0    0    0 -0.00000000000E+00 -0.00000000000E+00 -0.53798211648E+03  0.53798211648E+03  0.00000000000E+00 0. -1.
         25    2    1    2    0    0  0.26598257306E+02  0.39483291547E+02 -0.33255421774E+03  0.35847767939E+03  0.12509013262E+03 0.  0.
         24    2    1    2    0    0 -0.58210695608E+02  0.10818494216E+02 -0.17558377995E+03  0.20066081775E+03  0.77003734299E+02 0.  0.
        -24    2    1    2    0    0  0.31612438302E+02 -0.50301785762E+02  0.55631071290E+03  0.56499845103E+03  0.78816397262E+02 0.  0.
        -11    1    4    4    0    0  0.14276718404E+02  0.93049091063E+01 -0.96622593664E+01  0.19589927972E+02  0.00000000000E+00 0.  1.
         12    1    4    4    0    0 -0.72487414012E+02  0.15135851094E+01 -0.16592152059E+03  0.18107088977E+03  0.00000000000E+00 0. -1.
         11    1    5    5    0    0  0.52881220232E+02 -0.43527238652E+02  0.49567563473E+03  0.50038523042E+03  0.00000000000E+00 0. -1.
        -12    1    5    5    0    0 -0.21268781930E+02 -0.67745471107E+01  0.60635078161E+02  0.64613220605E+02  0.00000000000E+00 0.  1.
          5    1    3    3  501    0 -0.33879506481E+02  0.24952725370E+02 -0.25732562049E+03  0.26077654577E+03  0.41800000000E+01 0.  1.
         -5    1    3    3    0  501  0.60477763787E+02  0.14530566177E+02 -0.75228597255E+02  0.97701133622E+02  0.41800000000E+01 0.  1.
</event>
<event>
11    1  0.2450992E-009  0.1293890E+03  0.7561462E-02  0.1120022E+00
         22   -1    0    0    0    0  0.00000000000E+00  0.00000000000E+00  0.16539572861E+04  0.16539572861E+04  0.00000000000E+00 0.  1.
         22   -1    0    0    0    0 -0.00000000000E+00 -0.00000000000E+00 -0.10412256714E+03  0.10412256714E+03  0.00000000000E+00 0. -1.
         25    2    1    2    0    0  0.42819721954E+01  0.13371539184E+02 -0.65854697412E+01  0.12605128942E+03  0.12509366813E+03 0.  0.
         24    2    1    2    0    0 -0.53397877101E+02 -0.27638938860E+02  0.36270670289E+02  0.10876867534E+03  0.83065149083E+02 0.  0.
        -24    2    1    2    0    0  0.49115904906E+02  0.14267399675E+02  0.15201495184E+04  0.15232598885E+04  0.82765927104E+02 0.  0.
        -13    1    4    4    0    0 -0.41680895133E+02  0.23889085792E+02  0.27029529289E+02  0.55123324398E+02  0.00000000000E+00 0.  1.
         14    1    4    4    0    0 -0.11716981968E+02 -0.51528024652E+02  0.92411409998E+01  0.53645350944E+02  0.00000000000E+00 0. -1.
         11    1    5    5    0    0  0.34522338709E+02  0.16232115705E+02  0.23896850197E+03  0.24199425279E+03  0.00000000000E+00 0. -1.
        -12    1    5    5    0    0  0.14593566197E+02 -0.19647160301E+01  0.12811810165E+04  0.12812656357E+04  0.00000000000E+00 0.  1.
          5    1    3    3  501    0  0.41734531914E+02  0.15799173287E+02 -0.50905377661E+02  0.67824884117E+02  0.41800000000E+01 0.  1.
         -5    1    3    3    0  501 -0.37452559718E+02 -0.24276341025E+01  0.44319907920E+02  0.58226405306E+02  0.41800000000E+01 0.  1.
</event>
<event>
11    1  0.2450992E-009  0.1842419E+03  0.7561462E-02  0.1066262E+00
         22   -1    0    0    0    0  0.00000000000E+00  0.00000000000E+00  0.11569767637E+03  0.11569767637E+03  0.00000000000E+00 0.  1.
         22   -1    0    0    0    0 -0.00000000000E+00 -0.00000000000E+00 -0.53195992026E+03  0.53195992026E+03  0.00000000000E+00 0.  1.
         25    2    1    2    0    0 -0.10256756057E+03  0.41534968129E+02 -0.20012087960E+03  0.26064950507E+03  0.12507813552E+03 0.  0.
        -24    2    1    2    0    0  0.13346853637E+03 -0.98493169039E+02 -0.21491492171E+03  0.28456303618E+03  0.85281553940E+02 0.  0.
         24    2    1    2    0    0 -0.30900975799E+02  0.56958200911E+02 -0.12264425908E+01  0.10244505537E+03  0.79337117748E+02 0.  0.
        -13    1    5    5    0    0  0.11602713353E+02  0.45734785842E+02 -0.23999052062E+02  0.52936264441E+02  0.00000000000E+00 0.  1.
         14    1    5    5    0    0 -0.42503689152E+02  0.11223415069E+02  0.22772609471E+02  0.49508790931E+02  0.00000000000E+00 0. -1.
         11    1    4    4    0    0  0.45573206084E+02 -0.39394314842E+02 -0.21343513113E+02  0.63909112860E+02  0.00000000000E+00 0. -1.
        -12    1    4    4    0    0  0.87895330288E+02 -0.59098854198E+02 -0.19357140859E+03  0.22065392332E+03  0.00000000000E+00 0.  1.
          5    1    3    3  501    0  0.44154027817E+00 -0.26335836084E+00 -0.12800539306E+03  0.12807465545E+03  0.41800000000E+01 0.  1.
         -5    1    3    3    0  501 -0.10300910085E+03  0.41798326489E+02 -0.72115486537E+02  0.13257484963E+03  0.41800000000E+01 0.  1.
</event>
<event>
11    1  0.2450992E-009  0.1716845E+03  0.7561462E-02  0.1076575E+00
         22   -1    0    0    0    0  0.00000000000E+00  0.00000000000E+00  0.23629217628E+04  0.23629217628E+04  0.00000000000E+00 0.  1.
         22   -1    0    0    0    0 -0.00000000000E+00 -0.00000000000E+00 -0.96684492790E+02  0.96684492790E+02  0.00000000000E+00 0.  1.
         25    2    1    2    0    0  0.16740493146E+02 -0.11774808578E+03 -0.20916079591E+01  0.17261626430E+03  0.12508854489E+03 0.  0.
        -24    2    1    2    0    0 -0.60866939615E+02  0.23252967142E+02  0.38079821113E+03  0.39470685994E+03  0.80874859285E+02 0.  0.
         24    2    1    2    0    0  0.44126446469E+02  0.94495118640E+02  0.18875306669E+04  0.18922831314E+04  0.84184085232E+02 0.  0.
        -13    1    5    5    0    0  0.44797893748E+02  0.56267640938E+02  0.16603995999E+04  0.16619565970E+04  0.00000000000E+00 0.  1.
         14    1    5    5    0    0 -0.67144727898E+00  0.38227477701E+02  0.22713106694E+03  0.23032653443E+03  0.00000000000E+00 0. -1.
         11    1    4    4    0    0  0.17075765137E+02  0.52348683032E+01  0.13602479863E+03  0.13719231554E+03  0.00000000000E+00 0. -1.
        -12    1    4    4    0    0 -0.77942704752E+02  0.18018098839E+02  0.24477341250E+03  0.25751454440E+03  0.00000000000E+00 0.  1.
          5    1    3    3  501    0 -0.31315985770E+02 -0.11008120091E+03 -0.27179891146E+02  0.11770633221E+03  0.41800000000E+01 0. -1.
         -5    1    3    3    0  501  0.48056478916E+02 -0.76668848709E+01  0.25088283187E+02  0.54909932095E+02  0.41800000000E+01 0. -1.
</event>
<event>
11    1  0.2450992E-009  0.5097025E+03  0.7561462E-02  0.9372098E-01
         22   -1    0    0    0    0  0.00000000000E+00  0.00000000000E+00  0.53634785844E+03  0.53634785844E+03  0.00000000000E+00 0. -1.
         22   -1    0    0    0    0 -0.00000000000E+00 -0.00000000000E+00 -0.67280025146E+03  0.67280025146E+03  0.00000000000E+00 0. -1.
         25    2    1    2    0    0 -0.30038919614E+03  0.33956736969E+03 -0.55542400787E+02  0.47357426867E+03  0.12509181404E+03 0.  0.
        -24    2    1    2    0    0  0.35933839136E+03 -0.39025642999E+03 -0.19962805476E+03  0.57237307673E+03  0.79595339490E+02 0.  0.
         24    2    1    2    0    0 -0.58949195222E+02  0.50689060297E+02  0.11871806253E+03  0.16320076450E+03  0.80598527972E+02 0.  0.
        -11    1    5    5    0    0 -0.16575696833E+02 -0.17449609424E+02  0.57313119200E+02  0.62161372467E+02  0.00000000000E+00 0.  1.
         12    1    5    5    0    0 -0.42373498389E+02  0.68138669721E+02  0.61404943333E+02  0.10103939203E+03  0.00000000000E+00 0. -1.
         11    1    4    4    0    0  0.29656371209E+03 -0.31496560579E+03 -0.12861274456E+03  0.45132538841E+03  0.00000000000E+00 0. -1.
        -12    1    4    4    0    0  0.62774679273E+02 -0.75290824197E+02 -0.71015310197E+02  0.12104768832E+03  0.00000000000E+00 0.  1.
          5    1    3    3  501    0 -0.22658298487E+02  0.33226614054E+02 -0.44196009431E+02  0.59901302335E+02  0.41800000000E+01 0. -1.
         -5    1    3    3    0  501 -0.27773089765E+03  0.30634075564E+03 -0.11346391356E+02  0.41367296633E+03  0.41800000000E+01 0. -1.
</event>
<event>
11    1  0.2450992E-009  0.3435578E+03  0.7561462E-02  0.9832748E-01
         22   -1    0    0    0    0  0.00000000000E+00  0.00000000000E+00  0.30125768974E+03  0.30125768974E+03  0.00000000000E+00 0.  1.
         22   -1    0    0    0    0 -0.00000000000E+00 -0.00000000000E+00 -0.73740307663E+03  0.73740307663E+03  0.00000000000E+00 0. -1.
         25    2    1    2    0    0  0.72697918368E+02  0.93494304833E+02 -0.23145238611E+03  0.28852104373E+03  0.12509201921E+03 0.  0.
        -24    2    1    2    0    0  0.94309838831E+02 -0.36210769784E+03 -0.18014419685E+03  0.42308327731E+03  0.80815823600E+02 0.  0.
         24    2    1    2    0    0 -0.16700775720E+03  0.26861339301E+03 -0.24548803932E+02  0.32705644533E+03  0.79489174045E+02 0.  0.
        -13    1    5    5    0    0 -0.10455507173E+03  0.19617199901E+03 -0.50486176150E+02  0.22795629012E+03  0.00000000000E+00 0.  1.
         14    1    5    5    0    0 -0.62452685465E+02  0.72441393994E+02  0.25937372218E+02  0.99100155213E+02  0.00000000000E+00 0. -1.
         13    1    4    4    0    0  0.88639561286E+02 -0.35592368098E+03 -0.18748639071E+03  0.41193420010E+03  0.00000000000E+00 0. -1.
        -14    1    4    4    0    0  0.56702775453E+01 -0.61840168618E+01  0.73421938624E+01  0.11149077213E+02  0.00000000000E+00 0.  1.
          5    1    3    3  501    0  0.13622742837E+02  0.70089240287E+02 -0.30561694058E+02  0.77778983473E+02  0.41800000000E+01 0.  1.
         -5    1    3    3    0  501  0.59075175531E+02  0.23405064546E+02 -0.20089069205E+03  0.21074206026E+03  0.41800000000E+01 0.  1.
</event>
<event>
11    1  0.2450992E-009  0.3873777E+03  0.7561462E-02  0.9687752E-01
         22   -1    0    0    0    0  0.00000000000E+00  0.00000000000E+00  0.27788527522E+03  0.27788527522E+03  0.00000000000E+00 0.  1.
         22   -1    0    0    0    0 -0.00000000000E+00 -0.00000000000E+00 -0.66005647305E+03  0.66005647305E+03  0.00000000000E+00 0.  1.
         25    2    1    2    0    0  0.40933456702E+01 -0.12431887194E+03 -0.21122207946E+03  0.27519909049E+03  0.12509130729E+03 0.  0.
        -24    2    1    2    0    0 -0.29378373076E+02 -0.19367190701E+03 -0.24720751022E+03  0.32498354885E+03  0.78299792747E+02 0.  0.
         24    2    1    2    0    0  0.25285027406E+02  0.31799077896E+03  0.76258391848E+02  0.33775910893E+03  0.80674687628E+02 0.  0.
        -11    1    5    5    0    0  0.42516077119E+02  0.30287982030E+03  0.67395693407E+02  0.31318681621E+03  0.00000000000E+00 0.  1.
         12    1    5    5    0    0 -0.17231049713E+02  0.15110958659E+02  0.88626984409E+01  0.24572292719E+02  0.00000000000E+00 0. -1.
         11    1    4    4    0    0  0.25109750750E+02 -0.64385415720E+02 -0.63696962419E+02  0.93985554004E+02  0.00000000000E+00 0. -1.
        -12    1    4    4    0    0 -0.54488123826E+02 -0.12928649129E+03 -0.18351054780E+03  0.23099799484E+03  0.00000000000E+00 0.  1.
          5    1    3    3  501    0 -0.35369107695E+02  0.93925996680E+01 -0.40444313161E+02  0.54702921081E+02  0.41800000000E+01 0.  1.
         -5    1    3    3    0  501  0.39462453365E+02 -0.13371147161E+03 -0.17077776629E+03  0.22049616941E+03  0.41800000000E+01 0.  1.
</event>
<event>
11    1  0.2450992E-009  0.1393838E+03  0.7561462E-02  0.1108248E+00
         22   -1    0    0    0    0  0.00000000000E+00  0.00000000000E+00  0.30332085546E+03  0.30332085546E+03  0.00000000000E+00 0. -1.
         22   -1    0    0    0    0 -0.00000000000E+00 -0.00000000000E+00 -0.20506172063E+03  0.20506172063E+03  0.00000000000E+00 0. -1.
         25    2    1    2    0    0 -0.58801759496E+02  0.36385644745E+02 -0.12335138190E+03  0.18879982237E+03  0.12509295522E+03 0.  0.
        -24    2    1    2    0    0  0.59048708092E+02  0.22246606535E+02  0.32935450868E+02  0.10679556116E+03  0.79617124605E+02 0.  0.
         24    2    1    2    0    0 -0.24694859554E+00 -0.58632251281E+02  0.18867506586E+03  0.21278719256E+03  0.79008271490E+02 0.  0.
        -13    1    5    5    0    0  0.16186643282E+02  0.97408734879E+01  0.11376756821E+02  0.22052723932E+02  0.00000000000E+00 0.  1.
         14    1    5    5    0    0 -0.16433591877E+02 -0.68373124768E+02  0.17729830904E+03  0.19073446862E+03  0.00000000000E+00 0. -1.
         13    1    4    4    0    0  0.46137365197E+02  0.50403042640E+02  0.11917650575E+02  0.69362479555E+02  0.00000000000E+00 0. -1.
        -14    1    4    4    0    0  0.12911342895E+02 -0.28156436105E+02  0.21017800292E+02  0.37433081607E+02  0.00000000000E+00 0.  1.
          5    1    3    3  501    0 -0.33085083441E+02 -0.56043973493E+01 -0.13404076868E+03  0.13824048641E+03  0.41800000000E+01 0. -1.
         -5    1    3    3    0  501 -0.25716676056E+02  0.41990042095E+02  0.10689386778E+02  0.50559335954E+02  0.41800000000E+01 0. -1.
</event>
<event>
11    1  0.2450992E-009  0.2327245E+03  0.7561462E-02  0.1033527E+00
         22   -1    0    0    0    0  0.00000000000E+00  0.00000000000E+00  0.35582337550E+02  0.35582337550E+02  0.00000000000E+00 0.  1.
         22   -1    0    0    0    0 -0.00000000000E+00 -0.00000000000E+00 -0.22614377350E+04  0.22614377350E+04  0.00000000000E+00 0.  1.
         25    2    1    2    0    0 -0.16629574280E+03  0.84924357892E+02 -0.11975961123E+04  0.12185038991E+04  0.12509549608E+03 0.  0.
         24    2    1    2    0    0  0.19757142524E+03 -0.71998399843E+02 -0.85971683141E+03  0.88863335587E+03  0.79611389311E+02 0.  0.
        -24    2    1    2    0    0 -0.31275682444E+02 -0.12925958050E+02 -0.16854245373E+03  0.18988281762E+03  0.80645378151E+02 0.  0.
        -13    1    4    4    0    0  0.10287187490E+03 -0.79244316156E+02 -0.50174867236E+03  0.51827986118E+03  0.00000000000E+00 0.  1.
         14    1    4    4    0    0  0.94699550347E+02  0.72459163139E+01 -0.35796815905E+03  0.37035349469E+03  0.00000000000E+00 0. -1.
         11    1    5    5    0    0 -0.39642895867E+02  0.11815669221E+02 -0.15507400665E+03  0.16049646965E+03  0.00000000000E+00 0. -1.
        -12    1    5    5    0    0  0.83672134225E+01 -0.24741627271E+02 -0.13468447073E+02  0.29386347970E+02  0.00000000000E+00 0.  1.
          5    1    3    3  501    0 -0.50253149475E+02  0.93185444438E+02 -0.48271557655E+03  0.49420714921E+03  0.41800000000E+01 0. -1.
         -5    1    3    3    0  501 -0.11604259333E+03 -0.82610865456E+01 -0.71488053577E+03  0.72429674984E+03  0.41800000000E+01 0. -1.
</event>
<event>
11    1  0.2450992E-009  0.2451816E+03  0.7561462E-02  0.1026498E+00
         22   -1    0    0    0    0  0.00000000000E+00  0.00000000000E+00  0.86045322550E+03  0.86045322550E+03  0.00000000000E+00 0. -1.
         22   -1    0    0    0    0 -0.00000000000E+00 -0.00000000000E+00 -0.13679788439E+03  0.13679788439E+03  0.00000000000E+00 0.  1.
         25    2    1    2    0    0 -0.85173666074E+01 -0.16380694002E+02  0.42530178095E+01  0.12651437330E+03  0.12508767254E+03 0.  0.
         24    2    1    2    0    0 -0.20191968719E+03  0.11821480056E+03  0.35218818138E+03  0.42928171944E+03  0.74161852674E+02 0.  0.
        -24    2    1    2    0    0  0.21043705380E+03 -0.10183410656E+03  0.36721414193E+03  0.44145501715E+03  0.73364618628E+02 0.  0.
        -11    1    4    4    0    0 -0.21970834739E+02  0.23719711132E+02  0.15159437704E+02  0.35709254078E+02  0.00000000000E+00 0.  1.
         12    1    4    4    0    0 -0.17994885245E+03  0.94495089433E+02  0.33702874367E+03  0.39357246536E+03  0.00000000000E+00 0. -1.
         11    1    5    5    0    0  0.26561043410E+02 -0.45388742606E+02  0.83811375717E+02  0.98944295853E+02  0.00000000000E+00 0. -1.
        -12    1    5    5    0    0  0.18387601039E+03 -0.56445363956E+02  0.28340276621E+03  0.34251072130E+03  0.00000000000E+00 0.  1.
          5    1    3    3  501    0 -0.19861862474E+02  0.13288523869E+02 -0.54465510899E+02  0.59624179030E+02  0.41800000000E+01 0.  1.
         -5    1    3    3    0  501  0.11344495866E+02 -0.29669217871E+02  0.58718528708E+02  0.66890194268E+02  0.41800000000E+01 0.  1.
</event>
<event>
11    1  0.2450992E-009  0.4731135E+03  0.7561462E-02  0.9455692E-01
         22   -1    0    0    0    0  0.00000000000E+00  0.00000000000E+00  0.12054294646E+04  0.12054294646E+04  0.00000000000E+00 0. -1.
         22   -1    0    0    0    0 -0.00000000000E+00 -0.00000000000E+00 -0.78054749457E+03  0.78054749457E+03  0.00000000000E+00 0. -1.
         25    2    1    2    0    0 -0.29105700936E+02  0.36174377907E+03 -0.16643454675E+03  0.41839434197E+03  0.12509062123E+03 0.  0.
         24    2    1    2    0    0  0.21701812468E+03 -0.59179464934E+03 -0.24136998410E+03  0.67982744270E+03  0.81167168192E+02 0.  0.
        -24    2    1    2    0    0 -0.18791242375E+03  0.23005087027E+03  0.83268650088E+03  0.88775517450E+03  0.80671923110E+02 0.  0.
        -11    1    4    4    0    0  0.89966593027E+02 -0.33885503479E+03 -0.10745730141E+03  0.36669305160E+03  0.00000000000E+00 0.  1.
         12    1    4    4    0    0  0.12705153166E+03 -0.25293961455E+03 -0.13391268269E+03  0.31313439110E+03  0.00000000000E+00 0. -1.
         13    1    5    5    0    0 -0.11015650725E+03  0.18930287468E+03  0.56100711549E+03  0.60224498179E+03  0.00000000000E+00 0. -1.
        -14    1    5    5    0    0 -0.77755916495E+02  0.40747995588E+02  0.27167938539E+03  0.28551019271E+03  0.00000000000E+00 0.  1.
          5    1    3    3  501    0 -0.15459081241E+02  0.59642876934E+02  0.17788272638E+02  0.64266250904E+02  0.41800000000E+01 0.  1.
         -5    1    3    3    0  501 -0.13646619695E+02  0.30210090213E+03 -0.18422281939E+03  0.35412809107E+03  0.41800000000E+01 0.  1.
</event>
<event>
11    1  0.2450992E-009  0.1506535E+03  0.7561462E-02  0.1096213E+00
         22   -1    0    0    0    0  0.00000000000E+00  0.00000000000E+00  0.34252313029E+03  0.34252313029E+03  0.00000000000E+00 0.  1.
         22   -1    0    0    0    0 -0.00000000000E+00 -0.00000000000E+00 -0.50923135470E+03  0.50923135470E+03  0.00000000000E+00 0.  1.
         25    2    1    2    0    0  0.12389466121E+03  0.18075655366E+02 -0.39086595207E+03  0.42906424642E+03  0.12507325324E+03 0.  0.
         24    2    1    2    0    0 -0.41396803357E+02 -0.10723115094E+02 -0.65698847645E+02  0.10969174162E+03  0.76728476282E+02 0.  0.
        -24    2    1    2    0    0 -0.82497857853E+02 -0.73525402718E+01  0.28985657530E+03  0.31299849696E+03  0.84209669581E+02 0.  0.
        -13    1    4    4    0    0 -0.18285571211E+02 -0.41914672785E+02 -0.20512420769E+02  0.50119470418E+02  0.00000000000E+00 0.  1.
         14    1    4    4    0    0 -0.23111232146E+02  0.31191557691E+02 -0.45186426876E+02  0.59572271203E+02  0.00000000000E+00 0. -1.
         11    1    5    5    0    0 -0.14454346237E+02  0.16832014504E+02  0.18107756986E+03  0.18243171639E+03  0.00000000000E+00 0. -1.
        -12    1    5    5    0    0 -0.68043511616E+02 -0.24184554776E+02  0.10877900544E+03  0.13056678057E+03  0.00000000000E+00 0.  1.
          5    1    3    3  501    0 -0.16709484222E+02  0.99216017035E+01 -0.86023918822E+01  0.21659145630E+02  0.41800000000E+01 0.  1.
         -5    1    3    3    0  501  0.14060414543E+03  0.81540536621E+01 -0.38226356019E+03  0.40740510079E+03  0.41800000000E+01 0.  1.
</event>
<event>
11    1  0.2450992E-009  0.2590583E+03  0.7561462E-02  0.1019181E+00
         22   -1    0    0    0    0  0.00000000000E+00  0.00000000000E+00  0.16326560910E+04  0.16326560910E+04  0.00000000000E+00 0. -1.
         22   -1    0    0    0    0 -0.00000000000E+00 -0.00000000000E+00 -0.10883660044E+03  0.10883660044E+03  0.00000000000E+00 0. -1.
         25    2    1    2    0    0  0.13773142113E+02  0.27203303779E+03  0.19107939177E+03  0.35545785419E+03  0.12508908447E+03 0.  0.
        -24    2    1    2    0    0 -0.77171767328E+02 -0.14694453896E+03  0.41280372475E+03  0.45209856225E+03  0.80237245834E+02 0.  0.
         24    2    1    2    0    0  0.63398625215E+02 -0.12508849883E+03  0.91993637403E+03  0.93393627499E+03  0.79293853967E+02 0.  0.
        -11    1    5    5    0    0  0.15381864225E+02 -0.83742833831E+01  0.27385090012E+02  0.32506515104E+02  0.00000000000E+00 0.  1.
         12    1    5    5    0    0  0.48016760990E+02 -0.11671421545E+03  0.89255128401E+03  0.90142975989E+03  0.00000000000E+00 0. -1.
         11    1    4    4    0    0 -0.94247144390E+02 -0.12465447238E+03  0.34923395352E+03  0.38260373234E+03  0.00000000000E+00 0. -1.
        -12    1    4    4    0    0  0.17075377062E+02 -0.22290066578E+02  0.63569771235E+02  0.69494829913E+02  0.00000000000E+00 0.  1.
          5    1    3    3  501    0  0.22498318372E+02  0.21006072297E+03  0.76297574633E+02  0.22465634636E+03  0.41800000000E+01 0. -1.
         -5    1    3    3    0  501 -0.87251762596E+01  0.61972314817E+02  0.11478181714E+03  0.13080150783E+03  0.41800000000E+01 0. -1.
</event>
<event>
11    1  0.2450992E-009  0.3977590E+03  0.7561462E-02  0.9656393E-01
         22   -1    0    0    0    0  0.00000000000E+00  0.00000000000E+00  0.14351368472E+04  0.14351368472E+04  0.00000000000E+00 0.  1.
         22   -1    0    0    0    0 -0.00000000000E+00 -0.00000000000E+00 -0.90262155557E+03  0.90262155557E+03  0.00000000000E+00 0. -1.
         25    2    1    2    0    0 -0.11472116161E+03 -0.41706325327E+03 -0.68316644865E+03  0.81820932381E+03  0.12508956338E+03 0.  0.
        -24    2    1    2    0    0  0.71415606259E+02  0.25803251416E+03 -0.10207157892E+02  0.28002925307E+03  0.81432360387E+02 0.  0.
         24    2    1    2    0    0  0.43305555350E+02  0.15903073911E+03  0.12258888982E+04  0.12395198259E+04  0.80247498471E+02 0.  0.
        -11    1    5    5    0    0  0.58586138847E+02  0.10180550821E+03  0.64399147466E+03  0.65461570147E+03  0.00000000000E+00 0.  1.
         12    1    5    5    0    0 -0.15280583497E+02  0.57225230896E+02  0.58189742354E+03  0.58490412445E+03  0.00000000000E+00 0. -1.
         11    1    4    4    0    0  0.84424476016E+02  0.22081892717E+03  0.81389234042E+01  0.23654752761E+03  0.00000000000E+00 0. -1.
        -12    1    4    4    0    0 -0.13008869757E+02  0.37213586994E+02 -0.18346081296E+02  0.43481725451E+02  0.00000000000E+00 0.  1.
          5    1    3    3  501    0 -0.30273803522E+02 -0.11865404633E+02 -0.82110325978E+02  0.88413059211E+02  0.41800000000E+01 0. -1.
         -5    1    3    3    0  501 -0.84447358087E+02 -0.40519784863E+03 -0.60105612267E+03  0.72979626460E+03  0.41800000000E+01 0. -1.
</event>
<event>
11    1  0.2450992E-009  0.1414086E+03  0.7561462E-02  0.1105996E+00
         22   -1    0    0    0    0  0.00000000000E+00  0.00000000000E+00  0.16435572778E+04  0.16435572778E+04  0.00000000000E+00 0.  1.
         22   -1    0    0    0    0 -0.00000000000E+00 -0.00000000000E+00 -0.25617904128E+02  0.25617904128E+02  0.00000000000E+00 0.  1.
         25    2    1    2    0    0 -0.59041715875E+02  0.22346717779E+02  0.26982386689E+03  0.30403301841E+03  0.12508340071E+03 0.  0.
         24    2    1    2    0    0 -0.16645208877E+02 -0.11527872081E+02  0.42299420150E+03  0.43341931303E+03  0.92294374660E+02 0.  0.
        -24    2    1    2    0    0  0.75686924752E+02 -0.10818845698E+02  0.92512130531E+03  0.93172285051E+03  0.80077978400E+02 0.  0.
        -13    1    4    4    0    0 -0.16151728718E+02 -0.51660202393E+02  0.22787329353E+03  0.23421334880E+03  0.00000000000E+00 0.  1.
         14    1    4    4    0    0 -0.49348015888E+00  0.40132330312E+02  0.19512090797E+03  0.19920596424E+03  0.00000000000E+00 0. -1.
         11    1    5    5    0    0  0.82730474000E+00 -0.17422952787E+02  0.47890191230E+03  0.47921945424E+03  0.00000000000E+00 0. -1.
        -12    1    5    5    0    0  0.74859620012E+02  0.66041070883E+01  0.44621939300E+03  0.45250339627E+03  0.00000000000E+00 0.  1.
          5    1    3    3  501    0 -0.95428991300E+01 -0.38698120245E+02  0.25875828140E+02  0.47703692899E+02  0.41800000000E+01 0.  1.
         -5    1    3    3    0  501 -0.49498816745E+02  0.61044838024E+02  0.24394803875E+03  0.25632932551E+03  0.41800000000E+01 0.  1.
</event>
<event>
11    1  0.2450992E-009  0.3366300E+03  0.7561462E-02  0.9857793E-01
         22   -1    0    0    0    0  0.00000000000E+00  0.00000000000E+00  0.14504360506E+04  0.14504360506E+04  0.00000000000E+00 0. -1.
         22   -1    0    0    0    0 -0.00000000000E+00 -0.00000000000E+00 -0.15519657498E+04  0.15519657498E+04  0.00000000000E+00 0.  1.
         25    2    1    2    0    0  0.17750656518E+03 -0.54916442971E+02 -0.92681859640E+03  0.95350200498E+03  0.12509582922E+03 0.  0.
         24    2    1    2    0    0 -0.84650106953E+02 -0.26175528169E+03 -0.55646147380E+03  0.62608466390E+03  0.81554683800E+02 0.  0.
        -24    2    1    2    0    0 -0.92856458226E+02  0.31667172466E+03  0.13817503710E+04  0.14228151315E+04  0.79154961070E+02 0.  0.
        -11    1    4    4    0    0 -0.85765433802E+02 -0.19446637200E+03 -0.35589686076E+03  0.41453040295E+03  0.00000000000E+00 0.  1.
         12    1    4    4    0    0  0.11153268492E+01 -0.67288909689E+02 -0.20056461304E+03  0.21155426095E+03  0.00000000000E+00 0. -1.
         11    1    5    5    0    0 -0.90147998293E+02  0.27945732109E+03  0.13029400618E+04  0.13356181567E+04  0.00000000000E+00 0. -1.
        -12    1    5    5    0    0 -0.27084599329E+01  0.37214403573E+02  0.78810309131E+02  0.87196974797E+02  0.00000000000E+00 0.  1.
          5    1    3    3  501    0  0.68173165116E+02  0.11914050425E+02 -0.57283730986E+03  0.57701783422E+03  0.41800000000E+01 0. -1.
         -5    1    3    3    0  501  0.10933340006E+03 -0.66830493396E+02 -0.35398128654E+03  0.37648417076E+03  0.41800000000E+01 0. -1.
</event>
<event>
11    1  0.2450992E-009  0.2004970E+03  0.7561462E-02  0.1054173E+00
         22   -1    0    0    0    0  0.00000000000E+00  0.00000000000E+00  0.15918425715E+04  0.15918425715E+04  0.00000000000E+00 0.  1.
         22   -1    0    0    0    0 -0.00000000000E+00 -0.00000000000E+00 -0.10204535519E+03  0.10204535519E+03  0.00000000000E+00 0.  1.
         25    2    1    2    0    0 -0.58195570160E+01 -0.16371290883E+03  0.99143200904E+02  0.22872025921E+03  0.12509116245E+03 0.  0.
         24    2    1    2    0    0  0.18365064433E+03  0.83359922994E+02  0.43496360920E+03  0.48613597369E+03  0.80364218760E+02 0.  0.
        -24    2    1    2    0    0 -0.17783108731E+03  0.80352985840E+02  0.95569040616E+03  0.97903169374E+03  0.84133269183E+02 0.  0.
        -13    1    4    4    0    0  0.99259218995E+02  0.20228265661E+02  0.28794323445E+03  0.30524233250E+03  0.00000000000E+00 0.  1.
         14    1    4    4    0    0  0.84391425333E+02  0.63131657334E+02  0.14702037475E+03  0.18089364118E+03  0.00000000000E+00 0. -1.
         13    1    5    5    0    0 -0.76672696293E+02  0.62175745240E+02  0.62469582610E+03  0.63244715257E+03  0.00000000000E+00 0. -1.
        -14    1    5    5    0    0 -0.10115839102E+03  0.18177240600E+02  0.33099458006E+03  0.34658454117E+03  0.00000000000E+00 0.  1.
          5    1    3    3  501    0 -0.36133890652E+02 -0.12074515962E+03  0.11799677571E+03  0.17270136972E+03  0.41800000000E+01 0. -1.
         -5    1    3    3    0  501  0.30314333636E+02 -0.42967749217E+02 -0.18853574806E+02  0.56018889488E+02  0.41800000000E+01 0. -1.
</event>
<event>
11    1  0.2450992E-009  0.1362879E+03  0.7561462E-02  0.1111776E+00
         22   -1    0    0    0    0  0.00000000000E+00  0.00000000000E+00  0.10193966006E+04  0.10193966006E+04  0.00000000000E+00 0. -1.
         22   -1    0    0    0    0 -0.00000000000E+00 -0.00000000000E+00 -0.19398316814E+03  0.19398316814E+03  0.00000000000E+00 0. -1.
         25    2    1    2    0    0 -0.49977329432E+02  0.35882232614E+02 -0.27580754801E+02  0.14209441437E+03  0.12507940073E+03 0.  0.
        -24    2    1    2    0    0  0.55787202536E+02  0.12201157477E+02 -0.83256676974E+02  0.13030913470E+03  0.82387596845E+02 0.  0.
         24    2    1    2    0    0 -0.58098731037E+01 -0.48083390090E+02  0.93625086419E+03  0.94097621962E+03  0.80776222808E+02 0.  0.
        -13    1    5    5    0    0  0.11164054556E+02  0.19653178588E+02  0.15964118569E+03  0.16123334553E+03  0.00000000000E+00 0.  1.
         14    1    5    5    0    0 -0.16973927659E+02 -0.67736568678E+02  0.77660967850E+03  0.77974287409E+03  0.00000000000E+00 0. -1.
         13    1    4    4    0    0  0.42124531465E+02  0.11070100804E+02 -0.99760517394E+02  0.10885395773E+03  0.00000000000E+00 0. -1.
        -14    1    4    4    0    0  0.13662671071E+02  0.11310566727E+01  0.16503840420E+02  0.21455176965E+02  0.00000000000E+00 0.  1.
          5    1    3    3  501    0 -0.59056924159E+02  0.26021136772E+02 -0.71250233545E+02  0.96223115883E+02  0.41800000000E+01 0. -1.
         -5    1    3    3    0  501  0.90795947267E+01  0.98610958418E+01  0.43669478743E+02  0.45871298492E+02  0.41800000000E+01 0. -1.
</event>
<event>
11    1  0.2450992E-009  0.1527535E+03  0.7561462E-02  0.1094098E+00
         22   -1    0    0    0    0  0.00000000000E+00  0.00000000000E+00  0.17895448903E+03  0.17895448903E+03  0.00000000000E+00 0.  1.
         22   -1    0    0    0    0 -0.00000000000E+00 -0.00000000000E+00 -0.10222867538E+04  0.10222867538E+04  0.00000000000E+00 0. -1.
         25    2    1    2    0    0 -0.73314528526E+02 -0.97101791859E+02 -0.52913733790E+03  0.55717039442E+03  0.12509495587E+03 0.  0.
         24    2    1    2    0    0  0.39000133025E+02  0.17814834693E+02 -0.45223362976E+03  0.46119261791E+03  0.79655484549E+02 0.  0.
        -24    2    1    2    0    0  0.34314395500E+02  0.79286957166E+02  0.13803870288E+03  0.18287823050E+03  0.83221778284E+02 0.  0.
        -11    1    4    4    0    0 -0.21781356184E+02  0.13958534653E+02 -0.82031485082E+02  0.86014142509E+02  0.00000000000E+00 0.  1.
         12    1    4    4    0    0  0.60781489210E+02  0.38563000400E+01 -0.37020214468E+03  0.37517847540E+03  0.00000000000E+00 0. -1.
         11    1    5    5    0    0  0.92840624627E+01  0.30313906753E+02  0.12132048985E+03  0.12539452945E+03  0.00000000000E+00 0. -1.
        -12    1    5    5    0    0  0.25030333038E+02  0.48973050414E+02  0.16718213030E+02  0.57483701044E+02  0.00000000000E+00 0.  1.
          5    1    3    3  501    0 -0.34424386609E+02 -0.12256545962E+03 -0.36872933403E+03  0.39011040035E+03  0.41800000000E+01 0. -1.
         -5    1    3    3    0  501 -0.38890141916E+02  0.25463667760E+02 -0.16040800387E+03  0.16705999407E+03  0.41800000000E+01 0. -1.
</event>
<event>
11    1  0.2450992E-009  0.5440338E+03  0.7561462E-02  0.9300174E-01
         22   -1    0    0    0    0  0.00000000000E+00  0.00000000000E+00  0.20452011886E+03  0.20452011886E+03  0.00000000000E+00 0. -1.
         22   -1    0    0    0    0 -0.00000000000E+00 -0.00000000000E+00 -0.36178937991E+03  0.36178937991E+03  0.00000000000E+00 0. -1.
         25    2    1    2    0    0 -0.12616210649E+03 -0.18782436447E+03 -0.88292113357E+02  0.27319875106E+03  0.12508873369E+03 0.  0.
        -24    2    1    2    0    0  0.47303836494E+02  0.11373603940E+03 -0.22387604658E+02  0.15015844990E+03  0.82902446466E+02 0.  0.
         24    2    1    2    0    0  0.78858270000E+02  0.74088325072E+02 -0.46589543033E+02  0.14295229780E+03  0.80975720233E+02 0.  0.
        -11    1    5    5    0    0  0.54026960603E+02  0.70935142879E+02  0.10101898767E+01  0.89172459038E+02  0.00000000000E+00 0.  1.
         12    1    5    5    0    0  0.24831309397E+02  0.31531821929E+01 -0.47599732910E+02  0.53779838763E+02  0.00000000000E+00 0. -1.
         13    1    4    4    0    0 -0.10703356024E+02  0.53103632918E+02  0.17932618937E+02  0.57062566374E+02  0.00000000000E+00 0. -1.
        -14    1    4    4    0    0  0.58007192518E+02  0.60632406477E+02 -0.40320223594E+02  0.93095883527E+02  0.00000000000E+00 0.  1.
          5    1    3    3  501    0  0.90274924696E-01  0.16401600738E+02 -0.13604860334E+02  0.21716014392E+02  0.41800000000E+01 0. -1.
         -5    1    3    3    0  501 -0.12625238142E+03 -0.20422596521E+03 -0.74687253022E+02  0.25148273667E+03  0.41800000000E+01 0. -1.
</event>
<event>
11    1  0.3177581E-009  0.8472011E+03  0.7561462E-02  0.8839697E-01
         22   -1    0    0    0    0  0.00000000000E+00  0.00000000000E+00  0.45718179135E+03  0.45718179135E+03  0.00000000000E+00 0. -1.
         22   -1    0    0    0    0 -0.00000000000E+00 -0.00000000000E+00 -0.25270266839E+04  0.25270266839E+04  0.00000000000E+00 0. -1.
         25    2    1    2    0    0 -0.83095403990E+03 -0.14815961169E+03 -0.18450305919E+04  0.20327861289E+04  0.12508266879E+03 0.  0.
         24    2    1    2    0    0  0.80505188858E+03  0.12991611272E+03 -0.14465924530E+03  0.83350408619E+03  0.93893688805E+02 0.  0.
        -24    2    1    2    0    0  0.25902151313E+02  0.18243498971E+02 -0.80155055408E+02  0.11791826017E+03  0.80474446104E+02 0.  0.
        -11    1    4    4    0    0  0.10863232536E+03  0.30731817775E+02  0.97294296883E+01  0.11331411447E+03  0.00000000000E+00 0.  1.
         12    1    4    4    0    0  0.69641956322E+03  0.99184294941E+02 -0.15438867498E+03  0.72018997172E+03  0.00000000000E+00 0. -1.
         11    1    5    5    0    0  0.53904134811E+02  0.13345103606E+02 -0.65707543825E+02  0.86030394951E+02  0.00000000000E+00 0. -1.
        -12    1    5    5    0    0 -0.28001983498E+02  0.48983953650E+01 -0.14447511584E+02  0.31887865215E+02  0.00000000000E+00 0.  1.
          5    1    3    3  501    0 -0.81519192694E+03 -0.13854000506E+03 -0.18315082200E+04  0.20095201026E+04  0.41800000000E+01 0. -1.
         -5    1    3    3    0  501 -0.15762112954E+02 -0.96196066283E+01 -0.13522371909E+02  0.23266026272E+02  0.41800000000E+01 0. -1.
</event>
<event>
11    1  0.2450992E-009  0.1944165E+03  0.7561462E-02  0.1058544E+00
         22   -1    0    0    0    0  0.00000000000E+00  0.00000000000E+00  0.50967471224E+02  0.50967471224E+02  0.00000000000E+00 0. -1.
         22   -1    0    0    0    0 -0.00000000000E+00 -0.00000000000E+00 -0.26305309290E+04  0.26305309290E+04  0.00000000000E+00 0. -1.
         25    2    1    2    0    0 -0.74434817350E+02  0.14275407113E+02 -0.16275004383E+04  0.16340589349E+04  0.12508635690E+03 0.  0.
        -24    2    1    2    0    0 -0.59391400308E+02  0.12473072693E+03 -0.70686528942E+03  0.72457157820E+03  0.79122322195E+02 0.  0.
         24    2    1    2    0    0  0.13382621766E+03 -0.13900613404E+03 -0.24519773009E+03  0.32286788719E+03  0.83003517418E+02 0.  0.
        -11    1    5    5    0    0  0.15865218975E+02 -0.50938145530E+02 -0.11321247093E+03  0.12515375910E+03  0.00000000000E+00 0.  1.
         12    1    5    5    0    0  0.11796099868E+03 -0.88067988514E+02 -0.13198525916E+03  0.19771412809E+03  0.00000000000E+00 0. -1.
         11    1    4    4    0    0 -0.61114898667E+02  0.51864867268E+02 -0.46864675806E+03  0.47545218386E+03  0.00000000000E+00 0. -1.
        -12    1    4    4    0    0  0.17234983588E+01  0.72865859664E+02 -0.23821853136E+03  0.24911939433E+03  0.00000000000E+00 0.  1.
          5    1    3    3  501    0 -0.50316113554E+02 -0.22317664020E+02 -0.14544134130E+04  0.14554606273E+04  0.41800000000E+01 0.  1.
         -5    1    3    3    0  501 -0.24118703796E+02  0.36593071133E+02 -0.17308702535E+03  0.17859830759E+03  0.41800000000E+01 0.  1.
</event>
<event>
11    1  0.2450992E-009  0.4597827E+03  0.7561462E-02  0.9488170E-01
         22   -1    0    0    0    0  0.00000000000E+00  0.00000000000E+00  0.47488269589E+03  0.47488269589E+03  0.00000000000E+00 0.  1.
         22   -1    0    0    0    0 -0.00000000000E+00 -0.00000000000E+00 -0.14972578645E+04  0.14972578645E+04  0.00000000000E+00 0.  1.
         25    2    1    2    0    0  0.40153576850E+03 -0.13505570092E+03 -0.97254892810E+03  0.10681616541E+04  0.12508751351E+03 0.  0.
         24    2    1    2    0    0 -0.59681828759E+03 -0.68349896915E+02 -0.40603842714E+02  0.61036424989E+03  0.10016021507E+03 0.  0.
        -24    2    1    2    0    0  0.19528251909E+03  0.20340559783E+03 -0.92223977678E+01  0.29361465636E+03  0.81335197264E+02 0.  0.
        -13    1    4    4    0    0 -0.48974791088E+03 -0.32520624363E+02 -0.64234218975E+02  0.49501175957E+03  0.00000000000E+00 0.  1.
         14    1    4    4    0    0 -0.10707037671E+03 -0.35829272552E+02  0.23630376260E+02  0.11535249032E+03  0.00000000000E+00 0. -1.
         13    1    5    5    0    0  0.59133765521E+02  0.10206421950E+03  0.24743300494E+02  0.12052442925E+03  0.00000000000E+00 0. -1.
        -14    1    5    5    0    0  0.13614875357E+03  0.10134137834E+03 -0.33965698262E+02  0.17309022711E+03  0.00000000000E+00 0.  1.
          5    1    3    3  501    0  0.28192499790E+03 -0.68934813825E+02 -0.77788368098E+03  0.83027357331E+03  0.41800000000E+01 0. -1.
         -5    1    3    3    0  501  0.11961077060E+03 -0.66120887094E+02 -0.19466524712E+03  0.23788808080E+03  0.41800000000E+01 0. -1.
</event>
<event>
11    1  0.2450992E-009  0.2195742E+03  0.7561462E-02  0.1041485E+00
         22   -1    0    0    0    0  0.00000000000E+00  0.00000000000E+00  0.10182555166E+03  0.10182555166E+03  0.00000000000E+00 0. -1.
         22   -1    0    0    0    0 -0.00000000000E+00 -0.00000000000E+00 -0.91373145716E+03  0.91373145716E+03  0.00000000000E+00 0.  1.
         25    2    1    2    0    0  0.28690402360E+02  0.17158029297E+03 -0.59098255560E+03  0.62862680822E+03  0.12509335261E+03 0.  0.
         24    2    1    2    0    0 -0.56202127990E+02 -0.18900639962E+03 -0.20998759911E+03  0.30104582384E+03  0.87473984616E+02 0.  0.
        -24    2    1    2    0    0  0.27511725630E+02  0.17426106651E+02 -0.10935750795E+02  0.85884376766E+02  0.78714492228E+02 0.  0.
        -11    1    4    4    0    0 -0.77624217348E+02 -0.17019632981E+03 -0.17835468274E+03  0.25846218805E+03  0.00000000000E+00 0.  1.
         12    1    4    4    0    0  0.21422089358E+02 -0.18810069815E+02 -0.31632916367E+02  0.42583635786E+02  0.00000000000E+00 0. -1.
         11    1    5    5    0    0  0.59578388494E+01 -0.29000576242E+02  0.90140155700E+01  0.30948049096E+02  0.00000000000E+00 0. -1.
        -12    1    5    5    0    0  0.21553886781E+02  0.46426682893E+02 -0.19949766365E+02  0.54936327670E+02  0.00000000000E+00 0.  1.
          5    1    3    3  501    0  0.69100490394E+02  0.11476721825E+03 -0.47198695775E+03  0.49064809471E+03  0.41800000000E+01 0. -1.
         -5    1    3    3    0  501 -0.40410088034E+02  0.56813074716E+02 -0.11899559785E+03  0.13797871351E+03  0.41800000000E+01 0. -1.
</event>
<event>
11    1  0.2450992E-009  0.6970133E+03  0.7561462E-02  0.9036718E-01
         22   -1    0    0    0    0  0.00000000000E+00  0.00000000000E+00  0.83929533544E+03  0.83929533544E+03  0.00000000000E+00 0. -1.
         22   -1    0    0    0    0 -0.00000000000E+00 -0.00000000000E+00 -0.12300398315E+04  0.12300398315E+04  0.00000000000E+00 0.  1.
         25    2    1    2    0    0  0.69657047421E+03 -0.87268187375E+02 -0.88613974381E+03  0.11374146347E+04  0.12506895574E+03 0.  0.
         24    2    1    2    0    0 -0.60428643698E+03  0.14542533806E+02  0.50177315528E+03  0.78971861750E+03  0.80657375814E+02 0.  0.
        -24    2    1    2    0    0 -0.92284037239E+02  0.72725653569E+02 -0.63779075500E+01  0.14220191472E+03  0.79845742704E+02 0.  0.
        -13    1    4    4    0    0 -0.26746524237E+03 -0.20370544918E+02  0.26062362639E+03  0.37400172407E+03  0.00000000000E+00 0.  1.
         14    1    4    4    0    0 -0.33682119461E+03  0.34913078724E+02  0.24114952888E+03  0.41571689343E+03  0.00000000000E+00 0. -1.
         13    1    5    5    0    0 -0.76232030132E+02  0.81646177876E+02  0.16446816877E+02  0.11290668078E+03  0.00000000000E+00 0. -1.
        -14    1    5    5    0    0 -0.16052007106E+02 -0.89205243066E+01 -0.22824724427E+02  0.29295233934E+02  0.00000000000E+00 0.  1.
          5    1    3    3  501    0  0.23931048909E+03 -0.36292037298E+01 -0.38933802632E+03  0.45703856779E+03  0.41800000000E+01 0.  1.
         -5    1    3    3    0  501  0.45725998513E+03 -0.83638983646E+02 -0.49680171749E+03  0.68037606695E+03  0.41800000000E+01 0.  1.
</event>
<event>
11    1  0.2450992E-009  0.6131272E+03  0.7561462E-02  0.9171131E-01
         22   -1    0    0    0    0  0.00000000000E+00  0.00000000000E+00  0.86628796793E+03  0.86628796793E+03  0.00000000000E+00 0.  1.
         22   -1    0    0    0    0 -0.00000000000E+00 -0.00000000000E+00 -0.19444582267E+04  0.19444582267E+04  0.00000000000E+00 0. -1.
         25    2    1    2    0    0  0.11512811650E+03  0.61413056288E+03 -0.16310751402E+04  0.17511324274E+04  0.12509130175E+03 0.  0.
        -24    2    1    2    0    0 -0.36523029245E+03 -0.31996590371E+03  0.39669242584E+03  0.63121335404E+03  0.72760370632E+02 0.  0.
         24    2    1    2    0    0  0.25010217596E+03 -0.29416465917E+03  0.15621245559E+03  0.42840041321E+03  0.10020298217E+03 0.  0.
        -11    1    5    5    0    0  0.87168797875E+02 -0.17913945307E+03  0.85460002075E+02  0.21677812372E+03  0.00000000000E+00 0.  1.
         12    1    5    5    0    0  0.16293337808E+03 -0.11502520611E+03  0.70752453513E+02  0.21162228949E+03  0.00000000000E+00 0. -1.
         13    1    4    4    0    0 -0.27784471402E+03 -0.21147398212E+03  0.25389471412E+03  0.43171918661E+03  0.00000000000E+00 0. -1.
        -14    1    4    4    0    0 -0.87385578433E+02 -0.10849192159E+03  0.14279771172E+03  0.19949416743E+03  0.00000000000E+00 0.  1.
          5    1    3    3  501    0  0.18405841065E+02  0.69227352672E+02 -0.99828464425E+02  0.12294062003E+03  0.41800000000E+01 0. -1.
         -5    1    3    3    0  501  0.96722275434E+02  0.54490321021E+03 -0.15312466758E+04  0.16281918074E+04  0.41800000000E+01 0. -1.
</event>
<event>
11    1  0.2450992E-009  0.1386690E+03  0.7561462E-02  0.1109054E+00
         22   -1    0    0    0    0  0.00000000000E+00  0.00000000000E+00  0.50052510727E+02  0.50052510727E+02  0.00000000000E+00 0. -1.
         22   -1    0    0    0    0 -0.00000000000E+00 -0.00000000000E+00 -0.60310376311E+03  0.60310376311E+03  0.00000000000E+00 0. -1.
         25    2    1    2    0    0  0.47807644659E+02  0.30800589735E+02 -0.29542767293E+03  0.32582030458E+03  0.12508842363E+03 0.  0.
        -24    2    1    2    0    0 -0.59236775287E+02 -0.20773269663E+02 -0.21835178392E+03  0.24105261143E+03  0.80550205804E+02 0.  0.
         24    2    1    2    0    0  0.11429130628E+02 -0.10027320072E+02 -0.39271795522E+02  0.86283357822E+02  0.75308510400E+02 0.  0.
        -13    1    5    5    0    0  0.13666182135E+02 -0.41714288256E+02 -0.30083831686E+02  0.53215442381E+02  0.00000000000E+00 0.  1.
         14    1    5    5    0    0 -0.22370515072E+01  0.31686968184E+02 -0.91879638363E+01  0.33067915441E+02  0.00000000000E+00 0. -1.
         13    1    4    4    0    0 -0.71056786813E+02 -0.30573983376E+02 -0.12919128486E+03  0.15057962510E+03  0.00000000000E+00 0. -1.
        -14    1    4    4    0    0  0.11820011526E+02  0.98007137138E+01 -0.89160499065E+02  0.90472986329E+02  0.00000000000E+00 0.  1.
          5    1    3    3  501    0 -0.11663065585E+02 -0.20982773585E+02 -0.20211541059E+03  0.20357901533E+03  0.41800000000E+01 0. -1.
         -5    1    3    3    0  501  0.59470710244E+02  0.51783363321E+02 -0.93312262345E+02  0.12224128925E+03  0.41800000000E+01 0. -1.
</event>
<event>
11    1  0.2450992E-009  0.1458699E+03  0.7561462E-02  0.1101175E+00
         22   -1    0    0    0    0  0.00000000000E+00  0.00000000000E+00  0.35525701787E+03  0.35525701787E+03  0.00000000000E+00 0. -1.
         22   -1    0    0    0    0 -0.00000000000E+00 -0.00000000000E+00 -0.10153151713E+03  0.10153151713E+03  0.00000000000E+00 0. -1.
         25    2    1    2    0    0 -0.62864145008E+02 -0.22096265238E+02  0.26417371530E+02  0.14416736406E+03  0.12508479394E+03 0.  0.
         24    2    1    2    0    0  0.66672451531E+02  0.68679316439E+02  0.12629026469E+03  0.17854678896E+03  0.82265792356E+02 0.  0.
        -24    2    1    2    0    0 -0.38083065229E+01 -0.46583051201E+02  0.10101786452E+03  0.13407438199E+03  0.74745214532E+02 0.  0.
        -11    1    4    4    0    0 -0.11310825826E+02  0.29541676392E+02  0.10026924438E+02  0.33184102197E+02  0.00000000000E+00 0.  1.
         12    1    4    4    0    0  0.77983277357E+02  0.39137640047E+02  0.11626334025E+03  0.14536268676E+03  0.00000000000E+00 0. -1.
         11    1    5    5    0    0  0.18799159438E+02 -0.55533907601E+02  0.48092373518E+02  0.75830730443E+02  0.00000000000E+00 0. -1.
        -12    1    5    5    0    0 -0.22607465961E+02  0.89508563994E+01  0.52925490999E+02  0.58243651542E+02  0.00000000000E+00 0.  1.
          5    1    3    3  501    0 -0.85341582078E+02 -0.22443621816E+02 -0.21634261752E+02  0.90952820041E+02  0.41800000000E+01 0. -1.
         -5    1    3    3    0  501  0.22477437070E+02  0.34735657849E+00  0.48051633282E+02  0.53214544016E+02  0.41800000000E+01 0. -1.
</event>
<event>
11    1  0.2450992E-009  0.6239354E+03  0.7561462E-02  0.9152575E-01
         22   -1    0    0    0    0  0.00000000000E+00  0.00000000000E+00  0.46097171754E+03  0.46097171754E+03  0.00000000000E+00 0. -1.
         22   -1    0    0    0    0 -0.00000000000E+00 -0.00000000000E+00 -0.21112757245E+03  0.21112757245E+03  0.00000000000E+00 0.  1.
         25    2    1    2    0    0 -0.11961095632E+03  0.15304295946E+03 -0.82782159123E+02  0.24541455234E+03  0.12508592373E+03 0.  0.
         24    2    1    2    0    0  0.10893676775E+03 -0.95242811156E+02  0.21300826664E+03  0.26988000335E+03  0.80773028355E+02 0.  0.
        -24    2    1    2    0    0  0.10674188574E+02 -0.57800148308E+02  0.11961803757E+03  0.15680473429E+03  0.82610255633E+02 0.  0.
        -11    1    4    4    0    0  0.20600866030E+02 -0.30757673489E+02  0.85288617866E+01  0.37989099002E+02  0.00000000000E+00 0.  1.
         12    1    4    4    0    0  0.88335901719E+02 -0.64485137667E+02  0.20447940485E+03  0.23189090435E+03  0.00000000000E+00 0. -1.
         11    1    5    5    0    0 -0.28393210705E+02 -0.53150420673E+02  0.86260600435E+02  0.10522372745E+03  0.00000000000E+00 0. -1.
        -12    1    5    5    0    0  0.39067399279E+02 -0.46497276353E+01  0.33357437139E+02  0.51581006834E+02  0.00000000000E+00 0.  1.
          5    1    3    3  501    0 -0.88408319650E+02  0.23857584368E+02 -0.59786850208E+01  0.91860940501E+02  0.41800000000E+01 0. -1.
         -5    1    3    3    0  501 -0.31202636673E+02  0.12918537510E+03 -0.76803474103E+02  0.15355361184E+03  0.41800000000E+01 0. -1.
</event>
<event>
11    1  0.2450992E-009  0.1662738E+04  0.7561462E-02  0.8221317E-01
         22   -1    0    0    0    0  0.00000000000E+00  0.00000000000E+00  0.68705399224E+03  0.68705399224E+03  0.00000000000E+00 0.  1.
         22   -1    0    0    0    0 -0.00000000000E+00 -0.00000000000E+00 -0.10059978112E+04  0.10059978112E+04  0.00000000000E+00 0.  1.
         25    2    1    2    0    0  0.46589187871E+03  0.33365304042E+03 -0.74841581766E+03  0.95087084876E+03  0.12509812496E+03 0.  0.
        -24    2    1    2    0    0 -0.29466445303E+03 -0.24524662153E+03  0.31128646217E+03  0.50038853862E+03  0.80724115345E+02 0.  0.
         24    2    1    2    0    0 -0.17122742568E+03 -0.88406418892E+02  0.11818553652E+03  0.24179241608E+03  0.85797582856E+02 0.  0.
        -13    1    5    5    0    0 -0.16484586684E+03 -0.65600328976E+02  0.75165569934E+02  0.19268478372E+03  0.00000000000E+00 0.  1.
         14    1    5    5    0    0 -0.63815588420E+01 -0.22806089915E+02  0.43019966582E+02  0.49107632352E+02  0.00000000000E+00 0. -1.
         13    1    4    4    0    0 -0.14268009101E+03 -0.80129678298E+02  0.16570577264E+03  0.23288790609E+03  0.00000000000E+00 0. -1.
        -14    1    4    4    0    0 -0.15198436203E+03 -0.16511694323E+03  0.14558068953E+03  0.26750063253E+03  0.00000000000E+00 0.  1.
          5    1    3    3  501    0  0.43456239866E+03  0.30938195755E+03 -0.73625982184E+03  0.90920716652E+03  0.41800000000E+01 0. -1.
         -5    1    3    3    0  501  0.31329480050E+02  0.24271082871E+02 -0.12155995823E+02  0.41663682247E+02  0.41800000000E+01 0. -1.
</event>
<event>
11    1  0.2450992E-009  0.5752983E+03  0.7561462E-02  0.9239409E-01
         22   -1    0    0    0    0  0.00000000000E+00  0.00000000000E+00  0.61147807181E+03  0.61147807181E+03  0.00000000000E+00 0.  1.
         22   -1    0    0    0    0 -0.00000000000E+00 -0.00000000000E+00 -0.13531478925E+03  0.13531478925E+03  0.00000000000E+00 0.  1.
         25    2    1    2    0    0 -0.37905718460E+02  0.16511497665E+03  0.46464929001E+01  0.21063875881E+03  0.12508915946E+03 0.  0.
        -24    2    1    2    0    0 -0.67328455907E+01 -0.51727857542E+02  0.10830669969E+03  0.14479566506E+03  0.80711467387E+02 0.  0.
         24    2    1    2    0    0  0.44638564051E+02 -0.11338711910E+03  0.36321008997E+03  0.39135843718E+03  0.79941332951E+02 0.  0.
        -13    1    5    5    0    0  0.65281967713E+02 -0.61695215724E+02  0.23535194438E+03  0.25190985030E+03  0.00000000000E+00 0.  1.
         14    1    5    5    0    0 -0.20643403662E+02 -0.51691903379E+02  0.12785814559E+03  0.13944858688E+03  0.00000000000E+00 0. -1.
         11    1    4    4    0    0 -0.43704073345E+02 -0.29216136379E+02  0.64517367264E+02  0.83223310019E+02  0.00000000000E+00 0. -1.
        -12    1    4    4    0    0  0.36971227754E+02 -0.22511721163E+02  0.43789332424E+02  0.61572355042E+02  0.00000000000E+00 0.  1.
          5    1    3    3  501    0  0.61161531792E+01  0.50315969066E+02  0.57482196788E+02  0.76751413148E+02  0.41800000000E+01 0. -1.
         -5    1    3    3    0  501 -0.44021871640E+02  0.11479900758E+03 -0.52835703888E+02  0.13388734566E+03  0.41800000000E+01 0. -1.
</event>
<event>
11    1  0.2450992E-009  0.3983805E+03  0.7561462E-02  0.9654549E-01
         22   -1    0    0    0    0  0.00000000000E+00  0.00000000000E+00  0.21541459949E+04  0.21541459949E+04  0.00000000000E+00 0.  1.
         22   -1    0    0    0    0 -0.00000000000E+00 -0.00000000000E+00 -0.22484288254E+04  0.22484288254E+04  0.00000000000E+00 0.  1.
         25    2    1    2    0    0  0.34290691152E+03 -0.25624806187E+03 -0.17992698868E+04  0.18537178230E+04  0.12509765160E+03 0.  0.
        -24    2    1    2    0    0 -0.21986414054E+03  0.17890020824E+03 -0.36671415966E+03  0.47043761850E+03  0.80540382448E+02 0.  0.
         24    2    1    2    0    0 -0.12304277098E+03  0.77347853633E+02  0.20717012159E+04  0.20784193789E+04  0.82212970002E+02 0.  0.
        -13    1    5    5    0    0 -0.98165569383E+02  0.76045157552E+02  0.12093325263E+04  0.12156909575E+04  0.00000000000E+00 0.  1.
         14    1    5    5    0    0 -0.24877201596E+02  0.13026960812E+01  0.86236868966E+03  0.86272842139E+03  0.00000000000E+00 0. -1.
         13    1    4    4    0    0 -0.84278119471E+00  0.11536988678E+02 -0.46530921883E+02  0.47947253093E+02  0.00000000000E+00 0. -1.
        -14    1    4    4    0    0 -0.21902135935E+03  0.16736321956E+03 -0.32018323778E+03  0.42249036541E+03  0.00000000000E+00 0.  1.
          5    1    3    3  501    0  0.98208335063E+02 -0.14004925751E+03 -0.57999040170E+03  0.60470241448E+03  0.41800000000E+01 0. -1.
         -5    1    3    3    0  501  0.24469857646E+03 -0.11619880436E+03 -0.12192794851E+04  0.12490154085E+04  0.41800000000E+01 0. -1.
</event>
<event>
11    1  0.2450992E-009  0.1911853E+03  0.7561462E-02  0.1060938E+00
         22   -1    0    0    0    0  0.00000000000E+00  0.00000000000E+00  0.16300838334E+03  0.16300838334E+03  0.00000000000E+00 0.  1.
         22   -1    0    0    0    0 -0.00000000000E+00 -0.00000000000E+00 -0.15170144810E+04  0.15170144810E+04  0.00000000000E+00 0.  1.
         25    2    1    2    0    0 -0.20354810232E+02 -0.14452318389E+03 -0.97518103702E+03  0.99394485008E+03  0.12508813310E+03 0.  0.
         24    2    1    2    0    0  0.25239001601E+01  0.14330572788E+03 -0.50716482534E+03  0.53305579179E+03  0.79933818768E+02 0.  0.
        -24    2    1    2    0    0  0.17830910072E+02  0.12174560071E+01  0.12833976468E+03  0.15302222250E+03  0.81395834212E+02 0.  0.
        -11    1    4    4    0    0 -0.92906924502E+01  0.13875159503E+03 -0.49894010087E+03  0.51795708929E+03  0.00000000000E+00 0.  1.
         12    1    4    4    0    0  0.11814592610E+02  0.45541328498E+01 -0.82247244704E+01  0.15098702500E+02  0.00000000000E+00 0. -1.
         13    1    5    5    0    0  0.13397246216E+02  0.32673294212E+02  0.21011526644E+02  0.41091539430E+02  0.00000000000E+00 0. -1.
        -14    1    5    5    0    0  0.44336638560E+01 -0.31455838204E+02  0.10732823803E+03  0.11193068307E+03  0.00000000000E+00 0.  1.
          5    1    3    3  501    0 -0.18503015405E+02 -0.84881646146E+02 -0.85783224418E+03  0.86223018214E+03  0.41800000000E+01 0. -1.
         -5    1    3    3    0  501 -0.18517948270E+01 -0.59641537745E+02 -0.11734879284E+03  0.13171466794E+03  0.41800000000E+01 0. -1.
</event>
<event>
11    1  0.2450992E-009  0.1373883E+03  0.7561462E-02  0.1110510E+00
         22   -1    0    0    0    0  0.00000000000E+00  0.00000000000E+00  0.41627764289E+02  0.41627764289E+02  0.00000000000E+00 0. -1.
         22   -1    0    0    0    0 -0.00000000000E+00 -0.00000000000E+00 -0.81195187143E+03  0.81195187143E+03  0.00000000000E+00 0.  1.
         25    2    1    2    0    0 -0.28918308457E+02  0.26149087465E+02 -0.41027173190E+03  0.43068612537E+03  0.12509037233E+03 0.  0.
         24    2    1    2    0    0  0.71273387740E+02 -0.23451694881E+02 -0.28880552332E+03  0.30728574677E+03  0.73389522951E+02 0.  0.
        -24    2    1    2    0    0 -0.42355079283E+02 -0.26973925848E+01 -0.71246851926E+02  0.11560776358E+03  0.80546957871E+02 0.  0.
        -11    1    4    4    0    0  0.62490169257E+02 -0.27834264129E+02 -0.28947371138E+03  0.29744713328E+03  0.00000000000E+00 0.  1.
         12    1    4    4    0    0  0.87832184834E+01  0.43825692486E+01  0.66818806983E+00  0.98386134918E+01  0.00000000000E+00 0. -1.
         13    1    5    5    0    0 -0.13125509160E+02 -0.17121055801E+01  0.17628062411E+02  0.22044475059E+02  0.00000000000E+00 0. -1.
        -14    1    5    5    0    0 -0.29229570122E+02 -0.98528700464E+00 -0.88874914338E+02  0.93563288519E+02  0.00000000000E+00 0.  1.
          5    1    3    3  501    0  0.87039724556E+01  0.41165826885E+02 -0.37328812939E+03  0.37567523792E+03  0.41800000000E+01 0. -1.
         -5    1    3    3    0  501 -0.37622280913E+02 -0.15016739420E+02 -0.36983602514E+02  0.55010887457E+02  0.41800000000E+01 0. -1.
</event>
<event>
11    1  0.2450992E-009  0.1958281E+03  0.7561462E-02  0.1057514E+00
         22   -1    0    0    0    0  0.00000000000E+00  0.00000000000E+00  0.17122692385E+04  0.17122692385E+04  0.00000000000E+00 0. -1.
         22   -1    0    0    0    0 -0.00000000000E+00 -0.00000000000E+00 -0.22941725834E+04  0.22941725834E+04  0.00000000000E+00 0.  1.
         25    2    1    2    0    0 -0.16286211549E+03  0.26159020152E+02 -0.20618800665E+04  0.20722460355E+04  0.12508341240E+03 0.  0.
        -24    2    1    2    0    0  0.10103634854E+03  0.12356075941E+02 -0.20638403766E+03  0.24436875434E+03  0.82223480561E+02 0.  0.
         24    2    1    2    0    0  0.61825766952E+02 -0.38515096093E+02  0.16863607593E+04  0.16898270321E+04  0.79980934664E+02 0.  0.
        -13    1    5    5    0    0  0.20414642143E+02  0.22031283523E+01  0.86165874322E+02  0.88578605125E+02  0.00000000000E+00 0.  1.
         14    1    5    5    0    0  0.41411124809E+02 -0.40718224445E+02  0.16001948850E+04  0.16012484270E+04  0.00000000000E+00 0. -1.
         11    1    4    4    0    0  0.63862809717E+02 -0.32946024165E+02 -0.10426238128E+03  0.12662757648E+03  0.00000000000E+00 0. -1.
        -12    1    4    4    0    0  0.37173538824E+02  0.45302100106E+02 -0.10212165638E+03  0.11774117786E+03  0.00000000000E+00 0.  1.
          5    1    3    3  501    0 -0.15305681592E+03  0.21786806391E+02 -0.20495286828E+04  0.20553555284E+04  0.41800000000E+01 0. -1.
         -5    1    3    3    0  501 -0.98052995754E+01  0.43722137613E+01 -0.12351383653E+02  0.16890507130E+02  0.41800000000E+01 0. -1.
</event>
<event>
11    1  0.2450992E-009  0.2389784E+03  0.7561462E-02  0.1029940E+00
         22   -1    0    0    0    0  0.00000000000E+00  0.00000000000E+00  0.99907987045E+03  0.99907987045E+03  0.00000000000E+00 0.  1.
         22   -1    0    0    0    0 -0.00000000000E+00 -0.00000000000E+00 -0.19368029145E+03  0.19368029145E+03  0.00000000000E+00 0.  1.
         25    2    1    2    0    0 -0.10159862415E+03  0.65202999915E+02 -0.76350774100E+02  0.18987004700E+03  0.12508989733E+03 0.  0.
        -24    2    1    2    0    0 -0.71973736055E+02  0.58304459453E+02  0.33423840144E+02  0.12441214775E+03  0.76036838071E+02 0.  0.
         24    2    1    2    0    0  0.17357236021E+03 -0.12350745937E+03  0.84832651296E+03  0.87847796715E+03  0.81757014519E+02 0.  0.
        -11    1    5    5    0    0  0.16212138108E+03 -0.11354132612E+03  0.83543919724E+03  0.85856486489E+03  0.00000000000E+00 0.  1.
         12    1    5    5    0    0  0.11450979127E+02 -0.99661332514E+01  0.12887315718E+02  0.19913102254E+02  0.00000000000E+00 0. -1.
         13    1    4    4    0    0  0.13491737244E+02  0.19956773234E+02 -0.22066628024E+01  0.24190269376E+02  0.00000000000E+00 0. -1.
        -14    1    4    4    0    0 -0.85465473298E+02  0.38347686219E+02  0.35630502946E+02  0.10022187837E+03  0.00000000000E+00 0.  1.
          5    1    3    3  501    0  0.10912520761E+02  0.42157359765E+01  0.24107512020E+02  0.27120104627E+02  0.41800000000E+01 0. -1.
         -5    1    3    3    0  501 -0.11251114491E+03  0.60987263939E+02 -0.10045828612E+03  0.16274994237E+03  0.41800000000E+01 0. -1.
</event>
<event>
11    1  0.2450992E-009  0.8497129E+03  0.7561462E-02  0.8836775E-01
         22   -1    0    0    0    0  0.00000000000E+00  0.00000000000E+00  0.19160331894E+04  0.19160331894E+04  0.00000000000E+00 0. -1.
         22   -1    0    0    0    0 -0.00000000000E+00 -0.00000000000E+00 -0.87575883940E+03  0.87575883940E+03  0.00000000000E+00 0. -1.
         25    2    1    2    0    0  0.65030624063E+03 -0.46508338737E+02  0.24860115270E+03  0.70888058444E+03  0.12509163719E+03 0.  0.
        -24    2    1    2    0    0 -0.10535581262E+04 -0.44027762081E+03  0.11058457663E+03  0.11500664949E+04  0.81208899567E+02 0.  0.
         24    2    1    2    0    0  0.40325188555E+03  0.48678595955E+03  0.68108862069E+03  0.93284494953E+03  0.82130000726E+02 0.  0.
        -13    1    5    5    0    0  0.14952155635E+03  0.24384446925E+03  0.29701441433E+03  0.41235225635E+03  0.00000000000E+00 0.  1.
         14    1    5    5    0    0  0.25373032920E+03  0.24294149030E+03  0.38407420636E+03  0.52049269318E+03  0.00000000000E+00 0. -1.
         11    1    4    4    0    0 -0.17264626455E+00  0.46506992721E+00 -0.25539815442E+01  0.26017145304E+01  0.00000000000E+00 0. -1.
        -12    1    4    4    0    0 -0.10533854799E+04 -0.44074269074E+03  0.11313855817E+03  0.11474647803E+04  0.00000000000E+00 0.  1.
          5    1    3    3  501    0  0.21814732645E+03 -0.21864183432E+02  0.14773311475E+03  0.26440280662E+03  0.41800000000E+01 0. -1.
         -5    1    3    3    0  501  0.43215891418E+03 -0.24644155305E+02  0.10086803796E+03  0.44447777782E+03  0.41800000000E+01 0. -1.
</event>
<event>
11    1  0.2450992E-009  0.1849292E+03  0.7561462E-02  0.1065724E+00
         22   -1    0    0    0    0  0.00000000000E+00  0.00000000000E+00  0.17572542091E+04  0.17572542091E+04  0.00000000000E+00 0. -1.
         22   -1    0    0    0    0 -0.00000000000E+00 -0.00000000000E+00 -0.15791738310E+03  0.15791738310E+03  0.00000000000E+00 0. -1.
         25    2    1    2    0    0  0.34425896234E+02  0.13212805066E+03 -0.94086545967E+02  0.20770609739E+03  0.12508629285E+03 0.  0.
         24    2    1    2    0    0 -0.49385796713E+02 -0.11941271406E+03  0.13881506176E+04  0.13965046416E+04  0.81022982397E+02 0.  0.
        -24    2    1    2    0    0  0.14959900479E+02 -0.12715336604E+02  0.30527275442E+03  0.31096085325E+03  0.55854447073E+02 0.  0.
        -11    1    4    4    0    0 -0.30191414275E+02 -0.22688039555E+02  0.73321114130E+03  0.73418311501E+03  0.00000000000E+00 0.  1.
         12    1    4    4    0    0 -0.19194382438E+02 -0.96724674502E+02  0.65493947629E+03  0.66232152659E+03  0.00000000000E+00 0. -1.
         13    1    5    5    0    0  0.56667962222E+01 -0.34504188939E+02  0.20220733623E+03  0.20520832941E+03  0.00000000000E+00 0. -1.
        -14    1    5    5    0    0  0.92931042569E+01  0.21788852334E+02  0.10306541819E+03  0.10575252385E+03  0.00000000000E+00 0.  1.
          5    1    3    3  501    0 -0.13363065237E+02  0.12915940888E+03 -0.92745284245E+02  0.15962419793E+03  0.41800000000E+01 0.  1.
         -5    1    3    3    0  501  0.47788961471E+02  0.29686417784E+01 -0.13412617223E+01  0.48081899458E+02  0.41800000000E+01 0.  1.
</event>
<event>
11    1  0.2450992E-009  0.2388945E+03  0.7561462E-02  0.1029987E+00
         22   -1    0    0    0    0  0.00000000000E+00  0.00000000000E+00  0.89887783084E+02  0.89887783084E+02  0.00000000000E+00 0. -1.
         22   -1    0    0    0    0 -0.00000000000E+00 -0.00000000000E+00 -0.29861056786E+04  0.29861056786E+04  0.00000000000E+00 0.  1.
         25    2    1    2    0    0  0.11529045376E+03  0.76418240100E+02 -0.10914192163E+04  0.11072370435E+04  0.12508528548E+03 0.  0.
        -24    2    1    2    0    0 -0.27357220935E+03  0.77990991248E+02 -0.16730654496E+04  0.16990170412E+04  0.81157619059E+02 0.  0.
         24    2    1    2    0    0  0.15828175558E+03 -0.15440923135E+03 -0.13173322956E+03  0.26973937695E+03  0.80686819439E+02 0.  0.
        -11    1    5    5    0    0  0.59148146848E+02 -0.13205630271E+02 -0.18475212765E+02  0.63357915316E+02  0.00000000000E+00 0.  1.
         12    1    5    5    0    0  0.99133608734E+02 -0.14120360108E+03 -0.11325801680E+03  0.20638146164E+03  0.00000000000E+00 0. -1.
         11    1    4    4    0    0 -0.92933949128E+01  0.23992595762E+02 -0.12385964623E+03  0.12650384897E+03  0.00000000000E+00 0. -1.
        -12    1    4    4    0    0 -0.26427881443E+03  0.53998395486E+02 -0.15492058034E+04  0.15725131922E+04  0.00000000000E+00 0.  1.
          5    1    3    3  501    0  0.45121508206E+02  0.69931460713E+02 -0.26463358855E+03  0.27744327040E+03  0.41800000000E+01 0.  1.
         -5    1    3    3    0  501  0.70168945557E+02  0.64867793873E+01 -0.82678562775E+03  0.82979377311E+03  0.41800000000E+01 0.  1.
</event>
<event>
11    1  0.2450992E-009  0.2099189E+03  0.7561462E-02  0.1047723E+00
         22   -1    0    0    0    0  0.00000000000E+00  0.00000000000E+00  0.39348983131E+03  0.39348983131E+03  0.00000000000E+00 0. -1.
         22   -1    0    0    0    0 -0.00000000000E+00 -0.00000000000E+00 -0.74124027679E+03  0.74124027679E+03  0.00000000000E+00 0.  1.
         25    2    1    2    0    0  0.72539023433E+02  0.16819936468E+03 -0.62479608026E+03  0.66300108084E+03  0.12508938839E+03 0.  0.
        -24    2    1    2    0    0 -0.60974064895E+01 -0.13876556531E+02 -0.49561381511E+02  0.95688856884E+02  0.80438110417E+02 0.  0.
         24    2    1    2    0    0 -0.66441616944E+02 -0.15432280815E+03  0.32660701629E+03  0.37604017038E+03  0.80647684852E+02 0.  0.
        -11    1    5    5    0    0 -0.16191813745E+02 -0.45607127712E+02  0.31999432186E+02  0.58018519377E+02  0.00000000000E+00 0.  1.
         12    1    5    5    0    0 -0.50249803199E+02 -0.10871568044E+03  0.29460758410E+03  0.31802165100E+03  0.00000000000E+00 0. -1.
         11    1    4    4    0    0 -0.19422676570E+02 -0.42633357111E+02 -0.42419294055E+02  0.63200000094E+02  0.00000000000E+00 0. -1.
        -12    1    4    4    0    0  0.13325270081E+02  0.28756800580E+02 -0.71420874554E+01  0.32488856790E+02  0.00000000000E+00 0.  1.
          5    1    3    3  501    0  0.75617258874E+02  0.14879886952E+03 -0.62035827027E+03  0.64243359914E+03  0.41800000000E+01 0. -1.
         -5    1    3    3    0  501 -0.30782354409E+01  0.19400495164E+02 -0.44378099895E+01  0.20567481701E+02  0.41800000000E+01 0. -1.
</event>
<event>
11    1  0.2450992E-009  0.5439058E+03  0.7561462E-02  0.9300432E-01
         22   -1    0    0    0    0  0.00000000000E+00  0.00000000000E+00  0.38074163282E+04  0.38074163282E+04  0.00000000000E+00 0. -1.
         22   -1    0    0    0    0 -0.00000000000E+00 -0.00000000000E+00 -0.63440654463E+03  0.63440654463E+03  0.00000000000E+00 0.  1.
         25    2    1    2    0    0  0.25428479546E+02  0.28166702622E+02 -0.60059202004E+02  0.14385698873E+03  0.12509098589E+03 0.  0.
        -24    2    1    2    0    0 -0.54398385989E+03  0.11051599029E+03 -0.35820077508E+03  0.66590382205E+03  0.83593546521E+02 0.  0.
         24    2    1    2    0    0  0.51855538035E+03 -0.13868269292E+03  0.35912697607E+04  0.36320620621E+04  0.80769778322E+02 0.  0.
        -13    1    5    5    0    0  0.11860279247E+02  0.25564497148E+01  0.18704106069E+03  0.18743414855E+03  0.00000000000E+00 0.  1.
         14    1    5    5    0    0  0.50669510110E+03 -0.14123914263E+03  0.34042287000E+04  0.34446279135E+04  0.00000000000E+00 0. -1.
         13    1    4    4    0    0 -0.10566206286E+03  0.10865706054E+02 -0.33457348000E+02  0.11136394942E+03  0.00000000000E+00 0. -1.
        -14    1    4    4    0    0 -0.43832179703E+03  0.99650284240E+02 -0.32474342708E+03  0.55453987263E+03  0.00000000000E+00 0.  1.
          5    1    3    3  501    0  0.17281196769E+02 -0.39810316959E+02 -0.61336809121E+02  0.75254087273E+02  0.41800000000E+01 0.  1.
         -5    1    3    3    0  501  0.81472827770E+01  0.67977019581E+02  0.12776071169E+01  0.68602901453E+02  0.41800000000E+01 0.  1.
</event>
<event>
11    1  0.2450992E-009  0.1517859E+03  0.7561462E-02  0.1095068E+00
         22   -1    0    0    0    0  0.00000000000E+00  0.00000000000E+00  0.26203908050E+03  0.26203908050E+03  0.00000000000E+00 0.  1.
         22   -1    0    0    0    0 -0.00000000000E+00 -0.00000000000E+00 -0.83380340039E+03  0.83380340039E+03  0.00000000000E+00 0.  1.
         25    2    1    2    0    0  0.49092965474E+02 -0.34023463927E+02 -0.47651808607E+03  0.49627070863E+03  0.12508962601E+03 0.  0.
        -24    2    1    2    0    0  0.28542277351E+02  0.74891059382E+02 -0.32215322306E+03  0.34308243693E+03  0.86599809623E+02 0.  0.
         24    2    1    2    0    0 -0.77635242824E+02 -0.40867595455E+02  0.22690698925E+03  0.25648933533E+03  0.81256421776E+02 0.  0.
        -13    1    5    5    0    0 -0.76904480014E+02 -0.20120136174E+02  0.22106442856E+03  0.23492254149E+03  0.00000000000E+00 0.  1.
         14    1    5    5    0    0 -0.73076281067E+00 -0.20747459282E+02  0.58425606872E+01  0.21566793835E+02  0.00000000000E+00 0. -1.
         13    1    4    4    0    0  0.32135390188E+02 -0.77651477459E+01 -0.12444174325E+03  0.12875841054E+03  0.00000000000E+00 0. -1.
        -14    1    4    4    0    0 -0.35931128372E+01  0.82656207128E+02 -0.19771147981E+03  0.21432402638E+03  0.00000000000E+00 0.  1.
          5    1    3    3  501    0 -0.38787850669E+02  0.93576112248E+01 -0.12167181834E+03  0.12811544023E+03  0.41800000000E+01 0. -1.
         -5    1    3    3    0  501  0.87880816143E+02 -0.43381075152E+02 -0.35484626773E+03  0.36815526840E+03  0.41800000000E+01 0. -1.
</event>
<event>
11    1  0.2450992E-009  0.1582823E+03  0.7561462E-02  0.1088704E+00
         22   -1    0    0    0    0  0.00000000000E+00  0.00000000000E+00  0.78362920716E+03  0.78362920716E+03  0.00000000000E+00 0. -1.
         22   -1    0    0    0    0 -0.00000000000E+00 -0.00000000000E+00 -0.16115188849E+03  0.16115188849E+03  0.00000000000E+00 0. -1.
         25    2    1    2    0    0 -0.65358157889E+02  0.19120202674E+02  0.33334260703E+01  0.14247320970E+03  0.12510089048E+03 0.  0.
         24    2    1    2    0    0  0.12685990096E+03  0.80958928286E+02  0.39470793721E+01  0.17101047136E+03  0.81124714715E+02 0.  0.
        -24    2    1    2    0    0 -0.61501743075E+02 -0.10007913096E+03  0.61519681322E+03  0.63129741459E+03  0.79189707791E+02 0.  0.
        -11    1    4    4    0    0  0.38006984595E+02  0.94532058122E+01  0.35301841294E+02  0.52726786142E+02  0.00000000000E+00 0.  1.
         12    1    4    4    0    0  0.88852916370E+02  0.71505722474E+02 -0.31354761922E+02  0.11828368522E+03  0.00000000000E+00 0. -1.
         11    1    5    5    0    0 -0.73468113611E+02 -0.67474774088E+02  0.52978664168E+03  0.53909581204E+03  0.00000000000E+00 0. -1.
        -12    1    5    5    0    0  0.11966370536E+02 -0.32604356872E+02  0.85410171538E+02  0.92201602551E+02  0.00000000000E+00 0.  1.
          5    1    3    3  501    0  0.67085940868E+01 -0.32671654823E+02  0.34644789841E+02  0.48271897897E+02  0.41800000000E+01 0. -1.
         -5    1    3    3    0  501 -0.72066751976E+02  0.51791857497E+02 -0.31311363771E+02  0.94201311799E+02  0.41800000000E+01 0. -1.
</event>
<event>
11    1  0.2450992E-009  0.1693142E+03  0.7561462E-02  0.1078630E+00
         22   -1    0    0    0    0  0.00000000000E+00  0.00000000000E+00  0.79728428382E+02  0.79728428382E+02  0.00000000000E+00 0. -1.
         22   -1    0    0    0    0 -0.00000000000E+00 -0.00000000000E+00 -0.84527891647E+03  0.84527891647E+03  0.00000000000E+00 0.  1.
         25    2    1    2    0    0  0.47795606515E+02  0.55326741691E+02 -0.36854168660E+03  0.39599505814E+03  0.12507454963E+03 0.  0.
         24    2    1    2    0    0  0.10262944072E+03 -0.10410743189E+03 -0.24146045449E+03  0.29299392858E+03  0.78556550502E+02 0.  0.
        -24    2    1    2    0    0 -0.15042504723E+03  0.48780690197E+02 -0.15554834700E+03  0.23601835813E+03  0.80635764687E+02 0.  0.
        -11    1    4    4    0    0  0.63815634509E+02 -0.29979817783E+02 -0.16586296253E+03  0.18022693201E+03  0.00000000000E+00 0.  1.
         12    1    4    4    0    0  0.38813806210E+02 -0.74127614104E+02 -0.75597491957E+02  0.11276699657E+03  0.00000000000E+00 0. -1.
         11    1    5    5    0    0 -0.11444652811E+03  0.37033824578E+02 -0.62478594520E+02  0.13554735974E+03  0.00000000000E+00 0. -1.
        -12    1    5    5    0    0 -0.35978519128E+02  0.11746865619E+02 -0.93069752484E+02  0.10047099839E+03  0.00000000000E+00 0.  1.
          5    1    3    3  501    0  0.12873062185E+02 -0.35269018621E+02 -0.48221673352E+02  0.61257012540E+02  0.41800000000E+01 0.  1.
         -5    1    3    3    0  501  0.34922544329E+02  0.90595760312E+02 -0.32032001325E+03  0.33473804560E+03  0.41800000000E+01 0.  1.
</event>
<event>
11    1  0.2450992E-009  0.7567741E+03  0.7561462E-02  0.8952583E-01
         22   -1    0    0    0    0  0.00000000000E+00  0.00000000000E+00  0.16626172353E+03  0.16626172353E+03  0.00000000000E+00 0. -1.
         22   -1    0    0    0    0 -0.00000000000E+00 -0.00000000000E+00 -0.86115282838E+03  0.86115282838E+03  0.00000000000E+00 0. -1.
         25    2    1    2    0    0  0.13719731410E+02 -0.14987004330E+03 -0.75572326400E+03  0.78064973519E+03  0.12508835437E+03 0.  0.
        -24    2    1    2    0    0 -0.26577604713E+02  0.12095015963E+03  0.62963807221E+02  0.16070269872E+03  0.80781224123E+02 0.  0.
         24    2    1    2    0    0  0.12857873302E+02  0.28919883671E+02 -0.21316480706E+01  0.86062118001E+02  0.80002872785E+02 0.  0.
        -13    1    5    5    0    0 -0.42818552119E+01 -0.35664939900E+01 -0.35802625042E+02  0.36233715284E+02  0.00000000000E+00 0.  1.
         14    1    5    5    0    0  0.17139728514E+02  0.32486377661E+02  0.33670976971E+02  0.49828402716E+02  0.00000000000E+00 0. -1.
         13    1    4    4    0    0 -0.66025792278E+01  0.12591158847E+03  0.60886913987E+02  0.14001620785E+03  0.00000000000E+00 0. -1.
        -14    1    4    4    0    0 -0.19975025485E+02 -0.49614288462E+01  0.20768932342E+01  0.20686490877E+02  0.00000000000E+00 0.  1.
          5    1    3    3  501    0  0.50917735345E+01 -0.16976561163E+03 -0.70745711537E+03  0.72757084297E+03  0.41800000000E+01 0.  1.
         -5    1    3    3    0  501  0.86279578758E+01  0.19895568330E+02 -0.48266148628E+02  0.53078892224E+02  0.41800000000E+01 0.  1.
</event>
<event>
11    1  0.2450992E-009  0.5590408E+03  0.7561462E-02  0.9270481E-01
         22   -1    0    0    0    0  0.00000000000E+00  0.00000000000E+00  0.95032175699E+03  0.95032175699E+03  0.00000000000E+00 0. -1.
         22   -1    0    0    0    0 -0.00000000000E+00 -0.00000000000E+00 -0.16084237410E+04  0.16084237410E+04  0.00000000000E+00 0.  1.
         25    2    1    2    0    0  0.47071685759E+03 -0.30297942634E+03 -0.12056508095E+04  0.13351450192E+04  0.12508978764E+03 0.  0.
        -24    2    1    2    0    0 -0.35982164018E+03  0.35784930727E+03 -0.13025908244E+03  0.53004401076E+03  0.80321138767E+02 0.  0.
         24    2    1    2    0    0 -0.11089521741E+03 -0.54869880938E+02  0.67780790790E+03  0.69355646809E+03  0.79300449803E+02 0.  0.
        -13    1    5    5    0    0 -0.10643262409E+03 -0.32804107154E+02  0.41171389712E+03  0.42651183571E+03  0.00000000000E+00 0.  1.
         14    1    5    5    0    0 -0.44625933247E+01 -0.22065773784E+02  0.26609401077E+03  0.26704463238E+03  0.00000000000E+00 0. -1.
         13    1    4    4    0    0 -0.61565952595E+02  0.42878480455E+02  0.62700007813E+01  0.75287738144E+02  0.00000000000E+00 0. -1.
        -14    1    4    4    0    0 -0.29825568758E+03  0.31497082682E+03 -0.13652908322E+03  0.45475627262E+03  0.00000000000E+00 0.  1.
          5    1    3    3  501    0  0.17300752648E+03 -0.17020057992E+03 -0.60192281162E+03  0.64902109763E+03  0.41800000000E+01 0. -1.
         -5    1    3    3    0  501  0.29770933111E+03 -0.13277884642E+03 -0.60372799788E+03  0.68612392154E+03  0.41800000000E+01 0. -1.
</event>
<event>
11    1  0.2450992E-009  0.1607476E+03  0.7561462E-02  0.1086376E+00
         22   -1    0    0    0    0  0.00000000000E+00  0.00000000000E+00  0.10651492624E+04  0.10651492624E+04  0.00000000000E+00 0.  1.
         22   -1    0    0    0    0 -0.00000000000E+00 -0.00000000000E+00 -0.14590426562E+03  0.14590426562E+03  0.00000000000E+00 0.  1.
         25    2    1    2    0    0  0.50163060243E+02 -0.79949255352E+02 -0.61725778911E+02  0.16842027344E+03  0.12508837148E+03 0.  0.
        -24    2    1    2    0    0 -0.22695307644E+02 -0.11326008744E+03  0.35174456386E+03  0.37889861369E+03  0.80603950632E+02 0.  0.
         24    2    1    2    0    0 -0.27467752599E+02  0.19320934279E+03  0.62922621185E+03  0.66373464090E+03  0.80831431237E+02 0.  0.
        -11    1    5    5    0    0 -0.40619273660E+02  0.11646453500E+03  0.28050116535E+03  0.30642261188E+03  0.00000000000E+00 0.  1.
         12    1    5    5    0    0  0.13151521061E+02  0.76744807791E+02  0.34872504650E+03  0.35731202902E+03  0.00000000000E+00 0. -1.
         13    1    4    4    0    0  0.27526260189E+02 -0.17855507681E+02  0.73246827914E+02  0.80259653339E+02  0.00000000000E+00 0. -1.
        -14    1    4    4    0    0 -0.50221567834E+02 -0.95404579756E+02  0.27849773594E+03  0.29863896035E+03  0.00000000000E+00 0.  1.
          5    1    3    3  501    0 -0.20744156231E+02 -0.58376240154E+02 -0.70180399161E+02  0.93706276517E+02  0.41800000000E+01 0. -1.
         -5    1    3    3    0  501  0.70907216475E+02 -0.21573015198E+02  0.84546202502E+01  0.74713996925E+02  0.41800000000E+01 0. -1.
</event>
<event>
11    1  0.2450992E-009  0.3147608E+03  0.7561462E-02  0.9941306E-01
         22   -1    0    0    0    0  0.00000000000E+00  0.00000000000E+00  0.68986940982E+03  0.68986940982E+03  0.00000000000E+00 0. -1.
         22   -1    0    0    0    0 -0.00000000000E+00 -0.00000000000E+00 -0.78292571547E+03  0.78292571547E+03  0.00000000000E+00 0. -1.
         25    2    1    2    0    0  0.27966869371E+03 -0.26863801661E+02 -0.53493040013E+03  0.61703524559E+03  0.12508284952E+03 0.  0.
        -24    2    1    2    0    0 -0.23620242364E+03 -0.28269659598E+03  0.10924531919E+03  0.39250547113E+03  0.80106521495E+02 0.  0.
         24    2    1    2    0    0 -0.43466270063E+02  0.30956039764E+03  0.33262877529E+03  0.46325440857E+03  0.79030301029E+02 0.  0.
        -13    1    5    5    0    0 -0.48485988055E+02  0.19828031535E+03  0.25882277447E+03  0.32962888689E+03  0.00000000000E+00 0.  1.
         14    1    5    5    0    0  0.50197179917E+01  0.11128008229E+03  0.73806000827E+02  0.13362552167E+03  0.00000000000E+00 0. -1.
         13    1    4    4    0    0  0.28693075922E+01  0.20094728985E+01 -0.25012510889E+01  0.43043192723E+01  0.00000000000E+00 0. -1.
        -14    1    4    4    0    0 -0.23907173124E+03 -0.28470606888E+03  0.11174657028E+03  0.38820115186E+03  0.00000000000E+00 0.  1.
          5    1    3    3  501    0  0.25216711905E+03 -0.56886882760E+02 -0.50137683650E+03  0.56411043063E+03  0.41800000000E+01 0.  1.
         -5    1    3    3    0  501  0.27501574654E+02  0.30023081099E+02 -0.33553563626E+02  0.52924814966E+02  0.41800000000E+01 0.  1.
</event>
<event>
11    1  0.2450992E-009  0.1716062E+03  0.7561462E-02  0.1076642E+00
         22   -1    0    0    0    0  0.00000000000E+00  0.00000000000E+00  0.13578800992E+04  0.13578800992E+04  0.00000000000E+00 0. -1.
         22   -1    0    0    0    0 -0.00000000000E+00 -0.00000000000E+00 -0.16954707944E+04  0.16954707944E+04  0.00000000000E+00 0.  1.
         25    2    1    2    0    0  0.26397677353E+02  0.14267630621E+03 -0.13154420828E+04  0.13293187457E+04  0.12508832371E+03 0.  0.
         24    2    1    2    0    0  0.29967383793E+02 -0.82402525957E+02 -0.36099672220E+03  0.38027158442E+03  0.81238070510E+02 0.  0.
        -24    2    1    2    0    0 -0.56365061146E+02 -0.60273780249E+02  0.13388481098E+04  0.13437605634E+04  0.79801266760E+02 0.  0.
        -11    1    4    4    0    0  0.21540228896E+02 -0.62479426264E+02 -0.34965635460E+03  0.35584719541E+03  0.00000000000E+00 0.  1.
         12    1    4    4    0    0  0.84271548967E+01 -0.19923099694E+02 -0.11340367595E+02  0.24424389005E+02  0.00000000000E+00 0. -1.
         13    1    5    5    0    0 -0.66453096499E+02 -0.37617930739E+02  0.12181389655E+04  0.12205300742E+04  0.00000000000E+00 0. -1.
        -14    1    5    5    0    0  0.10088035353E+02 -0.22655849511E+02  0.12070914429E+03  0.12323048928E+03  0.00000000000E+00 0.  1.
          5    1    3    3  501    0 -0.10865732987E+02  0.40740179030E+02 -0.94609589219E+02  0.10366423256E+03  0.41800000000E+01 0. -1.
         -5    1    3    3    0  501  0.37263410340E+02  0.10193612718E+03 -0.12208324935E+04  0.12256545131E+04  0.41800000000E+01 0. -1.
</event>
<event>
11    1  0.2450992E-009  0.1728647E+03  0.7561462E-02  0.1075565E+00
         22   -1    0    0    0    0  0.00000000000E+00  0.00000000000E+00  0.17843457403E+04  0.17843457403E+04  0.00000000000E+00 0.  1.
         22   -1    0    0    0    0 -0.00000000000E+00 -0.00000000000E+00 -0.34067542815E+02  0.34067542815E+02  0.00000000000E+00 0.  1.
         25    2    1    2    0    0 -0.61639745999E+02 -0.11574611152E+03  0.30873901870E+03  0.35799986464E+03  0.12508997079E+03 0.  0.
         24    2    1    2    0    0 -0.45295584664E+01  0.10057949882E+03  0.82652787680E+03  0.83640673477E+03  0.79316721790E+02 0.  0.
        -24    2    1    2    0    0  0.66169304465E+02  0.15166612702E+02  0.61501130199E+03  0.62400668372E+03  0.80851943407E+02 0.  0.
        -11    1    4    4    0    0 -0.26976581622E+01  0.87462096494E+02  0.81218021725E+03  0.81688040800E+03  0.00000000000E+00 0.  1.
         12    1    4    4    0    0 -0.18319003042E+01  0.13117402326E+02  0.14347659551E+02  0.19526326769E+02  0.00000000000E+00 0. -1.
         11    1    5    5    0    0  0.56849550783E+02  0.46134756064E+02  0.42125031620E+03  0.42756533540E+03  0.00000000000E+00 0. -1.
        -12    1    5    5    0    0  0.93197536823E+01 -0.30968143362E+02  0.19376098579E+03  0.19644134831E+03  0.00000000000E+00 0.  1.
          5    1    3    3  501    0  0.68988849207E+01 -0.11071301290E+03  0.21139305420E+03  0.23876654205E+03  0.41800000000E+01 0. -1.
         -5    1    3    3    0  501 -0.68538630919E+02 -0.50330986179E+01  0.97345964499E+02  0.11923332258E+03  0.41800000000E+01 0. -1.
</event>
<event>
11    1  0.2450992E-009  0.3358385E+03  0.7561462E-02  0.9860696E-01
         22   -1    0    0    0    0  0.00000000000E+00  0.00000000000E+00  0.26314727748E+03  0.26314727748E+03  0.00000000000E+00 0. -1.
         22   -1    0    0    0    0 -0.00000000000E+00 -0.00000000000E+00 -0.74606673370E+03  0.74606673370E+03  0.00000000000E+00 0. -1.
         25    2    1    2    0    0  0.78409555811E+02 -0.32012664864E+03 -0.43393571059E+03  0.55909791694E+03  0.12514451720E+03 0.  0.
         24    2    1    2    0    0 -0.74091824811E+02  0.27447487657E+03 -0.13245416420E+03  0.32364599080E+03  0.79853399284E+02 0.  0.
        -24    2    1    2    0    0 -0.43177309999E+01  0.45651772073E+02  0.83470418565E+02  0.12647010344E+03  0.83214477073E+02 0.  0.
        -11    1    4    4    0    0  0.12826766370E+02  0.17346493372E+02 -0.21388460341E+02  0.30379154096E+02  0.00000000000E+00 0.  1.
         12    1    4    4    0    0 -0.86918591181E+02  0.25712838320E+03 -0.11106570386E+03  0.29326683671E+03  0.00000000000E+00 0. -1.
         11    1    5    5    0    0 -0.12156812466E+02  0.58457429307E+02  0.91641230703E+02  0.10937629677E+03  0.00000000000E+00 0. -1.
        -12    1    5    5    0    0  0.78390814665E+01 -0.12805657234E+02 -0.81708121387E+01  0.17093806669E+02  0.00000000000E+00 0.  1.
          5    1    3    3  501    0  0.59114004449E+02 -0.10297350878E+03 -0.79475034180E+02  0.14293971628E+03  0.41800000000E+01 0.  1.
         -5    1    3    3    0  501  0.19295551362E+02 -0.21715313987E+03 -0.35446067641E+03  0.41615820066E+03  0.41800000000E+01 0.  1.
</event>
<event>
11    1  0.2450992E-009  0.1648666E+03  0.7561462E-02  0.1082587E+00
         22   -1    0    0    0    0  0.00000000000E+00  0.00000000000E+00  0.95483417217E+03  0.95483417217E+03  0.00000000000E+00 0.  1.
         22   -1    0    0    0    0 -0.00000000000E+00 -0.00000000000E+00 -0.60372304463E+02  0.60372304463E+02  0.00000000000E+00 0. -1.
         25    2    1    2    0    0 -0.37022222486E+02  0.78945800805E+02  0.19726306356E+03  0.24932570967E+03  0.12509000293E+03 0.  0.
         24    2    1    2    0    0 -0.38592984432E+01 -0.13074081224E+03  0.17048145560E+03  0.22925814178E+03  0.79920677544E+02 0.  0.
        -24    2    1    2    0    0  0.40881520929E+02  0.51795011435E+02  0.52671734855E+03  0.53662262519E+03  0.78604418676E+02 0.  0.
        -11    1    4    4    0    0  0.33520934305E+02 -0.66519475753E+02  0.57809262182E+02  0.94288941479E+02  0.00000000000E+00 0.  1.
         12    1    4    4    0    0 -0.37380232748E+02 -0.64221336487E+02  0.11267219341E+03  0.13496920030E+03  0.00000000000E+00 0. -1.
         11    1    5    5    0    0 -0.20408549327E+02  0.21841512748E+02  0.24238152989E+03  0.24421786707E+03  0.00000000000E+00 0. -1.
        -12    1    5    5    0    0  0.61290070256E+02  0.29953498687E+02  0.28433581866E+03  0.29240475812E+03  0.00000000000E+00 0.  1.
          5    1    3    3  501    0 -0.38797432115E+02  0.98439122066E+02  0.86391183542E+02  0.13666166429E+03  0.41800000000E+01 0.  1.
         -5    1    3    3    0  501  0.17752096296E+01 -0.19493321261E+02  0.11087188002E+03  0.11266404538E+03  0.41800000000E+01 0.  1.
</event>
<event>
11    1  0.2450992E-009  0.8680987E+03  0.7561462E-02  0.8815706E-01
         22   -1    0    0    0    0  0.00000000000E+00  0.00000000000E+00  0.31028995050E+04  0.31028995050E+04  0.00000000000E+00 0.  1.
         22   -1    0    0    0    0 -0.00000000000E+00 -0.00000000000E+00 -0.59999051893E+03  0.59999051893E+03  0.00000000000E+00 0.  1.
         25    2    1    2    0    0  0.12093395030E+03  0.77398479554E+03  0.25067262050E+03  0.83196247472E+03  0.12508921860E+03 0.  0.
         24    2    1    2    0    0  0.34725439414E+03 -0.11312388862E+04  0.15312300260E+04  0.19363701733E+04  0.67653703660E+02 0.  0.
        -24    2    1    2    0    0 -0.46818834444E+03  0.35725409062E+03  0.72100633959E+03  0.93455737595E+03  0.81954475636E+02 0.  0.
        -13    1    4    4    0    0  0.16437912964E+03 -0.50012265893E+03  0.73360072861E+03  0.90294695373E+03  0.00000000000E+00 0.  1.
         14    1    4    4    0    0  0.18287526450E+03 -0.63111622722E+03  0.79762929739E+03  0.10334232195E+04  0.00000000000E+00 0. -1.
         11    1    5    5    0    0 -0.11268033712E+02 -0.77617954549E+00  0.38967793549E+01  0.11948051212E+02  0.00000000000E+00 0. -1.
        -12    1    5    5    0    0 -0.45692031073E+03  0.35803027016E+03  0.71710956024E+03  0.92260932474E+03  0.00000000000E+00 0.  1.
          5    1    3    3  501    0  0.90369880102E+02  0.22287962356E+03  0.59090219584E+02  0.24769167987E+03  0.41800000000E+01 0. -1.
         -5    1    3    3    0  501  0.30564070200E+02  0.55110517198E+03  0.19158240091E+03  0.58427079484E+03  0.41800000000E+01 0. -1.
</event>
<event>
11    1  0.2450992E-009  0.7174099E+03  0.7561462E-02  0.9007035E-01
         22   -1    0    0    0    0  0.00000000000E+00  0.00000000000E+00  0.15708991440E+03  0.15708991440E+03  0.00000000000E+00 0. -1.
         22   -1    0    0    0    0 -0.00000000000E+00 -0.00000000000E+00 -0.39964917512E+04  0.39964917512E+04  0.00000000000E+00 0. -1.
         25    2    1    2    0    0 -0.63065274940E+03  0.31465412838E+03 -0.24103440421E+04  0.25143857361E+04  0.12508843924E+03 0.  0.
         24    2    1    2    0    0  0.65007153268E+03 -0.28512436324E+03 -0.12959927208E+04  0.14797467091E+04  0.78512996577E+02 0.  0.
        -24    2    1    2    0    0 -0.19418783276E+02 -0.29529765143E+02 -0.13306507383E+03  0.15944922037E+03  0.80427879675E+02 0.  0.
        -13    1    4    4    0    0  0.24327811363E+03 -0.13889376582E+03 -0.56111259002E+03  0.62715473166E+03  0.00000000000E+00 0.  1.
         14    1    4    4    0    0  0.40679341905E+03 -0.14623059742E+03 -0.73488013080E+03  0.85259197747E+03  0.00000000000E+00 0. -1.
         13    1    5    5    0    0 -0.24227646406E+02 -0.36996164478E+02 -0.24568130224E+02  0.50589406590E+02  0.00000000000E+00 0. -1.
        -14    1    5    5    0    0  0.48088631307E+01  0.74663993351E+01 -0.10849694361E+03  0.10885981378E+03  0.00000000000E+00 0.  1.
          5    1    3    3  501    0 -0.39967771367E+03  0.19304475369E+03 -0.17192428318E+04  0.17756187482E+04  0.41800000000E+01 0.  1.
         -5    1    3    3    0  501 -0.23097503573E+03  0.12160937469E+03 -0.69110121031E+03  0.73876698792E+03  0.41800000000E+01 0.  1.
</event>
<event>
11    1  0.2450992E-009  0.3375080E+03  0.7561462E-02  0.9854584E-01
         22   -1    0    0    0    0  0.00000000000E+00  0.00000000000E+00  0.79526413849E+03  0.79526413849E+03  0.00000000000E+00 0.  1.
         22   -1    0    0    0    0 -0.00000000000E+00 -0.00000000000E+00 -0.12346062908E+03  0.12346062908E+03  0.00000000000E+00 0.  1.
         25    2    1    2    0    0  0.34572848108E+02  0.16798133766E+02  0.11088152580E+03  0.17152003574E+03  0.12508777227E+03 0.  0.
         24    2    1    2    0    0  0.18356207050E+03  0.30254691503E+02  0.92823800739E+02  0.22269752291E+03  0.79796921268E+02 0.  0.
        -24    2    1    2    0    0 -0.21813491861E+03 -0.47052825269E+02  0.46809818287E+03  0.52450720892E+03  0.78708908814E+02 0.  0.
        -11    1    4    4    0    0  0.14757477712E+03  0.43013517895E+02  0.10063082507E+03  0.18372544875E+03  0.00000000000E+00 0.  1.
         12    1    4    4    0    0  0.35987293379E+02 -0.12758826392E+02 -0.78070243315E+01  0.38972074163E+02  0.00000000000E+00 0. -1.
         11    1    5    5    0    0 -0.93415059874E+02  0.17089345208E+02  0.16143392530E+03  0.18729477133E+03  0.00000000000E+00 0. -1.
        -12    1    5    5    0    0 -0.12471985873E+03 -0.64142170477E+02  0.30666425757E+03  0.33721243759E+03  0.00000000000E+00 0.  1.
          5    1    3    3  501    0 -0.36385708328E+02 -0.23594073752E+02  0.63553734988E+02  0.77052902071E+02  0.41800000000E+01 0.  1.
         -5    1    3    3    0  501  0.70958556436E+02  0.40392207519E+02  0.47327790810E+02  0.94467133664E+02  0.41800000000E+01 0.  1.
</event>
<event>
11    1  0.2450992E-009  0.1423357E+03  0.7561462E-02  0.1104978E+00
         22   -1    0    0    0    0  0.00000000000E+00  0.00000000000E+00  0.62997816547E+03  0.62997816547E+03  0.00000000000E+00 0. -1.
         22   -1    0    0    0    0 -0.00000000000E+00 -0.00000000000E+00 -0.11030463070E+03  0.11030463070E+03  0.00000000000E+00 0.  1.
         25    2    1    2    0    0  0.40347097553E+02  0.29110256346E+02  0.45879148395E+02  0.14222471767E+03  0.12509068212E+03 0.  0.
        -24    2    1    2    0    0 -0.13078527930E+03  0.42188990320E+02  0.73468287292E+02  0.17399552636E+03  0.77409003152E+02 0.  0.
         24    2    1    2    0    0  0.90438181745E+02 -0.71299246667E+02  0.40032609908E+03  0.42406255215E+03  0.79406644781E+02 0.  0.
        -11    1    5    5    0    0  0.55314183340E+02 -0.85064494478E+02  0.30969034917E+03  0.32588915212E+03  0.00000000000E+00 0.  1.
         12    1    5    5    0    0  0.35123998405E+02  0.13765247811E+02  0.90635749915E+02  0.98173400033E+02  0.00000000000E+00 0. -1.
         11    1    4    4    0    0 -0.96649137288E+02  0.51025387766E+02  0.83267807566E+02  0.13739786648E+03  0.00000000000E+00 0. -1.
        -12    1    4    4    0    0 -0.34136142009E+02 -0.88363974460E+01 -0.97995202737E+01  0.36597659880E+02  0.00000000000E+00 0.  1.
          5    1    3    3  501    0  0.47419731142E+02  0.41196341307E+02 -0.26558863634E+02  0.68327264516E+02  0.41800000000E+01 0.  1.
         -5    1    3    3    0  501 -0.70726335891E+01 -0.12086084961E+02  0.72438012029E+02  0.73897453152E+02  0.41800000000E+01 0.  1.
</event>
<event>
11    1  0.2450992E-009  0.1814324E+03  0.7561462E-02  0.1068490E+00
         22   -1    0    0    0    0  0.00000000000E+00  0.00000000000E+00  0.43086623335E+03  0.43086623335E+03  0.00000000000E+00 0.  1.
         22   -1    0    0    0    0 -0.00000000000E+00 -0.00000000000E+00 -0.38228305617E+03  0.38228305617E+03  0.00000000000E+00 0. -1.
         25    2    1    2    0    0  0.13488458385E+03  0.29055840541E+02 -0.23150602385E+03  0.29712098785E+03  0.12509096494E+03 0.  0.
         24    2    1    2    0    0 -0.21348356994E+02  0.37104673594E+02 -0.81259477560E+02  0.12331403735E+03  0.82284506228E+02 0.  0.
        -24    2    1    2    0    0 -0.11353622686E+03 -0.66160514135E+02  0.36134867858E+03  0.39271426432E+03  0.79899545974E+02 0.  0.
        -13    1    4    4    0    0  0.10896545513E+02 -0.22454044724E+02 -0.19812140707E+02  0.31865965354E+02  0.00000000000E+00 0.  1.
         14    1    4    4    0    0 -0.32244902507E+02  0.59558718318E+02 -0.61447336854E+02  0.91448071995E+02  0.00000000000E+00 0. -1.
         11    1    5    5    0    0 -0.95128616754E+01 -0.35466891434E+02  0.15842765214E+03  0.16262753730E+03  0.00000000000E+00 0. -1.
        -12    1    5    5    0    0 -0.10402336518E+03 -0.30693622701E+02  0.20292102644E+03  0.23008672702E+03  0.00000000000E+00 0.  1.
          5    1    3    3  501    0  0.26356897886E+02  0.53595148549E+02 -0.30162028037E+02  0.67039886258E+02  0.41800000000E+01 0.  1.
         -5    1    3    3    0  501  0.10852768597E+03 -0.24539308008E+02 -0.20134399581E+03  0.23008110159E+03  0.41800000000E+01 0.  1.
</event>
<event>
11    1  0.2450992E-009  0.1816734E+03  0.7561462E-02  0.1068297E+00
         22   -1    0    0    0    0  0.00000000000E+00  0.00000000000E+00  0.88496860351E+03  0.88496860351E+03  0.00000000000E+00 0.  1.
         22   -1    0    0    0    0 -0.00000000000E+00 -0.00000000000E+00 -0.17245559871E+04  0.17245559871E+04  0.00000000000E+00 0.  1.
         25    2    1    2    0    0  0.11274400407E+03 -0.71537559701E+02 -0.16934889471E+04  0.17033432245E+04  0.12507795069E+03 0.  0.
        -24    2    1    2    0    0 -0.44023062847E+02  0.74254617515E+02  0.13029516591E+03  0.17475212589E+03  0.78164550521E+02 0.  0.
         24    2    1    2    0    0 -0.68720941223E+02 -0.27170578144E+01  0.72360639759E+03  0.73142924020E+03  0.81563255356E+02 0.  0.
        -11    1    5    5    0    0 -0.84615014745E+02  0.22353115119E+01  0.49223570227E+03  0.49946039275E+03  0.00000000000E+00 0.  1.
         12    1    5    5    0    0  0.15894073522E+02 -0.49523693263E+01  0.23137069532E+03  0.23196884745E+03  0.00000000000E+00 0. -1.
         13    1    4    4    0    0 -0.38122621760E+02  0.90866039187E+02  0.11470427335E+03  0.15121852298E+03  0.00000000000E+00 0. -1.
        -14    1    4    4    0    0 -0.59004410877E+01 -0.16611421672E+02  0.15590892555E+02  0.23533602904E+02  0.00000000000E+00 0.  1.
          5    1    3    3  501    0 -0.11383473693E+02 -0.54458786231E-01 -0.17801079410E+02  0.21539203032E+02  0.41800000000E+01 0. -1.
         -5    1    3    3    0  501  0.12412747776E+03 -0.71483100914E+02 -0.16756878677E+04  0.16818040215E+04  0.41800000000E+01 0.  1.
</event>
<event>
11    1  0.2450992E-009  0.6349574E+03  0.7561462E-02  0.9134057E-01
         22   -1    0    0    0    0  0.00000000000E+00  0.00000000000E+00  0.58464331075E+03  0.58464331075E+03  0.00000000000E+00 0.  1.
         22   -1    0    0    0    0 -0.00000000000E+00 -0.00000000000E+00 -0.14257266153E+04  0.14257266153E+04  0.00000000000E+00 0.  1.
         25    2    1    2    0    0  0.45221444746E+03 -0.44699632657E+03 -0.80228638295E+03  0.10313208370E+04  0.12512236483E+03 0.  0.
        -24    2    1    2    0    0 -0.25112200144E+03 -0.15155173893E+03 -0.13952947697E+03  0.33459991644E+03  0.80364419769E+02 0.  0.
         24    2    1    2    0    0 -0.20109244602E+03  0.59854806550E+03  0.10073255535E+03  0.64444917258E+03  0.80434630468E+02 0.  0.
        -13    1    5    5    0    0 -0.10935157068E+03  0.27799543695E+03  0.85303711490E+02  0.31067016620E+03  0.00000000000E+00 0.  1.
         14    1    5    5    0    0 -0.91740875345E+02  0.32055262855E+03  0.15428843861E+02  0.33377900638E+03  0.00000000000E+00 0. -1.
         13    1    4    4    0    0 -0.14399040241E+03 -0.12089058680E+03 -0.58776681356E+02  0.19698342122E+03  0.00000000000E+00 0. -1.
        -14    1    4    4    0    0 -0.10713159902E+03 -0.30661152126E+02 -0.80752795611E+02  0.13761649522E+03  0.00000000000E+00 0.  1.
          5    1    3    3  501    0  0.18448646871E+03 -0.11423657245E+03 -0.32531347044E+03  0.39106467250E+03  0.41800000000E+01 0. -1.
         -5    1    3    3    0  501  0.26772797875E+03 -0.33275975412E+03 -0.47697291251E+03  0.64025616455E+03  0.41800000000E+01 0. -1.
</event>
<event>
11    1  0.2450992E-009  0.1429978E+03  0.7561462E-02  0.1104256E+00
         22   -1    0    0    0    0  0.00000000000E+00  0.00000000000E+00  0.80063735351E+03  0.80063735351E+03  0.00000000000E+00 0.  1.
         22   -1    0    0    0    0 -0.00000000000E+00 -0.00000000000E+00 -0.51847111465E+02  0.51847111465E+02  0.00000000000E+00 0.  1.
         25    2    1    2    0    0 -0.13331479437E+02 -0.33903360317E+02  0.16493620346E+03  0.21018092808E+03  0.12507959519E+03 0.  0.
         24    2    1    2    0    0  0.42961263420E+02  0.11584080260E+03  0.29176165161E+03  0.32705621413E+03  0.81093428511E+02 0.  0.
        -24    2    1    2    0    0 -0.29629783983E+02 -0.81937442280E+02  0.29209238697E+03  0.31524732276E+03  0.80444039166E+02 0.  0.
        -11    1    4    4    0    0  0.25797290029E+02  0.12185039972E+03  0.21786287310E+03  0.25095268789E+03  0.00000000000E+00 0.  1.
         12    1    4    4    0    0  0.17163973391E+02 -0.60095971230E+01  0.73898778507E+02  0.76103526233E+02  0.00000000000E+00 0. -1.
         13    1    5    5    0    0  0.23224678700E+02 -0.70454360321E+01  0.92181023400E+02  0.95322426242E+02  0.00000000000E+00 0. -1.
        -14    1    5    5    0    0 -0.52854462684E+02 -0.74892006248E+02  0.19991136357E+03  0.21992489652E+03  0.00000000000E+00 0.  1.
          5    1    3    3  501    0  0.35721833003E+02  0.67642522024E+01  0.13459849640E+03  0.13948488124E+03  0.41800000000E+01 0. -1.
         -5    1    3    3    0  501 -0.49053312440E+02 -0.40667612520E+02  0.30337707059E+02  0.70696046841E+02  0.41800000000E+01 0. -1.
</event>
<event>
11    1  0.2450992E-009  0.1726417E+03  0.7561462E-02  0.1075755E+00
         22   -1    0    0    0    0  0.00000000000E+00  0.00000000000E+00  0.26782709128E+03  0.26782709128E+03  0.00000000000E+00 0.  1.
         22   -1    0    0    0    0 -0.00000000000E+00 -0.00000000000E+00 -0.15827688808E+03  0.15827688808E+03  0.00000000000E+00 0.  1.
         25    2    1    2    0    0  0.33334302874E+02 -0.12819696236E+03 -0.91586922241E+01  0.18241824557E+03  0.12508756041E+03 0.  0.
        -24    2    1    2    0    0 -0.29338025649E+02  0.95269672751E+02  0.91324443010E+02  0.15777341101E+03  0.81334279579E+02 0.  0.
         24    2    1    2    0    0 -0.39962772256E+01  0.32927289608E+02  0.27384452419E+02  0.85912322784E+02  0.74369633179E+02 0.  0.
        -13    1    5    5    0    0 -0.32218005653E+02 -0.19563899683E+01  0.25269332661E+02  0.40992273944E+02  0.00000000000E+00 0.  1.
         14    1    5    5    0    0  0.28221728427E+02  0.34883679576E+02  0.21151197581E+01  0.44920048840E+02  0.00000000000E+00 0. -1.
         11    1    4    4    0    0  0.19264912641E+02  0.81581634523E+01  0.41036017196E+02  0.46061341679E+02  0.00000000000E+00 0. -1.
        -12    1    4    4    0    0 -0.48602938290E+02  0.87111509299E+02  0.50288425814E+02  0.11171206933E+03  0.00000000000E+00 0.  1.
          5    1    3    3  501    0 -0.14496284854E+02 -0.31464284190E+02  0.48693627760E+02  0.59905636117E+02  0.41800000000E+01 0.  1.
         -5    1    3    3    0  501  0.47830587729E+02 -0.96732678169E+02 -0.57852319984E+02  0.12251260946E+03  0.41800000000E+01 0.  1.
</event>
<event>
11    1  0.2450992E-009  0.1583385E+03  0.7561462E-02  0.1088651E+00
         22   -1    0    0    0    0  0.00000000000E+00  0.00000000000E+00  0.49160694610E+02  0.49160694610E+02  0.00000000000E+00 0. -1.
         22   -1    0    0    0    0 -0.00000000000E+00 -0.00000000000E+00 -0.18906548495E+04  0.18906548495E+04  0.00000000000E+00 0. -1.
         25    2    1    2    0    0 -0.10692912513E+03 -0.19922705685E+02 -0.16379365288E+04  0.16463032559E+04  0.12509031233E+03 0.  0.
         24    2    1    2    0    0  0.58073364149E+02 -0.71827847616E+01 -0.15673933660E+03  0.18602968163E+03  0.81337044370E+02 0.  0.
        -24    2    1    2    0    0  0.48855760983E+02  0.27105490447E+02 -0.46818289536E+02  0.10748260656E+03  0.78987122271E+02 0.  0.
        -13    1    4    4    0    0 -0.98519887820E+01 -0.87626753510E+01 -0.89407337646E+02  0.90374322610E+02  0.00000000000E+00 0.  1.
         14    1    4    4    0    0  0.67925352931E+02  0.15798905894E+01 -0.67331998958E+02  0.95655359018E+02  0.00000000000E+00 0. -1.
         13    1    5    5    0    0  0.56571339820E+02  0.47644425868E+02 -0.29899072516E+02  0.79776326956E+02  0.00000000000E+00 0. -1.
        -14    1    5    5    0    0 -0.77155788378E+01 -0.20538935421E+02 -0.16919217019E+02  0.27706279605E+02  0.00000000000E+00 0.  1.
          5    1    3    3  501    0  0.11966629696E+02 -0.38532777422E+02 -0.60793084204E+03  0.60928265712E+03  0.41800000000E+01 0. -1.
         -5    1    3    3    0  501 -0.11889575483E+03  0.18610071736E+02 -0.10300056867E+04  0.10370205988E+04  0.41800000000E+01 0. -1.
</event>
<event>
11    1  0.2450992E-009  0.2675995E+03  0.7561462E-02  0.1014920E+00
         22   -1    0    0    0    0  0.00000000000E+00  0.00000000000E+00  0.16448086757E+04  0.16448086757E+04  0.00000000000E+00 0. -1.
         22   -1    0    0    0    0 -0.00000000000E+00 -0.00000000000E+00 -0.69907180875E+02  0.69907180875E+02  0.00000000000E+00 0. -1.
         25    2    1    2    0    0 -0.25622052066E+03 -0.26160696018E+02  0.55725449467E+03  0.62650863742E+03  0.12508862341E+03 0.  0.
        -24    2    1    2    0    0  0.20785381556E+03  0.83621491560E+02  0.44187353031E+03  0.50197480905E+03  0.80812929915E+02 0.  0.
         24    2    1    2    0    0  0.48366705095E+02 -0.57460795542E+02  0.57577346983E+03  0.58623241009E+03  0.80698630063E+02 0.  0.
        -11    1    5    5    0    0  0.54173901352E+02 -0.69887657447E+02  0.54974146284E+03  0.55680766178E+03  0.00000000000E+00 0.  1.
         12    1    5    5    0    0 -0.58071962571E+01  0.12426861905E+02  0.26032006985E+02  0.29424748305E+02  0.00000000000E+00 0. -1.
         11    1    4    4    0    0  0.19011377269E+03  0.45864088980E+02  0.34658993244E+03  0.39795897086E+03  0.00000000000E+00 0. -1.
        -12    1    4    4    0    0  0.17740042873E+02  0.37757402580E+02  0.95283597875E+02  0.10401583819E+03  0.00000000000E+00 0.  1.
          5    1    3    3  501    0 -0.11078049533E+03  0.19640240448E+02  0.12549522918E+03  0.16859591377E+03  0.41800000000E+01 0. -1.
         -5    1    3    3    0  501 -0.14544002533E+03 -0.45800936466E+02  0.43175926548E+03  0.45791272365E+03  0.41800000000E+01 0. -1.
</event>
<event>
11    1  0.2450992E-009  0.6416651E+03  0.7561462E-02  0.9122981E-01
         22   -1    0    0    0    0  0.00000000000E+00  0.00000000000E+00  0.10779478104E+04  0.10779478104E+04  0.00000000000E+00 0. -1.
         22   -1    0    0    0    0 -0.00000000000E+00 -0.00000000000E+00 -0.15792992510E+04  0.15792992510E+04  0.00000000000E+00 0. -1.
         25    2    1    2    0    0  0.32819138321E+01 -0.62461602538E+03 -0.13512307193E+04  0.14938635317E+04  0.12509134425E+03 0.  0.
        -24    2    1    2    0    0 -0.16169116346E+02  0.68717068707E+03  0.73600908032E+03  0.10103182707E+04  0.81047197943E+02 0.  0.
         24    2    1    2    0    0  0.12887202514E+02 -0.62554661684E+02  0.11387019841E+03  0.15306525900E+03  0.79896093390E+02 0.  0.
        -13    1    5    5    0    0 -0.66808221019E+01 -0.56143238369E+02  0.11908344033E+03  0.13182398249E+03  0.00000000000E+00 0.  1.
         14    1    5    5    0    0  0.19568024616E+02 -0.64114233154E+01 -0.52132419216E+01  0.21241276506E+02  0.00000000000E+00 0. -1.
         11    1    4    4    0    0 -0.44625755722E+02  0.43552609065E+03  0.49301643060E+03  0.65934788583E+03  0.00000000000E+00 0. -1.
        -12    1    4    4    0    0  0.28456639376E+02  0.25164459642E+03  0.24299264972E+03  0.35097038486E+03  0.00000000000E+00 0.  1.
          5    1    3    3  501    0 -0.29462983207E+02 -0.68576779848E+02 -0.10580939267E+03  0.12955285443E+03  0.41800000000E+01 0.  1.
         -5    1    3    3    0  501  0.32744897039E+02 -0.55603924554E+03 -0.12454213267E+04  0.13643106773E+04  0.41800000000E+01 0.  1.
</event>
<event>
11    1  0.2450992E-009  0.1652560E+03  0.7561462E-02  0.1082235E+00
         22   -1    0    0    0    0  0.00000000000E+00  0.00000000000E+00  0.35023726465E+03  0.35023726465E+03  0.00000000000E+00 0.  1.
         22   -1    0    0    0    0 -0.00000000000E+00 -0.00000000000E+00 -0.14202188937E+03  0.14202188937E+03  0.00000000000E+00 0.  1.
         25    2    1    2    0    0 -0.99756602600E+02 -0.55372841659E+02  0.18084657102E+02  0.17025503878E+03  0.12506874931E+03 0.  0.
         24    2    1    2    0    0 -0.14933443500E+02  0.83750961811E+02  0.72587573562E+02  0.13712469162E+03  0.79353600283E+02 0.  0.
        -24    2    1    2    0    0  0.11469004610E+03 -0.28378120152E+02  0.11754314462E+03  0.18487942361E+03  0.80030531988E+02 0.  0.
        -11    1    4    4    0    0 -0.25266695295E+02  0.89003890751E+02  0.80866552530E+02  0.12288001374E+03  0.00000000000E+00 0.  1.
         12    1    4    4    0    0  0.10333251794E+02 -0.52529289393E+01 -0.82789789679E+01  0.14244677878E+02  0.00000000000E+00 0. -1.
         11    1    5    5    0    0  0.51562699358E+02 -0.28640290225E+00  0.10164875788E+03  0.11397922605E+03  0.00000000000E+00 0. -1.
        -12    1    5    5    0    0  0.63127346743E+02 -0.28091717250E+02  0.15894386737E+02  0.70900197564E+02  0.00000000000E+00 0.  1.
          5    1    3    3  501    0 -0.81835723022E+02  0.25899463456E+02  0.10622368426E+02  0.86592002407E+02  0.41800000000E+01 0.  1.
         -5    1    3    3    0  501 -0.17920879579E+02 -0.81272305115E+02  0.74622886760E+01  0.83663036378E+02  0.41800000000E+01 0.  1.
</event>
<event>
11    1  0.2450992E-009  0.1455565E+03  0.7561462E-02  0.1101508E+00
         22   -1    0    0    0    0  0.00000000000E+00  0.00000000000E+00  0.26023861837E+03  0.26023861837E+03  0.00000000000E+00 0. -1.
         22   -1    0    0    0    0 -0.00000000000E+00 -0.00000000000E+00 -0.12375818669E+03  0.12375818669E+03  0.00000000000E+00 0.  1.
         25    2    1    2    0    0  0.10905357313E+02  0.87718702955E+02  0.18692818362E+02  0.15431146934E+03  0.12509640461E+03 0.  0.
        -24    2    1    2    0    0  0.23657861517E+02 -0.61280986395E+02  0.47170300483E+02  0.11551791137E+03  0.82488162152E+02 0.  0.
         24    2    1    2    0    0 -0.34563218831E+02 -0.26437716560E+02  0.70617312832E+02  0.11416742434E+03  0.78446331693E+02 0.  0.
        -13    1    5    5    0    0 -0.45712642210E+02 -0.36783068400E+02  0.21076981582E+02  0.62344838851E+02  0.00000000000E+00 0.  1.
         14    1    5    5    0    0  0.11149423379E+02  0.10345351840E+02  0.49540331251E+02  0.51822585489E+02  0.00000000000E+00 0. -1.
         11    1    4    4    0    0 -0.67709923548E+01 -0.37467981407E+02  0.63121510403E+02  0.73715812712E+02  0.00000000000E+00 0. -1.
        -12    1    4    4    0    0  0.30428853872E+02 -0.23813004988E+02 -0.15951209920E+02  0.41802098661E+02  0.00000000000E+00 0.  1.
          5    1    3    3  501    0  0.30887177432E+02  0.94230097009E+02  0.54015442006E+02  0.11299765169E+03  0.41800000000E+01 0. -1.
         -5    1    3    3    0  501 -0.19981820119E+02 -0.65113940546E+01 -0.35322623644E+02  0.41313817651E+02  0.41800000000E+01 0. -1.
</event>
<event>
11    1  0.2450992E-009  0.2618955E+03  0.7561462E-02  0.1017746E+00
         22   -1    0    0    0    0  0.00000000000E+00  0.00000000000E+00  0.18944966910E+04  0.18944966910E+04  0.00000000000E+00 0.  1.
         22   -1    0    0    0    0 -0.00000000000E+00 -0.00000000000E+00 -0.23323882658E+02  0.23323882658E+02  0.00000000000E+00 0.  1.
         25    2    1    2    0    0 -0.22937960399E+02 -0.19068427837E+02  0.53717245319E+03  0.55235011080E+03  0.12508655192E+03 0.  0.
         24    2    1    2    0    0  0.12314286632E+03  0.53467423384E+02  0.65763698299E+03  0.67634627195E+03  0.83276330920E+02 0.  0.
        -24    2    1    2    0    0 -0.10020490592E+03 -0.34398995547E+02  0.67636337217E+03  0.68912419092E+03  0.78742778877E+02 0.  0.
        -11    1    4    4    0    0  0.88542107524E+02  0.72430445914E+02  0.54834595335E+03  0.56015101433E+03  0.00000000000E+00 0.  1.
         12    1    4    4    0    0  0.34600758796E+02 -0.18963022530E+02  0.10929102964E+03  0.11619525761E+03  0.00000000000E+00 0. -1.
         13    1    5    5    0    0 -0.86977434032E+01 -0.88166716324E+01  0.32216315546E+03  0.32240112154E+03  0.00000000000E+00 0. -1.
        -14    1    5    5    0    0 -0.91507162518E+02 -0.25582323915E+02  0.35420021671E+03  0.36672306937E+03  0.00000000000E+00 0.  1.
          5    1    3    3  501    0 -0.55006862494E+02  0.34336322631E+02  0.31120157476E+03  0.31791292912E+03  0.41800000000E+01 0.  1.
         -5    1    3    3    0  501  0.32068902095E+02 -0.53404750467E+02  0.22597087843E+03  0.23443718168E+03  0.41800000000E+01 0.  1.
</event>
<event>
11    1  0.2450992E-009  0.2337334E+03  0.7561462E-02  0.1032940E+00
         22   -1    0    0    0    0  0.00000000000E+00  0.00000000000E+00  0.66532369764E+03  0.66532369764E+03  0.00000000000E+00 0.  1.
         22   -1    0    0    0    0 -0.00000000000E+00 -0.00000000000E+00 -0.27680246620E+03  0.27680246620E+03  0.00000000000E+00 0.  1.
         25    2    1    2    0    0 -0.69332306675E+02 -0.89146533134E+02 -0.11415645002E+03  0.20355221923E+03  0.12509091794E+03 0.  0.
         24    2    1    2    0    0  0.88289540946E+02  0.27844545035E+03  0.17882273407E+03  0.35441292273E+03  0.91126492949E+02 0.  0.
        -24    2    1    2    0    0 -0.18957234271E+02 -0.18929891722E+03  0.32385494739E+03  0.38416102188E+03  0.80648663925E+02 0.  0.
        -11    1    4    4    0    0  0.75121629881E+02  0.10008101500E+03  0.53885521197E+02  0.13624653476E+03  0.00000000000E+00 0.  1.
         12    1    4    4    0    0  0.13167911065E+02  0.17836443535E+03  0.12493721287E+03  0.21816638797E+03  0.00000000000E+00 0. -1.
         13    1    5    5    0    0 -0.19012743334E+02 -0.18260700444E+03  0.25089094915E+03  0.31089076996E+03  0.00000000000E+00 0. -1.
        -14    1    5    5    0    0  0.55509062690E-01 -0.66919127791E+01  0.72963998238E+02  0.73270251922E+02  0.00000000000E+00 0.  1.
          5    1    3    3  501    0 -0.56707128837E+02 -0.38777122601E+01  0.41163578721E+01  0.57141507816E+02  0.41800000000E+01 0.  1.
         -5    1    3    3    0  501 -0.12625177838E+02 -0.85268820874E+02 -0.11827280789E+03  0.14641071141E+03  0.41800000000E+01 0.  1.
</event>
<event>
11    1  0.2450992E-009  0.4138224E+03  0.7561462E-02  0.9609832E-01
         22   -1    0    0    0    0  0.00000000000E+00  0.00000000000E+00  0.20879943758E+04  0.20879943758E+04  0.00000000000E+00 0. -1.
         22   -1    0    0    0    0 -0.00000000000E+00 -0.00000000000E+00 -0.22720890620E+03  0.22720890620E+03  0.00000000000E+00 0.  1.
         25    2    1    2    0    0  0.21566741604E+03  0.32954323647E+02  0.55358145530E+01  0.25155101491E+03  0.12509534792E+03 0.  0.
         24    2    1    2    0    0  0.22483800856E+03 -0.19243151580E+03  0.26989064054E+03  0.40856247817E+03  0.80624576587E+02 0.  0.
        -24    2    1    2    0    0 -0.44050542461E+03  0.15947719216E+03  0.15853590145E+04  0.16550897889E+04  0.80504661711E+02 0.  0.
        -11    1    4    4    0    0  0.13302070331E+03 -0.60940993866E+02  0.12556788437E+03  0.19280976590E+03  0.00000000000E+00 0.  1.
         12    1    4    4    0    0  0.91817305257E+02 -0.13149052194E+03  0.14432275617E+03  0.21575271227E+03  0.00000000000E+00 0. -1.
         11    1    5    5    0    0 -0.33882625539E+02  0.34528597487E+01  0.20011254373E+03  0.20299010989E+03  0.00000000000E+00 0. -1.
        -12    1    5    5    0    0 -0.40662279907E+03  0.15602433241E+03  0.13852464708E+04  0.14520996790E+04  0.00000000000E+00 0.  1.
          5    1    3    3  501    0  0.16660294095E+03  0.27237281367E+02  0.58777826505E+02  0.17880356462E+03  0.41800000000E+01 0. -1.
         -5    1    3    3    0  501  0.49064475089E+02  0.57170422796E+01 -0.53242011952E+02  0.72747450298E+02  0.41800000000E+01 0. -1.
</event>
<event>
11    1  0.2450992E-009  0.8802421E+03  0.7561462E-02  0.8802088E-01
         22   -1    0    0    0    0  0.00000000000E+00  0.00000000000E+00  0.12095887753E+04  0.12095887753E+04  0.00000000000E+00 0. -1.
         22   -1    0    0    0    0 -0.00000000000E+00 -0.00000000000E+00 -0.16715019246E+04  0.16715019246E+04  0.00000000000E+00 0. -1.
         25    2    1    2    0    0 -0.44383636849E+03  0.73782089955E+03 -0.12711209517E+04  0.15403789619E+04  0.12509384752E+03 0.  0.
        -24    2    1    2    0    0  0.52100946826E+03 -0.78707225465E+03  0.70217221008E+03  0.11792098082E+04  0.80971347026E+02 0.  0.
         24    2    1    2    0    0 -0.77173099771E+02  0.49251355106E+02  0.10703559227E+03  0.16150192977E+03  0.79024502521E+02 0.  0.
        -11    1    5    5    0    0  0.14744425986E+02 -0.21692622696E+01  0.79266721411E+01  0.16880045251E+02  0.00000000000E+00 0.  1.
         12    1    5    5    0    0 -0.91917525757E+02  0.51420617375E+02  0.99108920128E+02  0.14462188452E+03  0.00000000000E+00 0. -1.
         13    1    4    4    0    0  0.34256384458E+03 -0.45108463510E+03  0.40103137764E+03  0.69401260902E+03  0.00000000000E+00 0. -1.
        -14    1    4    4    0    0  0.17844562368E+03 -0.33598761956E+03  0.30114083244E+03  0.48519719916E+03  0.00000000000E+00 0.  1.
          5    1    3    3  501    0 -0.15183483539E+03  0.22551224759E+03 -0.50551049974E+03  0.57399296930E+03  0.41800000000E+01 0. -1.
         -5    1    3    3    0  501 -0.29200153310E+03  0.51230865196E+03 -0.76561045193E+03  0.96638599261E+03  0.41800000000E+01 0. -1.
</event>
<event>
11    1  0.2450992E-009  0.1481885E+03  0.7561462E-02  0.1098744E+00
         22   -1    0    0    0    0  0.00000000000E+00  0.00000000000E+00  0.25025149900E+02  0.25025149900E+02  0.00000000000E+00 0.  1.
         22   -1    0    0    0    0 -0.00000000000E+00 -0.00000000000E+00 -0.16093527911E+04  0.16093527911E+04  0.00000000000E+00 0.  1.
         25    2    1    2    0    0 -0.16624163911E+02 -0.22840597977E+02 -0.77847482763E+03  0.78896675704E+03  0.12508969066E+03 0.  0.
         24    2    1    2    0    0  0.38104559866E+02 -0.79370987543E+02 -0.49103173132E+03  0.50400993211E+03  0.71848029579E+02 0.  0.
        -24    2    1    2    0    0 -0.21480395956E+02  0.10221158552E+03 -0.31482108230E+03  0.34140125191E+03  0.80832452137E+02 0.  0.
        -11    1    4    4    0    0  0.37196956310E+02 -0.64011523066E+02 -0.47842270871E+03  0.48411711068E+03  0.00000000000E+00 0.  1.
         12    1    4    4    0    0  0.90760355601E+00 -0.15359464476E+02 -0.12609022612E+02  0.19892821430E+02  0.00000000000E+00 0. -1.
         13    1    5    5    0    0 -0.19484665880E+02  0.44833511249E+00 -0.12021917657E+03  0.12178876641E+03  0.00000000000E+00 0. -1.
        -14    1    5    5    0    0 -0.19957300757E+01  0.10176325041E+03 -0.19460190573E+03  0.21961248549E+03  0.00000000000E+00 0.  1.
          5    1    3    3  501    0 -0.70977741755E+02 -0.94877312019E+01 -0.40620656437E+03  0.41249133591E+03  0.41800000000E+01 0.  1.
         -5    1    3    3    0  501  0.54353577844E+02 -0.13352866775E+02 -0.37226826326E+03  0.37647542112E+03  0.41800000000E+01 0.  1.
</event>
<event>
11    1  0.2450992E-009  0.5869400E+03  0.7561462E-02  0.9217818E-01
         22   -1    0    0    0    0  0.00000000000E+00  0.00000000000E+00  0.99473373436E+03  0.99473373436E+03  0.00000000000E+00 0.  1.
         22   -1    0    0    0    0 -0.00000000000E+00 -0.00000000000E+00 -0.99038706238E+03  0.99038706238E+03  0.00000000000E+00 0.  1.
         25    2    1    2    0    0  0.60548256242E+03 -0.98144522368E+02 -0.64836594748E+03  0.90125860784E+03  0.12508875127E+03 0.  0.
         24    2    1    2    0    0 -0.28498578302E+03 -0.19888813795E+03  0.94060828423E+02  0.36887546388E+03  0.80301185978E+02 0.  0.
        -24    2    1    2    0    0 -0.32049677940E+03  0.29703266031E+03  0.55865179103E+03  0.71498672502E+03  0.90374810788E+02 0.  0.
        -13    1    4    4    0    0 -0.25366742997E+03 -0.19398319662E+03  0.65032494444E+02  0.32589242233E+03  0.00000000000E+00 0.  1.
         14    1    4    4    0    0 -0.31318353045E+02 -0.49049413246E+01  0.29028333979E+02  0.42983041545E+02  0.00000000000E+00 0. -1.
         13    1    5    5    0    0  0.24790819607E+01 -0.30323246735E+00  0.19744149605E+02  0.19901488410E+02  0.00000000000E+00 0. -1.
        -14    1    5    5    0    0 -0.32297586136E+03  0.29733589278E+03  0.53890764143E+03  0.69508523661E+03  0.00000000000E+00 0.  1.
          5    1    3    3  501    0  0.36437790922E+02 -0.46755231341E+01 -0.50746550095E+01  0.37320204278E+02  0.41800000000E+01 0. -1.
         -5    1    3    3    0  501  0.56904477150E+03 -0.93468999234E+02 -0.64329129247E+03  0.86393840357E+03  0.41800000000E+01 0. -1.
</event>
<event>
11    1  0.2450992E-009  0.3734613E+03  0.7561462E-02  0.9731479E-01
         22   -1    0    0    0    0  0.00000000000E+00  0.00000000000E+00  0.12233103711E+03  0.12233103711E+03  0.00000000000E+00 0. -1.
         22   -1    0    0    0    0 -0.00000000000E+00 -0.00000000000E+00 -0.24748806698E+04  0.24748806698E+04  0.00000000000E+00 0. -1.
         25    2    1    2    0    0 -0.32700594722E+03  0.14814172914E+03 -0.18593032735E+04  0.18977710518E+04  0.12508973084E+03 0.  0.
         24    2    1    2    0    0  0.24645365230E+03 -0.23620058965E+03 -0.36702960240E+03  0.50772127808E+03  0.80870550235E+02 0.  0.
        -24    2    1    2    0    0  0.80552294912E+02  0.88058860507E+02 -0.12621675680E+03  0.19171937704E+03  0.81133314412E+02 0.  0.
        -13    1    4    4    0    0  0.18469449780E+02 -0.59004666502E+02 -0.57757769591E+02  0.84608694543E+02  0.00000000000E+00 0.  1.
         14    1    4    4    0    0  0.22798420252E+03 -0.17719592315E+03 -0.30927183281E+03  0.42311258354E+03  0.00000000000E+00 0. -1.
         11    1    5    5    0    0  0.50884301675E+02  0.99752797127E+02 -0.91803616585E+02  0.14480240575E+03  0.00000000000E+00 0. -1.
        -12    1    5    5    0    0  0.29667993237E+02 -0.11693936619E+02 -0.34413140214E+02  0.46916971297E+02  0.00000000000E+00 0.  1.
          5    1    3    3  501    0 -0.10952870606E+03  0.11326117343E+03 -0.87908708594E+03  0.89310481351E+03  0.41800000000E+01 0.  1.
         -5    1    3    3    0  501 -0.21747724116E+03  0.34880555715E+02 -0.98021618758E+03  0.10046662383E+04  0.41800000000E+01 0.  1.
</event>
<event>
11    1  0.2450992E-009  0.1412008E+03  0.7561462E-02  0.1106225E+00
         22   -1    0    0    0    0  0.00000000000E+00  0.00000000000E+00  0.12991696628E+04  0.12991696628E+04  0.00000000000E+00 0. -1.
         22   -1    0    0    0    0 -0.00000000000E+00 -0.00000000000E+00 -0.31677622107E+02  0.31677622107E+02  0.00000000000E+00 0. -1.
         25    2    1    2    0    0 -0.49235139838E+02 -0.44239327006E+01  0.39411657854E+03  0.41643770787E+03  0.12509523126E+03 0.  0.
         24    2    1    2    0    0  0.28585143152E+02 -0.97590682413E+02  0.52852148175E+03  0.54536794009E+03  0.88035116331E+02 0.  0.
        -24    2    1    2    0    0  0.20649996685E+02  0.10201461511E+03  0.34485398037E+03  0.36904163690E+03  0.80212579650E+02 0.  0.
        -13    1    4    4    0    0 -0.89631475773E+00  0.10046952101E+02  0.76099308838E+01  0.12635492658E+02  0.00000000000E+00 0.  1.
         14    1    4    4    0    0  0.29481457910E+02 -0.10763763451E+03  0.52091155086E+03  0.53273244743E+03  0.00000000000E+00 0. -1.
         11    1    5    5    0    0  0.39165909891E+02  0.94544517123E+02  0.22044115387E+03  0.24303690365E+03  0.00000000000E+00 0. -1.
        -12    1    5    5    0    0 -0.18515913206E+02  0.74700979898E+01  0.12441282649E+03  0.12600473325E+03  0.00000000000E+00 0.  1.
          5    1    3    3  501    0 -0.28917550027E+02 -0.10291263059E+01  0.39433518615E+03  0.39541749485E+03  0.41800000000E+01 0.  1.
         -5    1    3    3    0  501 -0.20317589811E+02 -0.33948063947E+01 -0.21860760914E+00  0.21020213021E+02  0.41800000000E+01 0.  1.
</event>
<event>
11    1  0.2450992E-009  0.1772824E+03  0.7561462E-02  0.1071863E+00
         22   -1    0    0    0    0  0.00000000000E+00  0.00000000000E+00  0.16976592785E+03  0.16976592785E+03  0.00000000000E+00 0. -1.
         22   -1    0    0    0    0 -0.00000000000E+00 -0.00000000000E+00 -0.61163898910E+03  0.61163898910E+03  0.00000000000E+00 0. -1.
         25    2    1    2    0    0 -0.47730223183E+02  0.77407845502E+02 -0.26576100160E+03  0.30748417018E+03  0.12508979252E+03 0.  0.
         24    2    1    2    0    0  0.19009334171E+03 -0.26376604010E+02 -0.21236627957E+03  0.29747891053E+03  0.81012725606E+02 0.  0.
        -24    2    1    2    0    0 -0.14236311853E+03 -0.51031241492E+02  0.36254219916E+02  0.17644183623E+03  0.83342114112E+02 0.  0.
        -13    1    4    4    0    0  0.78867439126E+02  0.28538843843E+02 -0.94749015331E+02  0.12653819371E+03  0.00000000000E+00 0.  1.
         14    1    4    4    0    0  0.11122590259E+03 -0.54915447853E+02 -0.11761726424E+03  0.17094071682E+03  0.00000000000E+00 0. -1.
         13    1    5    5    0    0 -0.14811053411E+03 -0.30433924323E+02  0.29893017676E+02  0.15413158849E+03  0.00000000000E+00 0. -1.
        -14    1    5    5    0    0  0.57474155796E+01 -0.20597317169E+02  0.63612022406E+01  0.22310247743E+02  0.00000000000E+00 0.  1.
          5    1    3    3  501    0 -0.57981503422E+01 -0.27937513001E+02 -0.15579673947E+02  0.32776848847E+02  0.41800000000E+01 0. -1.
         -5    1    3    3    0  501 -0.41932072840E+02  0.10534535850E+03 -0.25018132765E+03  0.27470732134E+03  0.41800000000E+01 0. -1.
</event>
<event>
11    1  0.2450992E-009  0.2660427E+03  0.7561462E-02  0.1015684E+00
         22   -1    0    0    0    0  0.00000000000E+00  0.00000000000E+00  0.10102678894E+04  0.10102678894E+04  0.00000000000E+00 0.  1.
         22   -1    0    0    0    0 -0.00000000000E+00 -0.00000000000E+00 -0.14457923848E+03  0.14457923848E+03  0.00000000000E+00 0.  1.
         25    2    1    2    0    0  0.57698013062E+02 -0.23020051054E+03  0.21164789124E+03  0.34170641071E+03  0.12508839070E+03 0.  0.
         24    2    1    2    0    0 -0.83566897448E+02  0.21823495017E+03  0.12465459134E+03  0.27688476715E+03  0.80724762685E+02 0.  0.
        -24    2    1    2    0    0  0.25868884386E+02  0.11965560373E+02  0.52938616837E+03  0.53625595005E+03  0.80674375701E+02 0.  0.
        -11    1    4    4    0    0 -0.37561153924E+02  0.11683645044E+03  0.10956892996E+03  0.16452035390E+03  0.00000000000E+00 0.  1.
         12    1    4    4    0    0 -0.46005743524E+02  0.10139849973E+03  0.15085661384E+02  0.11236441325E+03  0.00000000000E+00 0. -1.
         13    1    5    5    0    0  0.29327245191E+02  0.36994714217E+01  0.61006765928E+02  0.67790846641E+02  0.00000000000E+00 0. -1.
        -14    1    5    5    0    0 -0.34583608048E+01  0.82660889512E+01  0.46837940244E+03  0.46846510341E+03  0.00000000000E+00 0.  1.
          5    1    3    3  501    0  0.90540096736E+02 -0.19783253474E+03  0.14868641247E+03  0.26355330120E+03  0.41800000000E+01 0.  1.
         -5    1    3    3    0  501 -0.32842083674E+02 -0.32367975800E+02  0.62961478767E+02  0.78153109509E+02  0.41800000000E+01 0.  1.
</event>
<event>
11    1  0.2450992E-009  0.2366278E+03  0.7561462E-02  0.1031274E+00
         22   -1    0    0    0    0  0.00000000000E+00  0.00000000000E+00  0.20628475216E+03  0.20628475216E+03  0.00000000000E+00 0. -1.
         22   -1    0    0    0    0 -0.00000000000E+00 -0.00000000000E+00 -0.49606285374E+03  0.49606285374E+03  0.00000000000E+00 0. -1.
         25    2    1    2    0    0 -0.16254007418E+03 -0.32653306938E+02 -0.16386117106E+03  0.26454339823E+03  0.12508881644E+03 0.  0.
        -24    2    1    2    0    0  0.24918140930E+03  0.94848047461E+02 -0.12018433120E+03  0.30339462075E+03  0.80724813929E+02 0.  0.
         24    2    1    2    0    0 -0.86641335120E+02 -0.62194740524E+02 -0.57325993280E+01  0.13440958692E+03  0.81597595933E+02 0.  0.
        -11    1    5    5    0    0 -0.21211605486E+02 -0.65418093264E+02 -0.36287321576E+01  0.68866732395E+02  0.00000000000E+00 0.  1.
         12    1    5    5    0    0 -0.65429729634E+02  0.32233527407E+01 -0.21038671704E+01  0.65542854530E+02  0.00000000000E+00 0. -1.
         11    1    4    4    0    0  0.78636435557E+02 -0.59084150746E+01 -0.19703558296E+02  0.81282400157E+02  0.00000000000E+00 0. -1.
        -12    1    4    4    0    0  0.17054497374E+03  0.10075646254E+03 -0.10048077290E+03  0.22211222059E+03  0.00000000000E+00 0.  1.
          5    1    3    3  501    0 -0.64734591935E+02  0.36207390202E+02 -0.11131612947E+03  0.13382935245E+03  0.41800000000E+01 0.  1.
         -5    1    3    3    0  501 -0.97805482246E+02 -0.68860697140E+02 -0.52545041590E+02  0.13071404578E+03  0.41800000000E+01 0.  1.
</event>
<event>
11    1  0.2450992E-009  0.1736481E+04  0.7561462E-02  0.8184516E-01
         22   -1    0    0    0    0  0.00000000000E+00  0.00000000000E+00  0.61620746523E+03  0.61620746523E+03  0.00000000000E+00 0. -1.
         22   -1    0    0    0    0 -0.00000000000E+00 -0.00000000000E+00 -0.12233574489E+04  0.12233574489E+04  0.00000000000E+00 0. -1.
         25    2    1    2    0    0  0.50037867621E+03  0.30373086535E+03 -0.93748887345E+03  0.11122788045E+04  0.12508993956E+03 0.  0.
         24    2    1    2    0    0 -0.45414462744E+03 -0.30895359481E+03  0.27454135689E+03  0.61918672981E+03  0.79495807104E+02 0.  0.
        -24    2    1    2    0    0 -0.46234048771E+02  0.52227294625E+01  0.55797532913E+02  0.10809937978E+03  0.80045281320E+02 0.  0.
        -11    1    4    4    0    0 -0.26994141636E+03 -0.19612007628E+03  0.20786989660E+03  0.39311747163E+03  0.00000000000E+00 0.  1.
         12    1    4    4    0    0 -0.18420321108E+03 -0.11283351853E+03  0.66671460287E+02  0.22606925818E+03  0.00000000000E+00 0. -1.
         11    1    5    5    0    0 -0.22689190896E+02 -0.25015431270E+02 -0.70390786191E+01  0.34498113180E+02  0.00000000000E+00 0. -1.
        -12    1    5    5    0    0 -0.23544857875E+02  0.30238160733E+02  0.62836611532E+02  0.73601266604E+02  0.00000000000E+00 0.  1.
          5    1    3    3  501    0  0.41810919472E+03  0.27015734637E+03 -0.86285951729E+03  0.99616480036E+03  0.41800000000E+01 0.  1.
         -5    1    3    3    0  501  0.82269481489E+02  0.33573518983E+02 -0.74629356165E+02  0.11611400416E+03  0.41800000000E+01 0.  1.
</event>
<event>
11    1  0.2450992E-009  0.2766182E+03  0.7561462E-02  0.1010603E+00
         22   -1    0    0    0    0  0.00000000000E+00  0.00000000000E+00  0.74701085697E+03  0.74701085697E+03  0.00000000000E+00 0.  1.
         22   -1    0    0    0    0 -0.00000000000E+00 -0.00000000000E+00 -0.49949053657E+03  0.49949053657E+03  0.00000000000E+00 0.  1.
         25    2    1    2    0    0  0.30880990070E+03  0.20437892268E+00 -0.26023007981E+03  0.42276295384E+03  0.12508087049E+03 0.  0.
        -24    2    1    2    0    0 -0.18925740174E+03 -0.35764020370E+02 -0.75143451544E+02  0.22197307778E+03  0.80796532618E+02 0.  0.
         24    2    1    2    0    0 -0.11955249895E+03  0.35559641447E+02  0.58289385175E+03  0.60176536192E+03  0.82456171972E+02 0.  0.
        -13    1    5    5    0    0 -0.63024300364E+02  0.53539743887E+02  0.42770122388E+03  0.43562243229E+03  0.00000000000E+00 0.  1.
         14    1    5    5    0    0 -0.56528198590E+02 -0.17980102440E+02  0.15519262788E+03  0.16614292963E+03  0.00000000000E+00 0. -1.
         13    1    4    4    0    0 -0.26403135205E+02 -0.37659769903E+02 -0.17384091815E+02  0.49168999035E+02  0.00000000000E+00 0. -1.
        -14    1    4    4    0    0 -0.16285426654E+03  0.18957495334E+01 -0.57759359729E+02  0.17280407875E+03  0.00000000000E+00 0.  1.
          5    1    3    3  501    0  0.24526282332E+03  0.13473798792E+02 -0.13178327931E+03  0.27878253328E+03  0.41800000000E+01 0.  1.
         -5    1    3    3    0  501  0.63547077377E+02 -0.13269419870E+02 -0.12844680049E+03  0.14398042056E+03  0.41800000000E+01 0.  1.
</event>
<event>
11    1  0.2450992E-009  0.3190154E+03  0.7561462E-02  0.9924499E-01
         22   -1    0    0    0    0  0.00000000000E+00  0.00000000000E+00  0.74868729599E+03  0.74868729599E+03  0.00000000000E+00 0. -1.
         22   -1    0    0    0    0 -0.00000000000E+00 -0.00000000000E+00 -0.17652108843E+03  0.17652108843E+03  0.00000000000E+00 0. -1.
         25    2    1    2    0    0  0.23892674177E+03 -0.16910914590E+03  0.19361178601E+03  0.37258165788E+03  0.12509067488E+03 0.  0.
        -24    2    1    2    0    0 -0.21230479375E+03  0.20675402568E+03  0.27328778492E+03  0.41305336642E+03  0.90035090576E+02 0.  0.
         24    2    1    2    0    0 -0.26621948019E+02 -0.37644879772E+02  0.10526663663E+03  0.13957336013E+03  0.79207278589E+02 0.  0.
        -11    1    5    5    0    0 -0.35358112277E+02 -0.42249841694E+02  0.11385609739E+03  0.12648500361E+03  0.00000000000E+00 0.  1.
         12    1    5    5    0    0  0.87361642579E+01  0.46049619213E+01 -0.85894607568E+01  0.13088356518E+02  0.00000000000E+00 0. -1.
         11    1    4    4    0    0 -0.19620896689E+03  0.15378931242E+03  0.24981530965E+03  0.35292605491E+03  0.00000000000E+00 0. -1.
        -12    1    4    4    0    0 -0.16095826864E+02  0.52964713261E+02  0.23472475277E+02  0.60127311505E+02  0.00000000000E+00 0.  1.
          5    1    3    3  501    0  0.15152385419E+03 -0.15998279493E+03  0.93769049124E+02  0.23950799577E+03  0.41800000000E+01 0. -1.
         -5    1    3    3    0  501  0.87402887577E+02 -0.91263509782E+01  0.99842736884E+02  0.13307366211E+03  0.41800000000E+01 0. -1.
</event>
<event>
11    1  0.2450992E-009  0.2737347E+03  0.7561462E-02  0.1011964E+00
         22   -1    0    0    0    0  0.00000000000E+00  0.00000000000E+00  0.13850385403E+04  0.13850385403E+04  0.00000000000E+00 0.  1.
         22   -1    0    0    0    0 -0.00000000000E+00 -0.00000000000E+00 -0.69725391735E+03  0.69725391735E+03  0.00000000000E+00 0.  1.
         25    2    1    2    0    0  0.16197798546E+03  0.18317142225E+03 -0.61305631639E+03  0.67176862167E+03  0.12508555590E+03 0.  0.
        -24    2    1    2    0    0  0.76177713515E+02 -0.12542012847E+03  0.13697582874E+03  0.21813814309E+03  0.85373410095E+02 0.  0.
         24    2    1    2    0    0 -0.23815569898E+03 -0.57751293775E+02  0.11638651106E+04  0.11923856929E+04  0.84547596136E+02 0.  0.
        -11    1    5    5    0    0 -0.21578194424E+03 -0.24333319572E+02  0.10284570980E+04  0.10511317521E+04  0.00000000000E+00 0.  1.
         12    1    5    5    0    0 -0.22373754734E+02 -0.33417974203E+02  0.13540801263E+03  0.14125394078E+03  0.00000000000E+00 0. -1.
         13    1    4    4    0    0  0.70674960491E+00 -0.50742516850E+02  0.87165806440E+02  0.10086218480E+03  0.00000000000E+00 0. -1.
        -14    1    4    4    0    0  0.75470963910E+02 -0.74677611622E+02  0.49810022299E+02  0.11727595829E+03  0.00000000000E+00 0.  1.
          5    1    3    3  501    0  0.12016710216E+03  0.18543852191E+03 -0.42464606782E+03  0.47871633894E+03  0.41800000000E+01 0. -1.
         -5    1    3    3    0  501  0.41810883302E+02 -0.22670996611E+01 -0.18841024857E+03  0.19305228273E+03  0.41800000000E+01 0. -1.
</event>
<event>
11    1  0.2450992E-009  0.2332265E+03  0.7561462E-02  0.1033234E+00
         22   -1    0    0    0    0  0.00000000000E+00  0.00000000000E+00  0.66906350211E+03  0.66906350211E+03  0.00000000000E+00 0.  1.
         22   -1    0    0    0    0 -0.00000000000E+00 -0.00000000000E+00 -0.13892063711E+04  0.13892063711E+04  0.00000000000E+00 0.  1.
         25    2    1    2    0    0 -0.12542899939E+03  0.93246960350E+02 -0.53320503732E+03  0.56954678138E+03  0.12509394409E+03 0.  0.
        -24    2    1    2    0    0  0.25794462948E+03 -0.37560302060E+02 -0.80450352274E+03  0.84958179619E+03  0.81345572412E+02 0.  0.
         24    2    1    2    0    0 -0.13251563008E+03 -0.55686658290E+02  0.61756569112E+03  0.63914129560E+03  0.80329426465E+02 0.  0.
        -13    1    5    5    0    0 -0.13628047673E+03 -0.64098681420E+02  0.60555884455E+03  0.62400522715E+03  0.00000000000E+00 0.  1.
         14    1    5    5    0    0  0.37648466468E+01  0.84120231295E+01  0.12006846577E+02  0.15136068450E+02  0.00000000000E+00 0. -1.
         13    1    4    4    0    0  0.99349343190E+02 -0.34759114617E+02 -0.21912220544E+03  0.24309057768E+03  0.00000000000E+00 0. -1.
        -14    1    4    4    0    0  0.15859528629E+03 -0.28011874425E+01 -0.58538131730E+03  0.60649121851E+03  0.00000000000E+00 0.  1.
          5    1    3    3  501    0 -0.10110637974E+03  0.12366293223E+03 -0.40107338769E+03  0.43173180974E+03  0.41800000000E+01 0.  1.
         -5    1    3    3    0  501 -0.24322619653E+02 -0.30415971877E+02 -0.13213164963E+03  0.13781497163E+03  0.41800000000E+01 0.  1.
</event>
<event>
11    1  0.2450992E-009  0.2248824E+03  0.7561462E-02  0.1038201E+00
         22   -1    0    0    0    0  0.00000000000E+00  0.00000000000E+00  0.11344269259E+04  0.11344269259E+04  0.00000000000E+00 0.  1.
         22   -1    0    0    0    0 -0.00000000000E+00 -0.00000000000E+00 -0.87773186616E+02  0.87773186616E+02  0.00000000000E+00 0.  1.
         25    2    1    2    0    0  0.13208912431E+02  0.75071753711E+02  0.20586073915E+03  0.25265866770E+03  0.12509002705E+03 0.  0.
         24    2    1    2    0    0  0.19092119547E+03  0.15298968849E+02  0.20494159032E+03  0.29091214047E+03  0.77096411726E+02 0.  0.
        -24    2    1    2    0    0 -0.20413010790E+03 -0.90370722559E+02  0.63585140982E+03  0.67862930436E+03  0.79967173972E+02 0.  0.
        -11    1    4    4    0    0  0.11547650230E+03  0.12986318979E+02  0.17422215728E+03  0.20942021667E+03  0.00000000000E+00 0.  1.
         12    1    4    4    0    0  0.75444693177E+02  0.23126498699E+01  0.30719433040E+02  0.81491923798E+02  0.00000000000E+00 0. -1.
         11    1    5    5    0    0  0.72229602370E+01  0.15859672275E-01  0.21556654151E+02  0.22734571566E+02  0.00000000000E+00 0. -1.
        -12    1    5    5    0    0 -0.21135306814E+03 -0.90386582232E+02  0.61429475567E+03  0.65589473279E+03  0.00000000000E+00 0.  1.
          5    1    3    3  501    0 -0.40588934660E+02  0.38484978984E+02  0.26926704258E+02  0.62217963856E+02  0.41800000000E+01 0. -1.
         -5    1    3    3    0  501  0.53797847091E+02  0.36586774726E+02  0.17893403489E+03  0.19044070384E+03  0.41800000000E+01 0. -1.
</event>
<event>
11    1  0.2450992E-009  0.4548392E+03  0.7561462E-02  0.9500513E-01
         22   -1    0    0    0    0  0.00000000000E+00  0.00000000000E+00  0.98653357979E+02  0.98653357979E+02  0.00000000000E+00 0. -1.
         22   -1    0    0    0    0 -0.00000000000E+00 -0.00000000000E+00 -0.34287536553E+04  0.34287536553E+04  0.00000000000E+00 0. -1.
         25    2    1    2    0    0 -0.40084758204E+03 -0.14357555302E+03 -0.20989553909E+04  0.21453562562E+04  0.12508800620E+03 0.  0.
        -24    2    1    2    0    0  0.47205780116E+03  0.46485744174E+02 -0.99832978202E+03  0.11083702773E+04  0.82600399135E+02 0.  0.
         24    2    1    2    0    0 -0.71210219117E+02  0.97089808845E+02 -0.23281512432E+03  0.27368047974E+03  0.78745136940E+02 0.  0.
        -11    1    5    5    0    0 -0.26807093020E+02  0.93877776458E+02 -0.17846851528E+03  0.20342730420E+03  0.00000000000E+00 0.  1.
         12    1    5    5    0    0 -0.44403126097E+02  0.32120323864E+01 -0.54346609039E+02  0.70253175538E+02  0.00000000000E+00 0. -1.
         13    1    4    4    0    0  0.32856331358E+03  0.63129244102E+02 -0.74655766813E+03  0.81809993542E+03  0.00000000000E+00 0. -1.
        -14    1    4    4    0    0  0.14349448757E+03 -0.16643499928E+02 -0.25177211389E+03  0.29027034190E+03  0.00000000000E+00 0.  1.
          5    1    3    3  501    0 -0.23527934305E+03 -0.29668214896E+02 -0.96479192565E+03  0.99351774239E+03  0.41800000000E+01 0.  1.
         -5    1    3    3    0  501 -0.16556823899E+03 -0.11390733812E+03 -0.11341634653E+04  0.11518385138E+04  0.41800000000E+01 0.  1.
</event>
<event>
11    1  0.2450992E-009  0.6388452E+03  0.7561462E-02  0.9127620E-01
         22   -1    0    0    0    0  0.00000000000E+00  0.00000000000E+00  0.54700838434E+03  0.54700838434E+03  0.00000000000E+00 0. -1.
         22   -1    0    0    0    0 -0.00000000000E+00 -0.00000000000E+00 -0.27266751189E+04  0.27266751189E+04  0.00000000000E+00 0. -1.
         25    2    1    2    0    0  0.46083754249E+03  0.46172631982E+03 -0.22254153379E+04  0.23224302444E+04  0.12508548631E+03 0.  0.
        -24    2    1    2    0    0 -0.91185158538E+02 -0.54766601372E+03  0.48200008851E+02  0.56325927189E+03  0.81761670680E+02 0.  0.
         24    2    1    2    0    0 -0.36965238395E+03  0.85939693898E+02 -0.24514054202E+01  0.38799398689E+03  0.80652393190E+02 0.  0.
        -13    1    5    5    0    0 -0.34028801453E+02 -0.35295944020E+01  0.20515921089E+02  0.39891357248E+02  0.00000000000E+00 0.  1.
         14    1    5    5    0    0 -0.33562358250E+03  0.89469288300E+02 -0.22967326509E+02  0.34810262964E+03  0.00000000000E+00 0. -1.
         13    1    4    4    0    0 -0.77116899237E+02 -0.52558402932E+03  0.59906628543E+02  0.53457870531E+03  0.00000000000E+00 0. -1.
        -14    1    4    4    0    0 -0.14068259301E+02 -0.22081984400E+02 -0.11706619691E+02  0.28680566581E+02  0.00000000000E+00 0.  1.
          5    1    3    3  501    0  0.57150076107E+02  0.11219649449E+02 -0.16376045763E+03  0.17385905676E+03  0.41800000000E+01 0.  1.
         -5    1    3    3    0  501  0.40368746638E+03  0.45050667037E+03 -0.20616548803E+04  0.21485711877E+04  0.41800000000E+01 0.  1.
</event>
<event>
11    1  0.2450992E-009  0.6904017E+03  0.7561462E-02  0.9046570E-01
         22   -1    0    0    0    0  0.00000000000E+00  0.00000000000E+00  0.74367670272E+03  0.74367670272E+03  0.00000000000E+00 0. -1.
         22   -1    0    0    0    0 -0.00000000000E+00 -0.00000000000E+00 -0.78740895459E+03  0.78740895459E+03  0.00000000000E+00 0. -1.
         25    2    1    2    0    0  0.27389058811E+02 -0.12197279772E+03 -0.22822651832E+03  0.28872509225E+03  0.12508921340E+03 0.  0.
         24    2    1    2    0    0  0.13022241492E+03 -0.45911175294E+03 -0.19975044158E+03  0.52356723131E+03  0.80504209571E+02 0.  0.
        -24    2    1    2    0    0 -0.15761147373E+03  0.58108455066E+03  0.38424470802E+03  0.71879333374E+03  0.80741744567E+02 0.  0.
        -13    1    4    4    0    0  0.63268183130E+02 -0.99999296213E+02 -0.57274637920E+02  0.13146522882E+03  0.00000000000E+00 0.  1.
         14    1    4    4    0    0  0.66954231788E+02 -0.35911245673E+03 -0.14247580366E+03  0.39210200250E+03  0.00000000000E+00 0. -1.
         13    1    5    5    0    0 -0.13581461381E+02  0.16671973714E+03  0.12919184655E+03  0.21135387401E+03  0.00000000000E+00 0. -1.
        -14    1    5    5    0    0 -0.14403001235E+03  0.41436481352E+03  0.25505286147E+03  0.50743945973E+03  0.00000000000E+00 0.  1.
          5    1    3    3  501    0 -0.18214838365E+02 -0.89513585828E+02 -0.55180281978E+02  0.10680261375E+03  0.41800000000E+01 0.  1.
         -5    1    3    3    0  501  0.45603897176E+02 -0.32459211889E+02 -0.17304623634E+03  0.18192247850E+03  0.41800000000E+01 0.  1.
</event>
<event>
11    1  0.2450992E-009  0.2720125E+03  0.7561462E-02  0.1012785E+00
         22   -1    0    0    0    0  0.00000000000E+00  0.00000000000E+00  0.34151253505E+02  0.34151253505E+02  0.00000000000E+00 0.  1.
         22   -1    0    0    0    0 -0.00000000000E+00 -0.00000000000E+00 -0.13940350510E+04  0.13940350510E+04  0.00000000000E+00 0. -1.
         25    2    1    2    0    0 -0.17588377674E+01  0.36090154625E+02 -0.41845566559E+03  0.43824403396E+03  0.12508835463E+03 0.  0.
         24    2    1    2    0    0 -0.30829881746E+02  0.99512588875E+02 -0.52583380776E+03  0.54444279119E+03  0.95202534369E+02 0.  0.
        -24    2    1    2    0    0  0.32588719514E+02 -0.13560274350E+03 -0.41559432418E+03  0.44549947938E+03  0.79378933961E+02 0.  0.
        -11    1    4    4    0    0 -0.30015188359E+02 -0.87494267457E+01 -0.86863957986E+02  0.92319072772E+02  0.00000000000E+00 0.  1.
         12    1    4    4    0    0 -0.81469338721E+00  0.10826201562E+03 -0.43896984977E+03  0.45212371842E+03  0.00000000000E+00 0. -1.
         11    1    5    5    0    0  0.64921924584E+01 -0.97508567767E+02 -0.36101327417E+03  0.37400622117E+03  0.00000000000E+00 0. -1.
        -12    1    5    5    0    0  0.26096527055E+02 -0.38094175733E+02 -0.54581050009E+02  0.71493258208E+02  0.00000000000E+00 0.  1.
          5    1    3    3  501    0 -0.61645596517E+02  0.17745017041E+02 -0.16373380668E+03  0.17590138444E+03  0.41800000000E+01 0.  1.
         -5    1    3    3    0  501  0.59886758750E+02  0.18345137585E+02 -0.25472185891E+03  0.26234264951E+03  0.41800000000E+01 0.  1.
</event>
<event>
11    1  0.2450992E-009  0.1704659E+03  0.7561462E-02  0.1077627E+00
         22   -1    0    0    0    0  0.00000000000E+00  0.00000000000E+00  0.41767697950E+03  0.41767697950E+03  0.00000000000E+00 0. -1.
         22   -1    0    0    0    0 -0.00000000000E+00 -0.00000000000E+00 -0.77173526460E+03  0.77173526460E+03  0.00000000000E+00 0. -1.
         25    2    1    2    0    0  0.54010957831E+02 -0.69330710663E+02 -0.30564642184E+03  0.34174596546E+03  0.12508652492E+03 0.  0.
        -24    2    1    2    0    0 -0.99553471868E+02  0.97846612773E+02 -0.42689199139E+03  0.45708754895E+03  0.84896417442E+02 0.  0.
         24    2    1    2    0    0  0.45542514037E+02 -0.28515902110E+02  0.37848012814E+03  0.39057872969E+03  0.80107798858E+02 0.  0.
        -11    1    5    5    0    0  0.84060191673E+01  0.16438187371E+01 -0.51058833807E+00  0.85804428052E+01  0.00000000000E+00 0.  1.
         12    1    5    5    0    0  0.37136494870E+02 -0.30159720847E+02  0.37899071647E+03  0.38199828689E+03  0.00000000000E+00 0. -1.
         11    1    4    4    0    0 -0.27018871842E+02  0.81922411117E+02 -0.18644441076E+03  0.20543324751E+03  0.00000000000E+00 0. -1.
        -12    1    4    4    0    0 -0.72534600026E+02  0.15924201656E+02 -0.24044758064E+03  0.25165430144E+03  0.00000000000E+00 0.  1.
          5    1    3    3  501    0  0.19857444379E+02 -0.89069319590E+02 -0.11424577848E+03  0.14627792756E+03  0.41800000000E+01 0. -1.
         -5    1    3    3    0  501  0.34153513451E+02  0.19738608927E+02 -0.19140064336E+03  0.19546803790E+03  0.41800000000E+01 0. -1.
</event>
<event>
11    1  0.2450992E-009  0.3487743E+03  0.7561462E-02  0.9814304E-01
         22   -1    0    0    0    0  0.00000000000E+00  0.00000000000E+00  0.67211453669E+03  0.67211453669E+03  0.00000000000E+00 0.  1.
         22   -1    0    0    0    0 -0.00000000000E+00 -0.00000000000E+00 -0.46186020243E+03  0.46186020243E+03  0.00000000000E+00 0.  1.
         25    2    1    2    0    0  0.15203753867E+03 -0.83025530324E+02  0.83441061300E+02  0.22938777456E+03  0.12509072130E+03 0.  0.
         24    2    1    2    0    0 -0.27233840855E+03  0.25361933860E+03 -0.25779393434E+03  0.45966933232E+03  0.79669346746E+02 0.  0.
        -24    2    1    2    0    0  0.12030086988E+03 -0.17059380828E+03  0.38460720730E+03  0.44491763224E+03  0.80339584599E+02 0.  0.
        -11    1    4    4    0    0 -0.15839470951E+03  0.19010977141E+03 -0.14233501324E+03  0.28546429756E+03  0.00000000000E+00 0.  1.
         12    1    4    4    0    0 -0.11394369904E+03  0.63509567192E+02 -0.11545892110E+03  0.17420503476E+03  0.00000000000E+00 0. -1.
         11    1    5    5    0    0  0.58086898312E+02 -0.77755554324E+02  0.26006028480E+03  0.27758127767E+03  0.00000000000E+00 0. -1.
        -12    1    5    5    0    0  0.62213971573E+02 -0.92838253953E+02  0.12454692250E+03  0.16733635457E+03  0.00000000000E+00 0.  1.
          5    1    3    3  501    0  0.17856601602E+02  0.71566164042E+01 -0.27099232404E+02  0.33495017181E+02  0.41800000000E+01 0.  1.
         -5    1    3    3    0  501  0.13418093707E+03 -0.90182146728E+02  0.11054029370E+03  0.19589275738E+03  0.41800000000E+01 0.  1.
</event>
<event>
11    1  0.2450992E-009  0.2738427E+03  0.7561462E-02  0.1011912E+00
         22   -1    0    0    0    0  0.00000000000E+00  0.00000000000E+00  0.17010460677E+04  0.17010460677E+04  0.00000000000E+00 0.  1.
         22   -1    0    0    0    0 -0.00000000000E+00 -0.00000000000E+00 -0.61300076433E+02  0.61300076433E+02  0.00000000000E+00 0.  1.
         25    2    1    2    0    0 -0.22246355750E+03 -0.32008040065E+02  0.63484876704E+03  0.68498044805E+03  0.12510279036E+03 0.  0.
        -24    2    1    2    0    0  0.25947089086E+03  0.20524911439E+02  0.54436510828E+03  0.60835936662E+03  0.77597246468E+02 0.  0.
         24    2    1    2    0    0 -0.37007333358E+02  0.11483128626E+02  0.46053211596E+03  0.46900632947E+03  0.79847994872E+02 0.  0.
        -13    1    5    5    0    0  0.91579973797E+00  0.40405256410E+02  0.18341555882E+03  0.18781557617E+03  0.00000000000E+00 0.  1.
         14    1    5    5    0    0 -0.37923133096E+02 -0.28922127784E+02  0.27711655714E+03  0.28119075330E+03  0.00000000000E+00 0. -1.
         11    1    4    4    0    0  0.52102360836E+02  0.30423072076E+02  0.84752469440E+02  0.10403461153E+03  0.00000000000E+00 0. -1.
        -12    1    4    4    0    0  0.20736853002E+03 -0.98981606362E+01  0.45961263884E+03  0.50432475510E+03  0.00000000000E+00 0.  1.
          5    1    3    3  501    0 -0.20706091162E+03 -0.99097721457E+00  0.60362112604E+03  0.63816231428E+03  0.41800000000E+01 0. -1.
         -5    1    3    3    0  501 -0.15402645875E+02 -0.31017062851E+02  0.31227640996E+02  0.46818133773E+02  0.41800000000E+01 0. -1.
</event>
<event>
11    1  0.2450992E-009  0.1563914E+03  0.7561462E-02  0.1090521E+00
         22   -1    0    0    0    0  0.00000000000E+00  0.00000000000E+00  0.91739794543E+02  0.91739794543E+02  0.00000000000E+00 0. -1.
         22   -1    0    0    0    0 -0.00000000000E+00 -0.00000000000E+00 -0.40015596686E+03  0.40015596686E+03  0.00000000000E+00 0. -1.
         25    2    1    2    0    0 -0.78853165362E+02 -0.40745572157E+02 -0.15544931319E+03  0.21837791759E+03  0.12508558103E+03 0.  0.
         24    2    1    2    0    0  0.64886245610E+02  0.77934454097E+02 -0.12769585034E+03  0.17909134528E+03  0.74050494627E+02 0.  0.
        -24    2    1    2    0    0  0.13966919753E+02 -0.37188881940E+02 -0.25271008784E+02  0.94426498532E+02  0.81851401655E+02 0.  0.
        -11    1    4    4    0    0  0.67823079517E+02  0.55160530126E+02 -0.12929143234E+03  0.15607347204E+03  0.00000000000E+00 0.  1.
         12    1    4    4    0    0 -0.29368339077E+01  0.22773923971E+02  0.15955819961E+01  0.23017873237E+02  0.00000000000E+00 0. -1.
         11    1    5    5    0    0  0.35122743675E+02 -0.30319686952E+02 -0.45042608803E+02  0.64666275198E+02  0.00000000000E+00 0. -1.
        -12    1    5    5    0    0 -0.21155823922E+02 -0.68691949880E+01  0.19771600020E+02  0.29760223335E+02  0.00000000000E+00 0.  1.
          5    1    3    3  501    0 -0.27686025558E+02  0.42879255018E+02 -0.30875604714E+02  0.59799012438E+02  0.41800000000E+01 0. -1.
         -5    1    3    3    0  501 -0.51167139804E+02 -0.83624827175E+02 -0.12457370848E+03  0.15857890515E+03  0.41800000000E+01 0. -1.
</event>
<event>
11    1  0.2450992E-009  0.1525175E+03  0.7561462E-02  0.1094334E+00
         22   -1    0    0    0    0  0.00000000000E+00  0.00000000000E+00  0.20653301638E+03  0.20653301638E+03  0.00000000000E+00 0. -1.
         22   -1    0    0    0    0 -0.00000000000E+00 -0.00000000000E+00 -0.18411637759E+04  0.18411637759E+04  0.00000000000E+00 0.  1.
         25    2    1    2    0    0  0.53209103690E+02  0.10080848660E+03 -0.14192795509E+04  0.14293341179E+04  0.12509203425E+03 0.  0.
         24    2    1    2    0    0 -0.16398512371E+02 -0.22057221311E+02 -0.39483627588E+03  0.40395805723E+03  0.80814571877E+02 0.  0.
        -24    2    1    2    0    0 -0.36810591319E+02 -0.78751265291E+02  0.17948506727E+03  0.21440461724E+03  0.78725276139E+02 0.  0.
        -13    1    4    4    0    0 -0.13509873513E+02 -0.83303786314E+01 -0.38805141106E+03  0.38837586114E+03  0.00000000000E+00 0.  1.
         14    1    4    4    0    0 -0.28886388581E+01 -0.13726842680E+02 -0.67848648280E+01  0.15582196095E+02  0.00000000000E+00 0. -1.
         11    1    5    5    0    0 -0.59360370638E+02 -0.38431671443E+02  0.10015686347E+03  0.12260523754E+03  0.00000000000E+00 0. -1.
        -12    1    5    5    0    0  0.22549779318E+02 -0.40319593848E+02  0.79328203797E+02  0.91799379698E+02  0.00000000000E+00 0.  1.
          5    1    3    3  501    0 -0.24420422398E+02 -0.11022367691E+02 -0.41154884978E+03  0.41244124161E+03  0.41800000000E+01 0. -1.
         -5    1    3    3    0  501  0.77629526088E+02  0.11183085429E+03 -0.10077307012E+04  0.10168928762E+04  0.41800000000E+01 0. -1.
</event>
<event>
11    1  0.2450992E-009  0.1565935E+03  0.7561462E-02  0.1090326E+00
         22   -1    0    0    0    0  0.00000000000E+00  0.00000000000E+00  0.39946739773E+03  0.39946739773E+03  0.00000000000E+00 0. -1.
         22   -1    0    0    0    0 -0.00000000000E+00 -0.00000000000E+00 -0.87841270331E+03  0.87841270331E+03  0.00000000000E+00 0. -1.
         25    2    1    2    0    0 -0.58673706400E+02 -0.76223281965E+02 -0.51269852788E+03  0.53642885842E+03  0.12507416646E+03 0.  0.
        -24    2    1    2    0    0  0.30623809477E+02  0.89778627607E+02 -0.33793796305E+03  0.35985062692E+03  0.79324568350E+02 0.  0.
         24    2    1    2    0    0  0.28049896923E+02 -0.13555345642E+02  0.37169118535E+03  0.38160061570E+03  0.80586279959E+02 0.  0.
        -13    1    5    5    0    0 -0.14812847658E+02  0.23632975915E+02  0.88924102240E+02  0.93195675681E+02  0.00000000000E+00 0.  1.
         14    1    5    5    0    0  0.42862744581E+02 -0.37188321557E+02  0.28276708311E+03  0.28840494001E+03  0.00000000000E+00 0. -1.
         11    1    4    4    0    0  0.55851225462E+02  0.46118231676E+02 -0.17875499067E+03  0.19287197144E+03  0.00000000000E+00 0. -1.
        -12    1    4    4    0    0 -0.25227415985E+02  0.43660395931E+02 -0.15918297238E+03  0.16697865548E+03  0.00000000000E+00 0.  1.
          5    1    3    3  501    0 -0.15619834973E+02 -0.64294146124E+02 -0.46945078881E+03  0.47410888199E+03  0.41800000000E+01 0. -1.
         -5    1    3    3    0  501 -0.43053871427E+02 -0.11929135841E+02 -0.43247739074E+02  0.62319976426E+02  0.41800000000E+01 0. -1.
</event>
<event>
11    1  0.2450992E-009  0.1768864E+04  0.7561462E-02  0.8168948E-01
         22   -1    0    0    0    0  0.00000000000E+00  0.00000000000E+00  0.10615555418E+04  0.10615555418E+04  0.00000000000E+00 0. -1.
         22   -1    0    0    0    0 -0.00000000000E+00 -0.00000000000E+00 -0.73686233414E+03  0.73686233414E+03  0.00000000000E+00 0. -1.
         25    2    1    2    0    0  0.61468678846E+03 -0.14934840795E+03 -0.44462534802E+03  0.78325267164E+03  0.12509297607E+03 0.  0.
         24    2    1    2    0    0 -0.40547495352E+03  0.13792465061E+03  0.44566952766E+03  0.62294372726E+03  0.77488142710E+02 0.  0.
        -24    2    1    2    0    0 -0.20921183494E+03  0.11423757337E+02  0.32364902805E+03  0.39222147708E+03  0.72034017085E+02 0.  0.
        -13    1    4    4    0    0 -0.22707620725E+03  0.43979813728E+02  0.20586568075E+03  0.30964254622E+03  0.00000000000E+00 0.  1.
         14    1    4    4    0    0 -0.17839874627E+03  0.93944836886E+02  0.23980384691E+03  0.31330118104E+03  0.00000000000E+00 0. -1.
         11    1    5    5    0    0 -0.33802859554E+02 -0.22515164327E+02  0.40070586756E+02  0.57054516575E+02  0.00000000000E+00 0. -1.
        -12    1    5    5    0    0 -0.17540897538E+03  0.33938921664E+02  0.28357844129E+03  0.33516696051E+03  0.00000000000E+00 0.  1.
          5    1    3    3  501    0  0.24781867615E+03 -0.67663388146E+02 -0.25604225561E+03  0.36272239992E+03  0.41800000000E+01 0.  1.
         -5    1    3    3    0  501  0.36686811231E+03 -0.81685019805E+02 -0.18858309241E+03  0.42053027172E+03  0.41800000000E+01 0.  1.
</event>
<event>
11    1  0.2450992E-009  0.1064888E+04  0.7561462E-02  0.8619634E-01
         22   -1    0    0    0    0  0.00000000000E+00  0.00000000000E+00  0.54954072893E+03  0.54954072893E+03  0.00000000000E+00 0.  1.
         22   -1    0    0    0    0 -0.00000000000E+00 -0.00000000000E+00 -0.51587870447E+03  0.51587870447E+03  0.00000000000E+00 0.  1.
         25    2    1    2    0    0  0.21177374702E+03 -0.29537617888E+03 -0.32291449532E+03  0.50201181785E+03  0.12508751736E+03 0.  0.
         24    2    1    2    0    0 -0.69860799719E+02  0.93979956698E+02  0.40383908485E+02  0.15073310705E+03  0.85888566749E+02 0.  0.
        -24    2    1    2    0    0 -0.14191294730E+03  0.20139622219E+03  0.31619261130E+03  0.41267450850E+03  0.98095665590E+02 0.  0.
        -13    1    4    4    0    0 -0.34483318403E+01  0.13546833960E+02  0.44197746873E+02  0.46355674210E+02  0.00000000000E+00 0.  1.
         14    1    4    4    0    0 -0.66412467879E+02  0.80433122738E+02 -0.38138383873E+01  0.10437743284E+03  0.00000000000E+00 0. -1.
         13    1    5    5    0    0 -0.19989854721E+02  0.10084827676E+03  0.16206644290E+03  0.19192576985E+03  0.00000000000E+00 0. -1.
        -14    1    5    5    0    0 -0.12192309258E+03  0.10054794543E+03  0.15412616840E+03  0.22074873866E+03  0.00000000000E+00 0.  1.
          5    1    3    3  501    0  0.11664787473E+02 -0.10895267362E+03 -0.11072315438E+03  0.15583273620E+03  0.41800000000E+01 0.  1.
         -5    1    3    3    0  501  0.20010895955E+03 -0.18642350526E+03 -0.21219134094E+03  0.34617908166E+03  0.41800000000E+01 0.  1.
</event>
<event>
11    1  0.2450992E-009  0.4340599E+03  0.7561462E-02  0.9554285E-01
         22   -1    0    0    0    0  0.00000000000E+00  0.00000000000E+00  0.87121489159E+03  0.87121489159E+03  0.00000000000E+00 0. -1.
         22   -1    0    0    0    0 -0.00000000000E+00 -0.00000000000E+00 -0.43870575176E+03  0.43870575176E+03  0.00000000000E+00 0.  1.
         25    2    1    2    0    0 -0.61654879310E+02 -0.42497313228E+03 -0.11902385656E+03  0.46283678006E+03  0.12509084396E+03 0.  0.
        -24    2    1    2    0    0  0.99127395589E+02  0.38161972187E+03  0.14377444468E+03  0.42763116084E+03  0.82082069334E+02 0.  0.
         24    2    1    2    0    0 -0.37472516279E+02  0.43353410408E+02  0.40775855171E+03  0.41945270245E+03  0.79936383657E+02 0.  0.
        -11    1    5    5    0    0 -0.23057765146E+02  0.66656969341E+02  0.27549725086E+03  0.28438274794E+03  0.00000000000E+00 0.  1.
         12    1    5    5    0    0 -0.14414751133E+02 -0.23303558934E+02  0.13226130085E+03  0.13506995451E+03  0.00000000000E+00 0. -1.
         13    1    4    4    0    0  0.34083459108E+02  0.12006443634E+03  0.60380132309E+01  0.12495442634E+03  0.00000000000E+00 0. -1.
        -14    1    4    4    0    0  0.65043936481E+02  0.26155528553E+03  0.13773643145E+03  0.30267673450E+03  0.00000000000E+00 0.  1.
          5    1    3    3  501    0  0.35711652188E+02 -0.14430640025E+03 -0.57380348692E+02  0.15940400268E+03  0.41800000000E+01 0.  1.
         -5    1    3    3    0  501 -0.97366531498E+02 -0.28066673203E+03 -0.61643507872E+02  0.30343277738E+03  0.41800000000E+01 0.  1.
</event>
<event>
11    1  0.2450992E-009  0.1625911E+03  0.7561462E-02  0.1084665E+00
         22   -1    0    0    0    0  0.00000000000E+00  0.00000000000E+00  0.40862655485E+03  0.40862655485E+03  0.00000000000E+00 0. -1.
         22   -1    0    0    0    0 -0.00000000000E+00 -0.00000000000E+00 -0.35346105656E+03  0.35346105656E+03  0.00000000000E+00 0.  1.
         25    2    1    2    0    0 -0.61714615614E+02 -0.49399292620E+02 -0.15735995792E+03  0.21600458843E+03  0.12508733739E+03 0.  0.
        -24    2    1    2    0    0  0.47869947567E+02  0.15585896637E+03 -0.99688439070E+02  0.20733618944E+03  0.80417419070E+02 0.  0.
         24    2    1    2    0    0  0.13844668047E+02 -0.10645967375E+03  0.31221389527E+03  0.33874683353E+03  0.75806093798E+02 0.  0.
        -11    1    5    5    0    0 -0.43358105561E+01  0.10646641272E+02  0.15962171149E+02  0.19670819285E+02  0.00000000000E+00 0.  1.
         12    1    5    5    0    0  0.18180478603E+02 -0.11710631502E+03  0.29625172413E+03  0.31907601425E+03  0.00000000000E+00 0. -1.
         11    1    4    4    0    0  0.36306716898E+02  0.17375646786E+02 -0.85427752436E+01  0.41146929436E+02  0.00000000000E+00 0. -1.
        -12    1    4    4    0    0  0.11563230668E+02  0.13848331959E+03 -0.91145663827E+02  0.16618926001E+03  0.00000000000E+00 0.  1.
          5    1    3    3  501    0 -0.45392905357E+02 -0.78952207126E+02 -0.51271576104E+02  0.10459547688E+03  0.41800000000E+01 0.  1.
         -5    1    3    3    0  501 -0.16321710257E+02  0.29552914507E+02 -0.10608838181E+03  0.11140911155E+03  0.41800000000E+01 0.  1.
</event>
<event>
11    1  0.2450992E-009  0.1550685E+03  0.7561462E-02  0.1091809E+00
         22   -1    0    0    0    0  0.00000000000E+00  0.00000000000E+00  0.18212264703E+03  0.18212264703E+03  0.00000000000E+00 0. -1.
         22   -1    0    0    0    0 -0.00000000000E+00 -0.00000000000E+00 -0.23256698283E+03  0.23256698283E+03  0.00000000000E+00 0. -1.
         25    2    1    2    0    0 -0.69644370322E+02 -0.38758987781E+02 -0.85594850849E+02  0.17124895689E+03  0.12508848585E+03 0.  0.
        -24    2    1    2    0    0  0.11417541900E+03  0.37440240350E+02  0.45002458288E+02  0.15002040491E+03  0.77737396002E+02 0.  0.
         24    2    1    2    0    0 -0.44531048679E+02  0.13187474312E+01 -0.98519432430E+01  0.93420268058E+02  0.81520134366E+02 0.  0.
        -13    1    5    5    0    0  0.13136134690E+02 -0.19876782105E+02 -0.20051810260E+02  0.31140321067E+02  0.00000000000E+00 0.  1.
         14    1    5    5    0    0 -0.57667183368E+02  0.21195529537E+02  0.10199867017E+02  0.62279946991E+02  0.00000000000E+00 0. -1.
         13    1    4    4    0    0  0.46525650311E+02  0.48557313363E+02 -0.13521471443E+01  0.67262746895E+02  0.00000000000E+00 0. -1.
        -14    1    4    4    0    0  0.67649768689E+02 -0.11117073013E+02  0.46354605433E+02  0.82757658020E+02  0.00000000000E+00 0.  1.
          5    1    3    3  501    0 -0.99550523543E+02 -0.14965911252E+02 -0.32840794476E+02  0.10597299382E+03  0.41800000000E+01 0. -1.
         -5    1    3    3    0  501  0.29906153221E+02 -0.23793076530E+02 -0.52754056373E+02  0.65275963073E+02  0.41800000000E+01 0. -1.
</event>
<event>
11    1  0.2450992E-009  0.1544699E+03  0.7561462E-02  0.1092397E+00
         22   -1    0    0    0    0  0.00000000000E+00  0.00000000000E+00  0.33422473751E+03  0.33422473751E+03  0.00000000000E+00 0. -1.
         22   -1    0    0    0    0 -0.00000000000E+00 -0.00000000000E+00 -0.79663920678E+03  0.79663920678E+03  0.00000000000E+00 0.  1.
         25    2    1    2    0    0 -0.10042699839E+02  0.98108003891E+02 -0.56692190213E+03  0.58887560000E+03  0.12509193781E+03 0.  0.
         24    2    1    2    0    0  0.17560537687E+02 -0.78080751164E+02 -0.19826690187E+03  0.22833711355E+03  0.80144225370E+02 0.  0.
        -24    2    1    2    0    0 -0.75178378480E+01 -0.20027252726E+02  0.30277433473E+03  0.31365123075E+03  0.79039155130E+02 0.  0.
        -11    1    4    4    0    0  0.12429665933E+02 -0.38909479204E+02 -0.18042189612E+03  0.18498785032E+03  0.00000000000E+00 0.  1.
         12    1    4    4    0    0  0.51308717533E+01 -0.39171271960E+02 -0.17845005747E+02  0.43349263224E+02  0.00000000000E+00 0. -1.
         13    1    5    5    0    0  0.43753761217E+01 -0.48603155152E+02  0.21821673680E+03  0.22360669674E+03  0.00000000000E+00 0. -1.
        -14    1    5    5    0    0 -0.11893213970E+02  0.28575902426E+02  0.84557597929E+02  0.90044534012E+02  0.00000000000E+00 0.  1.
          5    1    3    3  501    0 -0.12821335487E+02 -0.88056615468E+01 -0.31174790451E+03  0.31216366650E+03  0.41800000000E+01 0. -1.
         -5    1    3    3    0  501  0.27786356483E+01  0.10691366544E+03 -0.25517399762E+03  0.27671193349E+03  0.41800000000E+01 0. -1.
</event>
<event>
11    1  0.2450992E-009  0.2680983E+03  0.7561462E-02  0.1014677E+00
         22   -1    0    0    0    0  0.00000000000E+00  0.00000000000E+00  0.19086588321E+03  0.19086588321E+03  0.00000000000E+00 0. -1.
         22   -1    0    0    0    0 -0.00000000000E+00 -0.00000000000E+00 -0.76360002896E+03  0.76360002896E+03  0.00000000000E+00 0. -1.
         25    2    1    2    0    0  0.92617421538E+02 -0.21139240477E+03 -0.51269561237E+03  0.57599363608E+03  0.12508853781E+03 0.  0.
         24    2    1    2    0    0 -0.87892661888E+02  0.24926647217E+03 -0.10698865091E+02  0.27656221711E+03  0.80705018777E+02 0.  0.
        -24    2    1    2    0    0 -0.47247596494E+01 -0.37874067396E+02 -0.49339668290E+02  0.10191005897E+03  0.80588391958E+02 0.  0.
        -11    1    4    4    0    0 -0.15618323996E+02  0.18430863269E+02 -0.24337978325E+02  0.34292359998E+02  0.00000000000E+00 0.  1.
         12    1    4    4    0    0 -0.72274337892E+02  0.23083560890E+03  0.13639113234E+02  0.24226985711E+03  0.00000000000E+00 0. -1.
         13    1    5    5    0    0 -0.35913069879E+02 -0.44584645841E+02 -0.32661285489E+02  0.65911294956E+02  0.00000000000E+00 0. -1.
        -14    1    5    5    0    0  0.31188310230E+02  0.67105784446E+01 -0.16678382801E+02  0.35998764019E+02  0.00000000000E+00 0.  1.
          5    1    3    3  501    0  0.51504973934E+02 -0.24557229092E+02 -0.52698749921E+02  0.77784641696E+02  0.41800000000E+01 0.  1.
         -5    1    3    3    0  501  0.41112447604E+02 -0.18683517568E+03 -0.45999686245E+03  0.49820899438E+03  0.41800000000E+01 0.  1.
</event>
<event>
11    1  0.2450992E-009  0.1602854E+03  0.7561462E-02  0.1086809E+00
         22   -1    0    0    0    0  0.00000000000E+00  0.00000000000E+00  0.58144547025E+03  0.58144547025E+03  0.00000000000E+00 0. -1.
         22   -1    0    0    0    0 -0.00000000000E+00 -0.00000000000E+00 -0.94172685363E+02  0.94172685363E+02  0.00000000000E+00 0.  1.
         25    2    1    2    0    0  0.38806090116E+02 -0.52934798331E+02  0.95931019829E+02  0.17075857682E+03  0.12509086892E+03 0.  0.
        -24    2    1    2    0    0 -0.99697727110E+02  0.13780473002E+03  0.23672776436E+03  0.30206804191E+03  0.79216709847E+02 0.  0.
         24    2    1    2    0    0  0.60891636994E+02 -0.84869931688E+02  0.15461400070E+03  0.20279153689E+03  0.79424312771E+02 0.  0.
        -13    1    5    5    0    0  0.27854276163E+02 -0.87339453139E+02  0.82078619718E+02  0.12304852941E+03  0.00000000000E+00 0.  1.
         14    1    5    5    0    0  0.33037360831E+02  0.24695214512E+01  0.72535380983E+02  0.79743007475E+02  0.00000000000E+00 0. -1.
         11    1    4    4    0    0  0.55653399773E+01 -0.65817399696E+01  0.75006946744E+01  0.11425967385E+02  0.00000000000E+00 0. -1.
        -12    1    4    4    0    0 -0.10526306709E+03  0.14438646999E+03  0.22922706968E+03  0.29064207452E+03  0.00000000000E+00 0.  1.
          5    1    3    3  501    0  0.75873018378E+02 -0.18530938803E+02  0.90666266874E+02  0.11974119993E+03  0.41800000000E+01 0. -1.
         -5    1    3    3    0  501 -0.37066928262E+02 -0.34403859527E+02  0.52647529548E+01  0.51017376891E+02  0.41800000000E+01 0. -1.
</event>
<event>
11    1  0.2450992E-009  0.1321990E+03  0.7561462E-02  0.1116596E+00
         22   -1    0    0    0    0  0.00000000000E+00  0.00000000000E+00  0.80512474352E+03  0.80512474352E+03  0.00000000000E+00 0.  1.
         22   -1    0    0    0    0 -0.00000000000E+00 -0.00000000000E+00 -0.14216817816E+03  0.14216817816E+03  0.00000000000E+00 0.  1.
         25    2    1    2    0    0  0.35748060381E+02  0.22664473899E+02 -0.83063226396E+02  0.15600874612E+03  0.12509047562E+03 0.  0.
         24    2    1    2    0    0  0.22941495497E+02 -0.10365967501E+03  0.34453248916E+03  0.36942564771E+03  0.80628981536E+02 0.  0.
        -24    2    1    2    0    0 -0.58689555878E+02  0.80995201109E+02  0.40148730260E+03  0.42185852785E+03  0.82267106422E+02 0.  0.
        -11    1    4    4    0    0  0.16215257213E+02 -0.91008444765E+02  0.16347322161E+03  0.18780033484E+03  0.00000000000E+00 0.  1.
         12    1    4    4    0    0  0.67262382848E+01 -0.12651230243E+02  0.18105926755E+03  0.18162531287E+03  0.00000000000E+00 0. -1.
         11    1    5    5    0    0 -0.13068469584E+02  0.27223294111E+02  0.27815736392E+03  0.27979172923E+03  0.00000000000E+00 0. -1.
        -12    1    5    5    0    0 -0.45621086294E+02  0.53771906998E+02  0.12332993868E+03  0.14206679862E+03  0.00000000000E+00 0.  1.
          5    1    3    3  501    0  0.28769549459E+02 -0.47624044734E+02 -0.14880838908E+02  0.57746414430E+02  0.41800000000E+01 0. -1.
         -5    1    3    3    0  501  0.69785109218E+01  0.70288518634E+02 -0.68182387488E+02  0.98262331694E+02  0.41800000000E+01 0. -1.
</event>
<event>
11    1  0.2450992E-009  0.1346131E+03  0.7561462E-02  0.1113727E+00
         22   -1    0    0    0    0  0.00000000000E+00  0.00000000000E+00  0.30107137273E+03  0.30107137273E+03  0.00000000000E+00 0. -1.
         22   -1    0    0    0    0 -0.00000000000E+00 -0.00000000000E+00 -0.69344261332E+03  0.69344261332E+03  0.00000000000E+00 0. -1.
         25    2    1    2    0    0  0.30856491041E+02 -0.25640275912E+02 -0.29725217527E+03  0.32498617478E+03  0.12509041252E+03 0.  0.
        -24    2    1    2    0    0 -0.41602537490E+02  0.34576282097E+02 -0.36993306573E+03  0.38252912274E+03  0.80942981261E+02 0.  0.
         24    2    1    2    0    0  0.10746046449E+02 -0.89360061849E+01  0.27481400041E+03  0.28699868852E+03  0.81548652158E+02 0.  0.
        -11    1    5    5    0    0 -0.73469405822E+01  0.20964192864E+02  0.20287808498E+02  0.30084382859E+02  0.00000000000E+00 0.  1.
         12    1    5    5    0    0  0.18092987031E+02 -0.29900199049E+02  0.25452619191E+03  0.25691430566E+03  0.00000000000E+00 0. -1.
         11    1    4    4    0    0  0.19752026091E+02  0.10197964134E+02 -0.18168284245E+03  0.18303769078E+03  0.00000000000E+00 0. -1.
        -12    1    4    4    0    0 -0.61354563582E+02  0.24378317962E+02 -0.18825022328E+03  0.19949143196E+03  0.00000000000E+00 0.  1.
          5    1    3    3  501    0 -0.24011069117E+01 -0.41423764009E+02 -0.21807490351E+02  0.47060945321E+02  0.41800000000E+01 0.  1.
         -5    1    3    3    0  501  0.33257597953E+02  0.15783488097E+02 -0.27544468492E+03  0.27792522946E+03  0.41800000000E+01 0.  1.
</event>
<event>
11    1  0.2450992E-009  0.5607068E+03  0.7561462E-02  0.9267246E-01
         22   -1    0    0    0    0  0.00000000000E+00  0.00000000000E+00  0.69003454435E+03  0.69003454435E+03  0.00000000000E+00 0. -1.
         22   -1    0    0    0    0 -0.00000000000E+00 -0.00000000000E+00 -0.60020336724E+03  0.60020336724E+03  0.00000000000E+00 0. -1.
         25    2    1    2    0    0 -0.15429150704E+03 -0.48990661375E+03  0.62104869382E+02  0.53227647216E+03  0.12508744414E+03 0.  0.
         24    2    1    2    0    0  0.19592977480E+03  0.53881056544E+03 -0.10836332105E+03  0.58685462567E+03  0.62852527641E+02 0.  0.
        -24    2    1    2    0    0 -0.41638267769E+02 -0.48903951698E+02  0.13608962878E+03  0.17110681377E+03  0.81435943056E+02 0.  0.
        -13    1    4    4    0    0  0.10281682871E+03  0.36593967032E+03 -0.62448529050E+02  0.38520509000E+03  0.00000000000E+00 0.  1.
         14    1    4    4    0    0  0.93112946099E+02  0.17287089512E+03 -0.45914791996E+02  0.20164953567E+03  0.00000000000E+00 0. -1.
         13    1    5    5    0    0 -0.43291853932E+02 -0.38000343474E+02  0.14557681361E+03  0.15655931586E+03  0.00000000000E+00 0. -1.
        -14    1    5    5    0    0  0.16535861632E+01 -0.10903608224E+02 -0.94871848278E+01  0.14547497911E+02  0.00000000000E+00 0.  1.
          5    1    3    3  501    0  0.16023995777E+02 -0.55920680358E+02 -0.13744270867E+02  0.59918847736E+02  0.41800000000E+01 0.  1.
         -5    1    3    3    0  501 -0.17031550281E+03 -0.43398593339E+03  0.75849140248E+02  0.47235762443E+03  0.41800000000E+01 0.  1.
</event>
<event>
11    1  0.2450992E-009  0.2487005E+03  0.7561462E-02  0.1024594E+00
         22   -1    0    0    0    0  0.00000000000E+00  0.00000000000E+00  0.29206516698E+04  0.29206516698E+04  0.00000000000E+00 0.  1.
         22   -1    0    0    0    0 -0.00000000000E+00 -0.00000000000E+00 -0.22174137578E+03  0.22174137578E+03  0.00000000000E+00 0.  1.
         25    2    1    2    0    0 -0.34133404012E+02  0.25657669613E+03 -0.22747940601E+02  0.28837780071E+03  0.12509035484E+03 0.  0.
        -24    2    1    2    0    0 -0.10741122753E+02 -0.17061181545E+03  0.74526064135E+02  0.20388667398E+03  0.82412852777E+02 0.  0.
         24    2    1    2    0    0  0.44874526765E+02 -0.85964880684E+02  0.26471321705E+04  0.26501285709E+04  0.80430282377E+02 0.  0.
        -11    1    5    5    0    0  0.18580633133E+02 -0.91514858516E+02  0.16549121491E+04  0.16575446994E+04  0.00000000000E+00 0.  1.
         12    1    5    5    0    0  0.26293893632E+02  0.55499778317E+01  0.99222002141E+03  0.99258387151E+03  0.00000000000E+00 0. -1.
         13    1    4    4    0    0  0.26945957864E+02 -0.10123147886E+03  0.67498485687E+02  0.12461919004E+03  0.00000000000E+00 0. -1.
        -14    1    4    4    0    0 -0.37687080618E+02 -0.69380336590E+02  0.70275784476E+01  0.79267483937E+02  0.00000000000E+00 0.  1.
          5    1    3    3  501    0 -0.56145494337E+02  0.25102165886E+03 -0.18876907658E+01  0.25726489370E+03  0.41800000000E+01 0.  1.
         -5    1    3    3    0  501  0.22012090325E+02  0.55550372658E+01 -0.20860249835E+02  0.31112907011E+02  0.41800000000E+01 0.  1.
</event>
<event>
11    1  0.2450992E-009  0.1530056E+03  0.7561462E-02  0.1093847E+00
         22   -1    0    0    0    0  0.00000000000E+00  0.00000000000E+00  0.12353936971E+04  0.12353936971E+04  0.00000000000E+00 0. -1.
         22   -1    0    0    0    0 -0.00000000000E+00 -0.00000000000E+00 -0.71344015114E+02  0.71344015114E+02  0.00000000000E+00 0.  1.
         25    2    1    2    0    0 -0.67691288756E+01 -0.97020017763E+01  0.30731678896E+02  0.12935271873E+03  0.12509092618E+03 0.  0.
        -24    2    1    2    0    0 -0.75267492347E+01 -0.83547939637E+02  0.17076382256E+03  0.20689872929E+03  0.81301235628E+02 0.  0.
         24    2    1    2    0    0  0.14295878110E+02  0.93249941414E+02  0.96255418050E+03  0.97048626416E+03  0.80206700596E+02 0.  0.
        -11    1    5    5    0    0 -0.20025915051E+02  0.29644475653E+02  0.13099755603E+03  0.13579466814E+03  0.00000000000E+00 0.  1.
         12    1    5    5    0    0  0.34321793161E+02  0.63605465761E+02  0.83155662448E+03  0.83469159602E+03  0.00000000000E+00 0. -1.
         13    1    4    4    0    0  0.29615077017E+02 -0.71278329626E+02  0.10388581611E+03  0.12942146596E+03  0.00000000000E+00 0. -1.
        -14    1    4    4    0    0 -0.37141826252E+02 -0.12269610011E+02  0.66878006448E+02  0.77477263334E+02  0.00000000000E+00 0.  1.
          5    1    3    3  501    0  0.39791385136E+02 -0.22255491414E+02 -0.27673205953E+02  0.53497102322E+02  0.41800000000E+01 0. -1.
         -5    1    3    3    0  501 -0.46560514012E+02  0.12553489637E+02  0.58404884849E+02  0.75855616413E+02  0.41800000000E+01 0. -1.
</event>
<event>
11    1  0.2450992E-009  0.2029049E+03  0.7561462E-02  0.1052488E+00
         22   -1    0    0    0    0  0.00000000000E+00  0.00000000000E+00  0.34424575572E+04  0.34424575572E+04  0.00000000000E+00 0.  1.
         22   -1    0    0    0    0 -0.00000000000E+00 -0.00000000000E+00 -0.22033810843E+03  0.22033810843E+03  0.00000000000E+00 0. -1.
         25    2    1    2    0    0 -0.44520013414E+02  0.43729770237E+02 -0.50977111976E+02  0.14879840000E+03  0.12509186023E+03 0.  0.
        -24    2    1    2    0    0  0.21865494648E+03  0.20307963618E+02 -0.94001837123E+00  0.23371881798E+03  0.80007519868E+02 0.  0.
         24    2    1    2    0    0 -0.17413493307E+03 -0.64037733855E+02  0.32740365791E+04  0.32802784476E+04  0.80544189576E+02 0.  0.
        -13    1    5    5    0    0 -0.11034719457E+03 -0.21906348157E-01  0.15959841971E+04  0.15997943809E+04  0.00000000000E+00 0.  1.
         14    1    5    5    0    0 -0.63787738496E+02 -0.64015827507E+02  0.16780523820E+04  0.16804840667E+04  0.00000000000E+00 0. -1.
         11    1    4    4    0    0  0.37715870947E+02 -0.22473940589E+02 -0.17040294000E+02  0.47094973686E+02  0.00000000000E+00 0. -1.
        -12    1    4    4    0    0  0.18093907554E+03  0.42781904208E+02  0.16100275629E+02  0.18662384429E+03  0.00000000000E+00 0.  1.
          5    1    3    3  501    0 -0.75924808873E+02  0.52657148805E+02 -0.64971449760E+02  0.11303147175E+03  0.41800000000E+01 0. -1.
         -5    1    3    3    0  501  0.31404795459E+02 -0.89273785683E+01  0.13994337784E+02  0.35766928243E+02  0.41800000000E+01 0. -1.
</event>
<event>
11    1  0.2450992E-009  0.1543206E+03  0.7561462E-02  0.1092544E+00
         22   -1    0    0    0    0  0.00000000000E+00  0.00000000000E+00  0.15292649228E+04  0.15292649228E+04  0.00000000000E+00 0.  1.
         22   -1    0    0    0    0 -0.00000000000E+00 -0.00000000000E+00 -0.14749870924E+03  0.14749870924E+03  0.00000000000E+00 0. -1.
         25    2    1    2    0    0  0.12115610038E+03  0.16586219344E+02 -0.55519523117E+01  0.17502278480E+03  0.12509295621E+03 0.  0.
         24    2    1    2    0    0 -0.70227053898E+02 -0.10327056160E+02 -0.41765570723E+01  0.10712608968E+03  0.80125328540E+02 0.  0.
        -24    2    1    2    0    0 -0.50929046479E+02 -0.62591631835E+01  0.13914947230E+04  0.13946147576E+04  0.77844801643E+02 0.  0.
        -11    1    4    4    0    0 -0.21931340179E+02  0.74224213673E+01  0.35339667597E+02  0.42248883144E+02  0.00000000000E+00 0.  1.
         12    1    4    4    0    0 -0.48295713718E+02 -0.17749477528E+02 -0.39516224670E+02  0.64877206538E+02  0.00000000000E+00 0. -1.
         11    1    5    5    0    0 -0.32967520905E+02  0.29212523965E+02  0.41929247471E+03  0.42159982013E+03  0.00000000000E+00 0. -1.
        -12    1    5    5    0    0 -0.17961525575E+02 -0.35471687149E+02  0.97220224827E+03  0.97301493747E+03  0.00000000000E+00 0.  1.
          5    1    3    3  501    0  0.11317343459E+03 -0.14923150976E+02 -0.45843861886E+02  0.12308557513E+03  0.41800000000E+01 0.  1.
         -5    1    3    3    0  501  0.79826657852E+01  0.31509370320E+02  0.40291909574E+02  0.51937209668E+02  0.41800000000E+01 0.  1.
</event>
<event>
11    1  0.2450992E-009  0.1281695E+03  0.7561462E-02  0.1121539E+00
         22   -1    0    0    0    0  0.00000000000E+00  0.00000000000E+00  0.68122204756E+02  0.68122204756E+02  0.00000000000E+00 0. -1.
         22   -1    0    0    0    0 -0.00000000000E+00 -0.00000000000E+00 -0.59970274329E+03  0.59970274329E+03  0.00000000000E+00 0. -1.
         25    2    1    2    0    0  0.24135741757E+02  0.20130763470E+02 -0.33688956245E+03  0.36073705999E+03  0.12509543356E+03 0.  0.
         24    2    1    2    0    0 -0.24134338483E+02 -0.95994053089E+01 -0.20657464852E+03  0.22370655205E+03  0.81834718453E+02 0.  0.
        -24    2    1    2    0    0 -0.14032742043E-02 -0.10531358161E+02  0.11883672436E+02  0.83381336000E+02  0.81855458070E+02 0.  0.
        -11    1    4    4    0    0  0.33839986145E+01  0.27465292529E+02 -0.28416351086E+02  0.39664628441E+02  0.00000000000E+00 0.  1.
         12    1    4    4    0    0 -0.27518337097E+02 -0.37064697838E+02 -0.17815829743E+03  0.18404192361E+03  0.00000000000E+00 0. -1.
         13    1    5    5    0    0  0.11561284901E+01 -0.37799516102E+01  0.47221035814E+02  0.47386188817E+02  0.00000000000E+00 0. -1.
        -14    1    5    5    0    0 -0.11575317643E+01 -0.67514065506E+01 -0.35337363378E+02  0.35995147183E+02  0.00000000000E+00 0.  1.
          5    1    3    3  501    0 -0.47247160134E+02 -0.63847437609E+01 -0.18059289620E+03  0.18682699391E+03  0.41800000000E+01 0. -1.
         -5    1    3    3    0  501  0.71382901891E+02  0.26515507231E+02 -0.15629666625E+03  0.17391006609E+03  0.41800000000E+01 0. -1.
</event>
<event>
11    1  0.2450992E-009  0.3075170E+04  0.7561462E-02  0.7729297E-01
         22   -1    0    0    0    0  0.00000000000E+00  0.00000000000E+00  0.11618026269E+04  0.11618026269E+04  0.00000000000E+00 0.  1.
         22   -1    0    0    0    0 -0.00000000000E+00 -0.00000000000E+00 -0.20349127189E+04  0.20349127189E+04  0.00000000000E+00 0.  1.
         25    2    1    2    0    0  0.43784368127E+02  0.48111492495E+03 -0.19396434731E+04  0.20028111985E+04  0.12508897816E+03 0.  0.
        -24    2    1    2    0    0 -0.22128562466E+02 -0.21922301432E+03  0.30827241663E+03  0.38741097130E+03  0.80665820168E+02 0.  0.
         24    2    1    2    0    0 -0.21655805661E+02 -0.26189191063E+03  0.75826096443E+03  0.80649317605E+03  0.80094981537E+02 0.  0.
        -11    1    5    5    0    0 -0.12073837957E+02 -0.26441709786E+03  0.72615278169E+03  0.77289070480E+03  0.00000000000E+00 0.  1.
         12    1    5    5    0    0 -0.95819677044E+01  0.25251872300E+01  0.32108182740E+02  0.33602471256E+02  0.00000000000E+00 0. -1.
         11    1    4    4    0    0 -0.43457700195E+02 -0.12841912691E+03  0.22330367708E+03  0.26123662848E+03  0.00000000000E+00 0. -1.
        -12    1    4    4    0    0  0.21329137729E+02 -0.90803887404E+02  0.84968739551E+02  0.12617434282E+03  0.00000000000E+00 0.  1.
          5    1    3    3  501    0 -0.30803076256E+02  0.30735190950E+03 -0.11414373211E+04  0.11825018630E+04  0.41800000000E+01 0.  1.
         -5    1    3    3    0  501  0.74587444383E+02  0.17376301544E+03 -0.79820615202E+03  0.82030933550E+03  0.41800000000E+01 0.  1.
</event>
<event>
11    1  0.2450992E-009  0.1729745E+03  0.7561462E-02  0.1075472E+00
         22   -1    0    0    0    0  0.00000000000E+00  0.00000000000E+00  0.48647115631E+03  0.48647115631E+03  0.00000000000E+00 0. -1.
         22   -1    0    0    0    0 -0.00000000000E+00 -0.00000000000E+00 -0.14861335728E+03  0.14861335728E+03  0.00000000000E+00 0.  1.
         25    2    1    2    0    0  0.55516729296E+02 -0.76598382762E+02  0.75311997289E+02  0.17397406037E+03  0.12508260180E+03 0.  0.
        -24    2    1    2    0    0  0.67052507800E+02  0.16332172139E+03  0.75603308470E+02  0.20815567289E+03  0.80267679830E+02 0.  0.
         24    2    1    2    0    0 -0.12256923710E+03 -0.86723338626E+02  0.18694249327E+03  0.25295478032E+03  0.80588273059E+02 0.  0.
        -11    1    5    5    0    0 -0.12043704764E+03 -0.67135249587E+02  0.11874752829E+03  0.18197032631E+03  0.00000000000E+00 0.  1.
         12    1    5    5    0    0 -0.21321894591E+01 -0.19588089039E+02  0.68194964975E+02  0.70984454017E+02  0.00000000000E+00 0. -1.
         13    1    4    4    0    0  0.20980177921E+02  0.59529339526E+02  0.70294205682E+02  0.94473199810E+02  0.00000000000E+00 0. -1.
        -14    1    4    4    0    0  0.46072329880E+02  0.10379238186E+03  0.53091027882E+01  0.11368247308E+03  0.00000000000E+00 0.  1.
          5    1    3    3  501    0  0.53136246928E+02 -0.41303974807E+02  0.10688300059E+03  0.12637613417E+03  0.41800000000E+01 0. -1.
         -5    1    3    3    0  501  0.23804823677E+01 -0.35294407955E+02 -0.31571003302E+02  0.47597926202E+02  0.41800000000E+01 0. -1.
</event>
<event>
11    1  0.2450992E-009  0.4863631E+03  0.7561462E-02  0.9424520E-01
         22   -1    0    0    0    0  0.00000000000E+00  0.00000000000E+00  0.15873023600E+04  0.15873023600E+04  0.00000000000E+00 0. -1.
         22   -1    0    0    0    0 -0.00000000000E+00 -0.00000000000E+00 -0.39602346720E+03  0.39602346720E+03  0.00000000000E+00 0. -1.
         25    2    1    2    0    0 -0.70663348349E+02  0.49957428755E+02 -0.30889823559E+02  0.15521258840E+03  0.12509081865E+03 0.  0.
        -24    2    1    2    0    0  0.52166219825E+02 -0.52085956019E+03  0.15846039958E+02  0.53008890483E+03  0.82019230094E+02 0.  0.
         24    2    1    2    0    0  0.18497128525E+02  0.47090213143E+03  0.12063226764E+04  0.12980243340E+04  0.86958673241E+02 0.  0.
        -11    1    5    5    0    0 -0.10608838745E+02  0.74280827922E+02  0.28132672861E+03  0.29116132485E+03  0.00000000000E+00 0.  1.
         12    1    5    5    0    0  0.29105967269E+02  0.39662130351E+03  0.92499594781E+03  0.10068630092E+04  0.00000000000E+00 0. -1.
         13    1    4    4    0    0 -0.33915279480E+01 -0.28906077730E+03 -0.16443393131E+02  0.28954795909E+03  0.00000000000E+00 0. -1.
        -14    1    4    4    0    0  0.55557747773E+02 -0.23179878289E+03  0.32289433088E+02  0.24054094574E+03  0.00000000000E+00 0.  1.
          5    1    3    3  501    0 -0.76568629657E+02 -0.47838616334E+01  0.20778012349E+02  0.79591699170E+02  0.41800000000E+01 0. -1.
         -5    1    3    3    0  501  0.59052813075E+01  0.54741290389E+02 -0.51667835908E+02  0.75620889231E+02  0.41800000000E+01 0. -1.
</event>
<event>
11    1  0.2450992E-009  0.1562537E+03  0.7561462E-02  0.1090655E+00
         22   -1    0    0    0    0  0.00000000000E+00  0.00000000000E+00  0.89456048425E+03  0.89456048425E+03  0.00000000000E+00 0. -1.
         22   -1    0    0    0    0 -0.00000000000E+00 -0.00000000000E+00 -0.17507523144E+03  0.17507523144E+03  0.00000000000E+00 0.  1.
         25    2    1    2    0    0 -0.82809485395E+02  0.11076588195E+02  0.62278609344E+01  0.15055255083E+03  0.12508869906E+03 0.  0.
         24    2    1    2    0    0  0.97999247012E+02 -0.12686872940E+02 -0.60516058455E+02  0.14098224761E+03  0.80305614065E+02 0.  0.
        -24    2    1    2    0    0 -0.15189761618E+02  0.16102847449E+01  0.77377345033E+03  0.77810091725E+03  0.80513123798E+02 0.  0.
        -13    1    4    4    0    0  0.98459842253E+02 -0.34282427684E+02 -0.57811196193E+02  0.11921308565E+03  0.00000000000E+00 0.  1.
         14    1    4    4    0    0 -0.46059524091E+00  0.21595554744E+02 -0.27048622621E+01  0.21769161962E+02  0.00000000000E+00 0. -1.
         13    1    5    5    0    0  0.99920828584E+01  0.59197379543E+01  0.69875544455E+03  0.69885195593E+03  0.00000000000E+00 0. -1.
        -14    1    5    5    0    0 -0.25181844476E+02 -0.43094532093E+01  0.75018005784E+02  0.79248961318E+02  0.00000000000E+00 0.  1.
          5    1    3    3  501    0 -0.49608105510E+02  0.18788468105E+02  0.64069633649E+02  0.83284818676E+02  0.41800000000E+01 0.  1.
         -5    1    3    3    0  501 -0.33201379885E+02 -0.77118799101E+01 -0.57841772715E+02  0.67267732151E+02  0.41800000000E+01 0.  1.
</event>
<event>
11    1  0.2450992E-009  0.2030477E+03  0.7561462E-02  0.1052389E+00
         22   -1    0    0    0    0  0.00000000000E+00  0.00000000000E+00  0.82665712836E+03  0.82665712836E+03  0.00000000000E+00 0. -1.
         22   -1    0    0    0    0 -0.00000000000E+00 -0.00000000000E+00 -0.61753192489E+03  0.61753192489E+03  0.00000000000E+00 0.  1.
         25    2    1    2    0    0  0.91338739577E+01 -0.18975835226E+03 -0.33278810395E+03  0.40309691788E+03  0.12509014016E+03 0.  0.
         24    2    1    2    0    0 -0.37589164157E+02  0.13412657867E+03 -0.22005575578E+03  0.27254549323E+03  0.80334462461E+02 0.  0.
        -24    2    1    2    0    0  0.28455290200E+02  0.55631773593E+02  0.76196906320E+03  0.76854664214E+03  0.78501529294E+02 0.  0.
        -11    1    4    4    0    0 -0.47084097846E+02  0.32919799699E+02 -0.99089937355E+02  0.11454012907E+03  0.00000000000E+00 0.  1.
         12    1    4    4    0    0  0.94949336884E+01  0.10120677897E+03 -0.12096581842E+03  0.15800536416E+03  0.00000000000E+00 0. -1.
         11    1    5    5    0    0  0.44275808732E+02  0.49102160246E+02  0.72259736990E+03  0.72561582698E+03  0.00000000000E+00 0. -1.
        -12    1    5    5    0    0 -0.15820518532E+02  0.65296133465E+01  0.39371693299E+02  0.42930815160E+02  0.00000000000E+00 0.  1.
          5    1    3    3  501    0 -0.20054773170E+02 -0.19593365033E+03 -0.28086033970E+03  0.34306295643E+03  0.41800000000E+01 0. -1.
         -5    1    3    3    0  501  0.29188647127E+02  0.61752980641E+01 -0.51927764249E+02  0.60033961449E+02  0.41800000000E+01 0. -1.
</event>
<event>
11    1  0.2450992E-009  0.2250248E+03  0.7561462E-02  0.1038115E+00
         22   -1    0    0    0    0  0.00000000000E+00  0.00000000000E+00  0.74039782185E+03  0.74039782185E+03  0.00000000000E+00 0. -1.
         22   -1    0    0    0    0 -0.00000000000E+00 -0.00000000000E+00 -0.22209610353E+03  0.22209610353E+03  0.00000000000E+00 0. -1.
         25    2    1    2    0    0 -0.28971848877E+02  0.24422392008E+02 -0.92186108991E+02  0.15994218962E+03  0.12508958418E+03 0.  0.
         24    2    1    2    0    0 -0.40626890533E+02 -0.21901913597E+03  0.12249641571E+03  0.26663593869E+03  0.80432740734E+02 0.  0.
        -24    2    1    2    0    0  0.69598739410E+02  0.19459674396E+03  0.48799141161E+03  0.53591579707E+03  0.79738613348E+02 0.  0.
        -11    1    4    4    0    0 -0.48251946706E+01 -0.42625187671E+02 -0.88699055619E+01  0.43804843936E+02  0.00000000000E+00 0.  1.
         12    1    4    4    0    0 -0.35801695862E+02 -0.17639394830E+03  0.13136632127E+03  0.22283109475E+03  0.00000000000E+00 0. -1.
         11    1    5    5    0    0  0.61130306826E+02  0.16289842325E+03  0.31516426820E+03  0.36000184258E+03  0.00000000000E+00 0. -1.
        -12    1    5    5    0    0  0.84684325842E+01  0.31698320712E+02  0.17282714341E+03  0.17591395449E+03  0.00000000000E+00 0.  1.
          5    1    3    3  501    0  0.82269163100E+01  0.10390726746E+02  0.29094470899E+02  0.32242983596E+02  0.41800000000E+01 0. -1.
         -5    1    3    3    0  501 -0.37198765187E+02  0.14031665262E+02 -0.12128057989E+03  0.12769920603E+03  0.41800000000E+01 0. -1.
</event>
<event>
11    1  0.2450992E-009  0.2774456E+03  0.7561462E-02  0.1010216E+00
         22   -1    0    0    0    0  0.00000000000E+00  0.00000000000E+00  0.10340178416E+04  0.10340178416E+04  0.00000000000E+00 0.  1.
         22   -1    0    0    0    0 -0.00000000000E+00 -0.00000000000E+00 -0.20278019866E+03  0.20278019866E+03  0.00000000000E+00 0.  1.
         25    2    1    2    0    0  0.19974274963E+03 -0.16960207015E+03 -0.41280590056E+02  0.29327923482E+03  0.12508634710E+03 0.  0.
        -24    2    1    2    0    0 -0.10704939671E+03  0.17525048766E+03  0.41720971953E+03  0.47210200026E+03  0.81510992009E+02 0.  0.
         24    2    1    2    0    0 -0.92693352929E+02 -0.56484175169E+01  0.45530851344E+03  0.47141680516E+03  0.79397729683E+02 0.  0.
        -13    1    5    5    0    0 -0.98737980754E+02 -0.16119579047E+02  0.44302645007E+03  0.45418219376E+03  0.00000000000E+00 0.  1.
         14    1    5    5    0    0  0.60446278259E+01  0.10471161530E+02  0.12282063375E+02  0.17234611399E+02  0.00000000000E+00 0. -1.
         13    1    4    4    0    0 -0.89530842515E+02  0.68555338299E+02  0.20762722048E+03  0.23627244625E+03  0.00000000000E+00 0. -1.
        -14    1    4    4    0    0 -0.17518554192E+02  0.10669514936E+03  0.20958249905E+03  0.23582955401E+03  0.00000000000E+00 0.  1.
          5    1    3    3  501    0 -0.91061588844E+00 -0.50773867796E+02 -0.31361417035E+02  0.59831645060E+02  0.41800000000E+01 0.  1.
         -5    1    3    3    0  501  0.20065336552E+03 -0.11882820235E+03 -0.99191730209E+01  0.23344758976E+03  0.41800000000E+01 0.  1.
</event>
<event>
11    1  0.2450992E-009  0.2036644E+03  0.7561462E-02  0.1051962E+00
         22   -1    0    0    0    0  0.00000000000E+00  0.00000000000E+00  0.32822824090E+03  0.32822824090E+03  0.00000000000E+00 0.  1.
         22   -1    0    0    0    0 -0.00000000000E+00 -0.00000000000E+00 -0.40454976914E+03  0.40454976914E+03  0.00000000000E+00 0.  1.
         25    2    1    2    0    0  0.10790791502E+03 -0.11990384998E+03 -0.29292887211E+03  0.35703346562E+03  0.12507805601E+03 0.  0.
        -24    2    1    2    0    0 -0.24891939622E+02 -0.15123700034E+02 -0.36426720288E+01  0.92739158959E+02  0.87971288407E+02 0.  0.
         24    2    1    2    0    0 -0.83015975402E+02  0.13502755001E+03  0.22025001590E+03  0.28300538546E+03  0.80360980960E+02 0.  0.
        -11    1    5    5    0    0 -0.74542694544E+02  0.14460957002E+03  0.18984469147E+03  0.25001909513E+03  0.00000000000E+00 0.  1.
         12    1    5    5    0    0 -0.84732808580E+01 -0.95820200060E+01  0.30405324436E+02  0.32986290333E+02  0.00000000000E+00 0. -1.
         13    1    4    4    0    0 -0.26628136264E+02  0.28201602237E+02 -0.23175192471E+02  0.45182713018E+02  0.00000000000E+00 0. -1.
        -14    1    4    4    0    0  0.17361966424E+01 -0.43325302271E+02  0.19532520442E+02  0.47556445940E+02  0.00000000000E+00 0.  1.
          5    1    3    3  501    0  0.70202803537E+02 -0.15071351279E+02 -0.19782532068E+03  0.21049443973E+03  0.41800000000E+01 0. -1.
         -5    1    3    3    0  501  0.37705111487E+02 -0.10483249870E+03 -0.95103551432E+02  0.14653902590E+03  0.41800000000E+01 0. -1.
</event>
<event>
11    1  0.2450992E-009  0.1852070E+03  0.7561462E-02  0.1065507E+00
         22   -1    0    0    0    0  0.00000000000E+00  0.00000000000E+00  0.47042424190E+03  0.47042424190E+03  0.00000000000E+00 0. -1.
         22   -1    0    0    0    0 -0.00000000000E+00 -0.00000000000E+00 -0.11735081506E+03  0.11735081506E+03  0.00000000000E+00 0.  1.
         25    2    1    2    0    0  0.45252648270E+02  0.12036786251E+03  0.10631300465E+03  0.20853809703E+03  0.12509779555E+03 0.  0.
        -24    2    1    2    0    0  0.19147209190E+02 -0.15182540925E+03  0.11427926581E+03  0.20810366396E+03  0.82642687796E+02 0.  0.
         24    2    1    2    0    0 -0.64399857460E+02  0.31457546738E+02  0.13248115638E+03  0.17113329597E+03  0.81230716520E+02 0.  0.
        -13    1    5    5    0    0 -0.44965839190E+02 -0.30026005068E+01  0.15522041531E+02  0.47664201212E+02  0.00000000000E+00 0.  1.
         14    1    5    5    0    0 -0.19434018269E+02  0.34460147245E+02  0.11695911485E+03  0.12346909476E+03  0.00000000000E+00 0. -1.
         13    1    4    4    0    0  0.28243309027E+01 -0.11225730698E+03  0.12065912908E+03  0.16482810818E+03  0.00000000000E+00 0. -1.
        -14    1    4    4    0    0  0.16322878287E+02 -0.39568102269E+02 -0.63798632716E+01  0.43275555780E+02  0.00000000000E+00 0.  1.
          5    1    3    3  501    0  0.11785896704E+01 -0.21089662658E+02  0.41521059444E+02  0.46772146861E+02  0.41800000000E+01 0.  1.
         -5    1    3    3    0  501  0.44074058600E+02  0.14145752517E+03  0.64791945209E+02  0.16176595017E+03  0.41800000000E+01 0.  1.
</event>
<event>
11    1  0.2450992E-009  0.1569117E+03  0.7561462E-02  0.1090018E+00
         22   -1    0    0    0    0  0.00000000000E+00  0.00000000000E+00  0.18379570831E+03  0.18379570831E+03  0.00000000000E+00 0.  1.
         22   -1    0    0    0    0 -0.00000000000E+00 -0.00000000000E+00 -0.23018610311E+03  0.23018610311E+03  0.00000000000E+00 0.  1.
         25    2    1    2    0    0 -0.96184272923E+02 -0.20860007880E+02 -0.54962042804E+02  0.16839037598E+03  0.12509171950E+03 0.  0.
        -24    2    1    2    0    0  0.91386875989E+02 -0.47338501807E+02 -0.22464967489E+02  0.13474969689E+03  0.84025657931E+02 0.  0.
         24    2    1    2    0    0  0.47973969342E+01  0.68198509687E+02  0.31036615487E+02  0.11084173856E+03  0.81538750077E+02 0.  0.
        -11    1    5    5    0    0  0.26786290653E+02  0.57705184553E+02  0.49223159683E+02  0.80438256697E+02  0.00000000000E+00 0.  1.
         12    1    5    5    0    0 -0.21988893718E+02  0.10493325134E+02 -0.18186544196E+02  0.30403481858E+02  0.00000000000E+00 0. -1.
         11    1    4    4    0    0 -0.11984785184E+02 -0.22187704989E+01  0.11704082043E+02  0.16898034054E+02  0.00000000000E+00 0. -1.
        -12    1    4    4    0    0  0.10337166117E+03 -0.45119731308E+02 -0.34169049531E+02  0.11785166283E+03  0.00000000000E+00 0.  1.
          5    1    3    3  501    0 -0.33947208753E+02 -0.61576750742E+02 -0.61641239539E+02  0.93601410384E+02  0.41800000000E+01 0. -1.
         -5    1    3    3    0  501 -0.62237064171E+02  0.40716742862E+02  0.66791967343E+01  0.74788965596E+02  0.41800000000E+01 0. -1.
</event>
<event>
11    1  0.2450992E-009  0.4280136E+03  0.7561462E-02  0.9570537E-01
         22   -1    0    0    0    0  0.00000000000E+00  0.00000000000E+00  0.12538849791E+04  0.12538849791E+04  0.00000000000E+00 0.  1.
         22   -1    0    0    0    0 -0.00000000000E+00 -0.00000000000E+00 -0.32174945522E+03  0.32174945522E+03  0.00000000000E+00 0.  1.
         25    2    1    2    0    0  0.69535716223E+02 -0.42479894026E+03  0.15528636647E+02  0.44852870208E+03  0.12508997785E+03 0.  0.
        -24    2    1    2    0    0 -0.19902697848E+03  0.33388077947E+03  0.33552383356E+03  0.51946652552E+03  0.78620068582E+02 0.  0.
         24    2    1    2    0    0  0.12949126226E+03  0.90918160792E+02  0.58108305368E+03  0.60763920673E+03  0.80831870674E+02 0.  0.
        -13    1    5    5    0    0  0.93786571983E+02  0.92732099312E+02  0.35423931551E+03  0.37799557666E+03  0.00000000000E+00 0.  1.
         14    1    5    5    0    0  0.35704690276E+02 -0.18139385205E+01  0.22684373818E+03  0.22964363007E+03  0.00000000000E+00 0. -1.
         11    1    4    4    0    0 -0.12718072900E+02  0.54171850570E+00  0.29288896337E+01  0.13062206234E+02  0.00000000000E+00 0. -1.
        -12    1    4    4    0    0 -0.18630890558E+03  0.33333906096E+03  0.33259494393E+03  0.50640431928E+03  0.00000000000E+00 0.  1.
          5    1    3    3  501    0 -0.12057688248E+02 -0.73050643188E+01 -0.16268520311E+02  0.21929180644E+02  0.41800000000E+01 0.  1.
         -5    1    3    3    0  501  0.81593404471E+02 -0.41749387594E+03  0.31797156958E+02  0.42659952144E+03  0.41800000000E+01 0.  1.
</event>
<event>
11    1  0.2450992E-009  0.6594914E+03  0.7561462E-02  0.9094226E-01
         22   -1    0    0    0    0  0.00000000000E+00  0.00000000000E+00  0.10512091909E+04  0.10512091909E+04  0.00000000000E+00 0.  1.
         22   -1    0    0    0    0 -0.00000000000E+00 -0.00000000000E+00 -0.91582361393E+03  0.91582361393E+03  0.00000000000E+00 0. -1.
         25    2    1    2    0    0  0.22040378416E+03 -0.10510470178E+03 -0.68909146559E+02  0.28287906104E+03  0.12508903345E+03 0.  0.
        -24    2    1    2    0    0 -0.55521490811E+03  0.61805580335E+03 -0.29943879056E+03  0.88692187886E+03  0.81916174638E+02 0.  0.
         24    2    1    2    0    0  0.33481112395E+03 -0.51295110157E+03  0.50373351413E+03  0.79723186497E+03  0.81325715208E+02 0.  0.
        -11    1    5    5    0    0  0.32295671947E+03 -0.46419250677E+03  0.44234692688E+03  0.71794604931E+03  0.00000000000E+00 0.  1.
         12    1    5    5    0    0  0.11854404477E+02 -0.48758594796E+02  0.61386587247E+02  0.79285815666E+02  0.00000000000E+00 0. -1.
         11    1    4    4    0    0 -0.51036046211E+03  0.58343237937E+03 -0.25888135216E+03  0.81723968153E+03  0.00000000000E+00 0. -1.
        -12    1    4    4    0    0 -0.44854445999E+02  0.34623423981E+02 -0.40557438407E+02  0.69682197326E+02  0.00000000000E+00 0.  1.
          5    1    3    3  501    0  0.89936243402E+01 -0.50480432976E+02  0.64534861490E+01  0.51848618840E+02  0.41800000000E+01 0. -1.
         -5    1    3    3    0  501  0.21141015982E+03 -0.54624268807E+02 -0.75362632708E+02  0.23103044220E+03  0.41800000000E+01 0. -1.
</event>
<event>
11    1  0.2450992E-009  0.2301896E+03  0.7561462E-02  0.1035016E+00
         22   -1    0    0    0    0  0.00000000000E+00  0.00000000000E+00  0.68602687184E+03  0.68602687184E+03  0.00000000000E+00 0. -1.
         22   -1    0    0    0    0 -0.00000000000E+00 -0.00000000000E+00 -0.13717936557E+03  0.13717936557E+03  0.00000000000E+00 0.  1.
         25    2    1    2    0    0  0.11523648757E+03  0.12036859142E+03  0.10475309328E+03  0.23322588259E+03  0.12511217323E+03 0.  0.
        -24    2    1    2    0    0 -0.20685951798E+03 -0.14539838167E+03  0.31293180744E+03  0.40961834043E+03  0.77002072289E+02 0.  0.
         24    2    1    2    0    0  0.91623030414E+02  0.25029790252E+02  0.13116260556E+03  0.18036201441E+03  0.79407537685E+02 0.  0.
        -13    1    5    5    0    0  0.18473423158E+02  0.44112622033E+02  0.44040679119E+02  0.65013630902E+02  0.00000000000E+00 0.  1.
         14    1    5    5    0    0  0.73149607255E+02 -0.19082831781E+02  0.87121926440E+02  0.11534838350E+03  0.00000000000E+00 0. -1.
         13    1    4    4    0    0 -0.11427248330E+03 -0.12007465364E+03  0.22482258888E+03  0.27932296603E+03  0.00000000000E+00 0. -1.
        -14    1    4    4    0    0 -0.92587034682E+02 -0.25323728035E+02  0.88109218559E+02  0.13029537439E+03  0.00000000000E+00 0.  1.
          5    1    3    3  501    0  0.15941647227E+02  0.10145848419E+03  0.28877074075E+02  0.10676758842E+03  0.41800000000E+01 0.  1.
         -5    1    3    3    0  501  0.99294840339E+02  0.18910107231E+02  0.75876019202E+02  0.12645829417E+03  0.41800000000E+01 0.  1.
</event>
<event>
11    1  0.2450992E-009  0.2670123E+03  0.7561462E-02  0.1015208E+00
         22   -1    0    0    0    0  0.00000000000E+00  0.00000000000E+00  0.49727310027E+03  0.49727310027E+03  0.00000000000E+00 0. -1.
         22   -1    0    0    0    0 -0.00000000000E+00 -0.00000000000E+00 -0.35995829792E+03  0.35995829792E+03  0.00000000000E+00 0. -1.
         25    2    1    2    0    0 -0.78583529284E+02 -0.80585007486E+02 -0.42574492818E+02  0.17357970704E+03  0.12509201714E+03 0.  0.
        -24    2    1    2    0    0  0.21605521620E+03 -0.13872921158E+03 -0.10596679075E+03  0.28951873170E+03  0.81648543576E+02 0.  0.
         24    2    1    2    0    0 -0.13747168692E+03  0.21931421907E+03  0.28585608593E+03  0.39413295945E+03  0.81424176220E+02 0.  0.
        -11    1    5    5    0    0 -0.86536138095E+00  0.64817973886E+02  0.76303225200E+02  0.10012143010E+03  0.00000000000E+00 0.  1.
         12    1    5    5    0    0 -0.13660632554E+03  0.15449624518E+03  0.20955286073E+03  0.29401152935E+03  0.00000000000E+00 0. -1.
         13    1    4    4    0    0  0.14966902021E+03 -0.10005934819E+03 -0.11269368181E+03  0.21239716262E+03  0.00000000000E+00 0. -1.
        -14    1    4    4    0    0  0.66386196000E+02 -0.38669863391E+02  0.67268910590E+01  0.77121569079E+02  0.00000000000E+00 0.  1.
          5    1    3    3  501    0 -0.10144145605E+02 -0.71641328011E+02 -0.68506211447E+02  0.99729418809E+02  0.41800000000E+01 0. -1.
         -5    1    3    3    0  501 -0.68439383679E+02 -0.89436794754E+01  0.25931718629E+02  0.73850288232E+02  0.41800000000E+01 0. -1.
</event>
<event>
11    1  0.2450992E-009  0.5115667E+03  0.7561462E-02  0.9368040E-01
         22   -1    0    0    0    0  0.00000000000E+00  0.00000000000E+00  0.84784834564E+03  0.84784834564E+03  0.00000000000E+00 0.  1.
         22   -1    0    0    0    0 -0.00000000000E+00 -0.00000000000E+00 -0.57657481852E+03  0.57657481852E+03  0.00000000000E+00 0.  1.
         25    2    1    2    0    0  0.39672843031E+03 -0.29180317814E+03 -0.28180244972E+03  0.58103585638E+03  0.12508998176E+03 0.  0.
        -24    2    1    2    0    0 -0.45018361782E+03  0.24417922623E+03  0.39342422708E+03  0.65093659317E+03  0.81529390935E+02 0.  0.
         24    2    1    2    0    0  0.53455187514E+02  0.47623951912E+02  0.15965174975E+03  0.19245071461E+03  0.80144235533E+02 0.  0.
        -11    1    5    5    0    0 -0.42458299668E+01 -0.43116036359E+01 -0.66076797966E+01  0.89598231185E+01  0.00000000000E+00 0.  1.
         12    1    5    5    0    0  0.57701017481E+02  0.51935555548E+02  0.16625942955E+03  0.18349089150E+03  0.00000000000E+00 0. -1.
         13    1    4    4    0    0 -0.26141074179E+03  0.95595970254E+02  0.21362042401E+03  0.35086728403E+03  0.00000000000E+00 0. -1.
        -14    1    4    4    0    0 -0.18877287604E+03  0.14858325597E+03  0.17980380308E+03  0.30006930913E+03  0.00000000000E+00 0.  1.
          5    1    3    3  501    0  0.10903797603E+03 -0.72550205725E+02 -0.15718500558E+02  0.13197483179E+03  0.41800000000E+01 0.  1.
         -5    1    3    3    0  501  0.28769045428E+03 -0.21925297242E+03 -0.26608394916E+03  0.44906102458E+03  0.41800000000E+01 0.  1.
</event>
<event>
11    1  0.2450992E-009  0.1654210E+03  0.7561462E-02  0.1082087E+00
         22   -1    0    0    0    0  0.00000000000E+00  0.00000000000E+00  0.19008702054E+04  0.19008702054E+04  0.00000000000E+00 0. -1.
         22   -1    0    0    0    0 -0.00000000000E+00 -0.00000000000E+00 -0.68142825617E+03  0.68142825617E+03  0.00000000000E+00 0.  1.
         25    2    1    2    0    0  0.43156279939E+02  0.91797145649E+02 -0.41906430682E+03  0.44894232727E+03  0.12508053211E+03 0.  0.
        -24    2    1    2    0    0  0.91030791120E+01 -0.12766097325E+03 -0.22285121306E+03  0.26920864195E+03  0.80190021775E+02 0.  0.
         24    2    1    2    0    0 -0.52259359051E+02  0.35863827603E+02  0.18613574691E+04  0.18641474924E+04  0.79856062178E+02 0.  0.
        -13    1    5    5    0    0 -0.63528014632E+02  0.36959877919E+02  0.99301030323E+03  0.99572652046E+03  0.00000000000E+00 0.  1.
         14    1    5    5    0    0  0.11268655581E+02 -0.10960503158E+01  0.86834716588E+03  0.86842097189E+03  0.00000000000E+00 0. -1.
         11    1    4    4    0    0 -0.21537884852E+02 -0.73299890210E+01 -0.15528153969E+02  0.27545104622E+02  0.00000000000E+00 0. -1.
        -12    1    4    4    0    0  0.30640963964E+02 -0.12033098423E+03 -0.20732305910E+03  0.24166353732E+03  0.00000000000E+00 0.  1.
          5    1    3    3  501    0 -0.13170780021E+02  0.60681564964E+02 -0.34573634172E+03  0.35129305737E+03  0.41800000000E+01 0.  1.
         -5    1    3    3    0  501  0.56327059960E+02  0.31115580686E+02 -0.73327965103E+02  0.97649269896E+02  0.41800000000E+01 0.  1.
</event>
<event>
11    1  0.2450992E-009  0.1303736E+03  0.7561462E-02  0.1118811E+00
         22   -1    0    0    0    0  0.00000000000E+00  0.00000000000E+00  0.15079544748E+04  0.15079544748E+04  0.00000000000E+00 0.  1.
         22   -1    0    0    0    0 -0.00000000000E+00 -0.00000000000E+00 -0.79924526673E+02  0.79924526673E+02  0.00000000000E+00 0.  1.
         25    2    1    2    0    0 -0.17619885222E+02  0.22008550735E+02  0.34776218272E+02  0.13286198743E+03  0.12509230866E+03 0.  0.
        -24    2    1    2    0    0  0.24610674860E+02  0.14595981352E+02  0.30123910981E+02  0.89011567589E+02  0.78720271615E+02 0.  0.
         24    2    1    2    0    0 -0.69907896383E+01 -0.36604532087E+02  0.13631298188E+04  0.13660054464E+04  0.80369233651E+02 0.  0.
        -13    1    5    5    0    0  0.23362345539E+02  0.12628254503E+00  0.92448856265E+03  0.92478371396E+03  0.00000000000E+00 0.  1.
         14    1    5    5    0    0 -0.30353135178E+02 -0.36730814632E+02  0.43864125619E+03  0.44122173246E+03  0.00000000000E+00 0. -1.
         13    1    4    4    0    0 -0.46851321199E+01  0.42528544243E+02  0.20305797297E+02  0.47359824137E+02  0.00000000000E+00 0. -1.
        -14    1    4    4    0    0  0.29295806980E+02 -0.27932562891E+02  0.98181136840E+01  0.41651743452E+02  0.00000000000E+00 0.  1.
          5    1    3    3  501    0  0.30961844332E+02 -0.12405409439E+02 -0.29805148640E+02  0.44926042261E+02  0.41800000000E+01 0. -1.
         -5    1    3    3    0  501 -0.48581729554E+02  0.34413960175E+02  0.64581366912E+02  0.87935945174E+02  0.41800000000E+01 0. -1.
</event>
<event>
11    1  0.2450992E-009  0.3481061E+03  0.7561462E-02  0.9816647E-01
         22   -1    0    0    0    0  0.00000000000E+00  0.00000000000E+00  0.19833793971E+03  0.19833793971E+03  0.00000000000E+00 0.  1.
         22   -1    0    0    0    0 -0.00000000000E+00 -0.00000000000E+00 -0.98691231691E+03  0.98691231691E+03  0.00000000000E+00 0.  1.
         25    2    1    2    0    0  0.68378950146E+02  0.35169991952E+03 -0.27405325136E+03  0.46810102033E+03  0.12507944052E+03 0.  0.
         24    2    1    2    0    0  0.55374619145E+02 -0.30982122431E+03 -0.44185064827E+03  0.54826316465E+03  0.79403796207E+02 0.  0.
        -24    2    1    2    0    0 -0.12375356929E+03 -0.41878695217E+02 -0.72670477560E+02  0.16888607164E+03  0.78566760524E+02 0.  0.
        -11    1    4    4    0    0  0.39217491277E+02 -0.13090446922E+03 -0.25344725433E+03  0.28794010213E+03  0.00000000000E+00 0.  1.
         12    1    4    4    0    0  0.16157127868E+02 -0.17891675509E+03 -0.18840339394E+03  0.26032306252E+03  0.00000000000E+00 0. -1.
         13    1    5    5    0    0 -0.70197464318E+02 -0.74709847918E+01  0.21799647514E+01  0.70627557347E+02  0.00000000000E+00 0. -1.
        -14    1    5    5    0    0 -0.53556104973E+02 -0.34407710425E+02 -0.74850442311E+02  0.98258514291E+02  0.00000000000E+00 0.  1.
          5    1    3    3  501    0  0.11883483052E+02  0.49258874421E+01 -0.49007120881E+02  0.50839471217E+02  0.41800000000E+01 0.  1.
         -5    1    3    3    0  501  0.56495467094E+02  0.34677403208E+03 -0.22504613048E+03  0.41726154912E+03  0.41800000000E+01 0.  1.
</event>
<event>
11    1  0.2450992E-009  0.2005550E+04  0.7561462E-02  0.8064710E-01
         22   -1    0    0    0    0  0.00000000000E+00  0.00000000000E+00  0.85997746361E+03  0.85997746361E+03  0.00000000000E+00 0. -1.
         22   -1    0    0    0    0 -0.00000000000E+00 -0.00000000000E+00 -0.11692839139E+04  0.11692839139E+04  0.00000000000E+00 0. -1.
         25    2    1    2    0    0  0.15880244633E+03 -0.85406835926E+03 -0.60019175674E+03  0.10632624777E+04  0.12508386158E+03 0.  0.
        -24    2    1    2    0    0 -0.15671991104E+03  0.74739728655E+03  0.31916407232E+03  0.83141034931E+03  0.78826578154E+02 0.  0.
         24    2    1    2    0    0 -0.20825352866E+01  0.10667107271E+03 -0.28278765851E+02  0.13458855045E+03  0.77015158306E+02 0.  0.
        -11    1    5    5    0    0 -0.28291039261E+02  0.73354221009E+02  0.76886270937E+01  0.78995820325E+02  0.00000000000E+00 0.  1.
         12    1    5    5    0    0  0.26208503974E+02  0.33316851698E+02 -0.35967392945E+02  0.55592730126E+02  0.00000000000E+00 0. -1.
         13    1    4    4    0    0 -0.12946735450E+02  0.98497722334E+01  0.74256409589E+01  0.17882284964E+02  0.00000000000E+00 0. -1.
        -14    1    4    4    0    0 -0.14377317559E+03  0.73754751432E+03  0.31173843136E+03  0.81352806435E+03  0.00000000000E+00 0.  1.
          5    1    3    3  501    0  0.11413191651E+03 -0.64481492252E+03 -0.38436391228E+03  0.75931908190E+03  0.41800000000E+01 0. -1.
         -5    1    3    3    0  501  0.44670529813E+02 -0.20925343674E+03 -0.21582784446E+03  0.30394339582E+03  0.41800000000E+01 0. -1.
</event>
<event>
11    1  0.2450992E-009  0.1816141E+03  0.7561462E-02  0.1068345E+00
         22   -1    0    0    0    0  0.00000000000E+00  0.00000000000E+00  0.27906876369E+03  0.27906876369E+03  0.00000000000E+00 0. -1.
         22   -1    0    0    0    0 -0.00000000000E+00 -0.00000000000E+00 -0.24211309140E+03  0.24211309140E+03  0.00000000000E+00 0.  1.
         25    2    1    2    0    0 -0.11911127133E+02 -0.15264685355E+03 -0.92890677596E+02  0.21844890708E+03  0.12509320593E+03 0.  0.
        -24    2    1    2    0    0 -0.67289630762E+02  0.95230655725E+02  0.46905414601E+02  0.15010245583E+03  0.82060082440E+02 0.  0.
         24    2    1    2    0    0  0.79200757895E+02  0.57416197827E+02  0.82940935281E+02  0.15263049218E+03  0.82749553306E+02 0.  0.
        -13    1    5    5    0    0  0.91819925596E+01  0.22017859833E+02 -0.14200248388E+02  0.27762244024E+02  0.00000000000E+00 0.  1.
         14    1    5    5    0    0  0.70018765336E+02  0.35398337994E+02  0.97141183669E+02  0.12486824815E+03  0.00000000000E+00 0. -1.
         11    1    4    4    0    0 -0.39101749034E+02  0.87102599958E+02  0.65121296119E+02  0.11557072685E+03  0.00000000000E+00 0. -1.
        -12    1    4    4    0    0 -0.28187881728E+02  0.81280557667E+01 -0.18215881518E+02  0.34531728980E+02  0.00000000000E+00 0.  1.
          5    1    3    3  501    0 -0.55726789991E+02 -0.59100737216E+02 -0.80306727142E+02  0.11430229694E+03  0.41800000000E+01 0.  1.
         -5    1    3    3    0  501  0.43815662858E+02 -0.93546116336E+02 -0.12583950454E+02  0.10414661013E+03  0.41800000000E+01 0.  1.
</event>
<event>
11    1  0.2450992E-009  0.4787084E+03  0.7561462E-02  0.9442398E-01
         22   -1    0    0    0    0  0.00000000000E+00  0.00000000000E+00  0.22971082985E+04  0.22971082985E+04  0.00000000000E+00 0.  1.
         22   -1    0    0    0    0 -0.00000000000E+00 -0.00000000000E+00 -0.96869150774E+03  0.96869150774E+03  0.00000000000E+00 0. -1.
         25    2    1    2    0    0 -0.46085807528E+03 -0.11292819444E+03 -0.73361069278E+03  0.88259532083E+03  0.12508760581E+03 0.  0.
        -24    2    1    2    0    0  0.43922241362E+03 -0.20608428897E+03  0.26966948089E+03  0.56073644815E+03  0.79477497291E+02 0.  0.
         24    2    1    2    0    0  0.21635661664E+02  0.31901248341E+03  0.17923580027E+04  0.18224680373E+04  0.81274046968E+02 0.  0.
        -11    1    5    5    0    0  0.10450275399E+02  0.30778321806E+03  0.17560814513E+04  0.17828801926E+04  0.00000000000E+00 0.  1.
         12    1    5    5    0    0  0.11185386265E+02  0.11229265355E+02  0.36276551388E+02  0.39587844686E+02  0.00000000000E+00 0. -1.
         13    1    4    4    0    0  0.27999657856E+03 -0.16795303410E+03  0.19929856965E+03  0.38252611092E+03  0.00000000000E+00 0. -1.
        -14    1    4    4    0    0  0.15922583506E+03 -0.38131254873E+02  0.70370911234E+02  0.17821033723E+03  0.00000000000E+00 0.  1.
          5    1    3    3  501    0 -0.99060730240E+02  0.15678686793E+02 -0.21516312353E+03  0.23742681319E+03  0.41800000000E+01 0.  1.
         -5    1    3    3    0  501 -0.36179734504E+03 -0.12860688123E+03 -0.51844756925E+03  0.64516850763E+03  0.41800000000E+01 0.  1.
</event>
<event>
11    1  0.2450992E-009  0.2271501E+03  0.7561462E-02  0.1036829E+00
         22   -1    0    0    0    0  0.00000000000E+00  0.00000000000E+00  0.89200353711E+03  0.89200353711E+03  0.00000000000E+00 0. -1.
         22   -1    0    0    0    0 -0.00000000000E+00 -0.00000000000E+00 -0.33710008768E+03  0.33710008768E+03  0.00000000000E+00 0.  1.
         25    2    1    2    0    0  0.18150429623E+03 -0.95778244631E+02 -0.24738562206E+03  0.34491316753E+03  0.12509262743E+03 0.  0.
         24    2    1    2    0    0 -0.12633576689E+03  0.50371246421E+02  0.13258864348E+03  0.20600312508E+03  0.79746791170E+02 0.  0.
        -24    2    1    2    0    0 -0.55168529339E+02  0.45406998210E+02  0.66970042801E+03  0.67818733219E+03  0.79586632964E+02 0.  0.
        -11    1    4    4    0    0 -0.91932847915E+02  0.66354925949E+02  0.12214864566E+03  0.16665808220E+03  0.00000000000E+00 0.  1.
         12    1    4    4    0    0 -0.34402918978E+02 -0.15983679528E+02  0.10439997814E+02  0.39345042887E+02  0.00000000000E+00 0. -1.
         13    1    5    5    0    0 -0.67822065366E+02  0.49166250775E+02  0.64266564098E+03  0.64810205899E+03  0.00000000000E+00 0. -1.
        -14    1    5    5    0    0  0.12653536026E+02 -0.37592525654E+01  0.27034787028E+02  0.30085273199E+02  0.00000000000E+00 0.  1.
          5    1    3    3  501    0  0.13820505840E+02 -0.43376309713E+02 -0.11841806908E+03  0.12693629154E+03  0.41800000000E+01 0.  1.
         -5    1    3    3    0  501  0.16768379039E+03 -0.52401934918E+02 -0.12896755298E+03  0.21797687599E+03  0.41800000000E+01 0.  1.
</event>
<event>
11    1  0.2450992E-009  0.3087927E+03  0.7561462E-02  0.9965371E-01
         22   -1    0    0    0    0  0.00000000000E+00  0.00000000000E+00  0.51960788188E+03  0.51960788188E+03  0.00000000000E+00 0.  1.
         22   -1    0    0    0    0 -0.00000000000E+00 -0.00000000000E+00 -0.24373241691E+04  0.24373241691E+04  0.00000000000E+00 0. -1.
         25    2    1    2    0    0  0.23856317295E+03  0.15513800843E+03 -0.23467728152E+04  0.23672707002E+04  0.12509089791E+03 0.  0.
         24    2    1    2    0    0 -0.97861368129E+02 -0.28501612599E+02  0.19189825841E+02  0.13102812657E+03  0.80068291133E+02 0.  0.
        -24    2    1    2    0    0 -0.14070180482E+03 -0.12663639583E+03  0.40986670209E+03  0.45863322424E+03  0.80746184227E+02 0.  0.
        -11    1    4    4    0    0 -0.73044756909E+02 -0.53990904681E+02  0.26687181610E+02  0.94671854119E+02  0.00000000000E+00 0.  1.
         12    1    4    4    0    0 -0.24816611220E+02  0.25489292082E+02 -0.74973557683E+01  0.36356272455E+02  0.00000000000E+00 0. -1.
         11    1    5    5    0    0 -0.11178430438E+03 -0.65146166640E+02  0.20145585691E+03  0.23942476066E+03  0.00000000000E+00 0. -1.
        -12    1    5    5    0    0 -0.28917500445E+02 -0.61490229190E+02  0.20841084518E+03  0.21920846358E+03  0.00000000000E+00 0.  1.
          5    1    3    3  501    0  0.25079780621E+03  0.14502076795E+03 -0.20919000226E+04  0.21118697260E+04  0.41800000000E+01 0. -1.
         -5    1    3    3    0  501 -0.12234633258E+02  0.10117240481E+02 -0.25487279257E+03  0.25540097416E+03  0.41800000000E+01 0. -1.
</event>
<event>
11    1  0.2450992E-009  0.2214577E+03  0.7561462E-02  0.1040308E+00
         22   -1    0    0    0    0  0.00000000000E+00  0.00000000000E+00  0.43714794059E+03  0.43714794059E+03  0.00000000000E+00 0.  1.
         22   -1    0    0    0    0 -0.00000000000E+00 -0.00000000000E+00 -0.43207926598E+03  0.43207926598E+03  0.00000000000E+00 0.  1.
         25    2    1    2    0    0  0.23551758632E+02 -0.16002524790E+03 -0.29442166397E+03  0.35846068002E+03  0.12508867895E+03 0.  0.
         24    2    1    2    0    0 -0.60085172596E+02 -0.21595828662E+02 -0.44556648560E+02  0.11181402178E+03  0.80252556061E+02 0.  0.
        -24    2    1    2    0    0  0.36533413965E+02  0.18162107656E+03  0.34404698715E+03  0.39895250478E+03  0.80460337542E+02 0.  0.
        -11    1    4    4    0    0  0.31450798111E+01 -0.34731843817E+02 -0.29074138459E+02  0.45403722634E+02  0.00000000000E+00 0.  1.
         12    1    4    4    0    0 -0.63230252408E+02  0.13136015154E+02 -0.15482510101E+02  0.66410299146E+02  0.00000000000E+00 0. -1.
         11    1    5    5    0    0  0.17203504338E+02  0.76131502013E+02  0.70667707690E+02  0.10528955822E+03  0.00000000000E+00 0. -1.
        -12    1    5    5    0    0  0.19329909626E+02  0.10548957455E+03  0.27337927946E+03  0.29366294656E+03  0.00000000000E+00 0.  1.
          5    1    3    3  501    0  0.26900693932E+01  0.13859119657E+02 -0.81106251855E+02  0.82431839486E+02  0.41800000000E+01 0. -1.
         -5    1    3    3    0  501  0.20861689239E+02 -0.17388436755E+03 -0.21331541212E+03  0.27602884053E+03  0.41800000000E+01 0. -1.
</event>
<event>
11    1  0.5588346E-009  0.3385751E+04  0.7561462E-02  0.7657664E-01
         22   -1    0    0    0    0  0.00000000000E+00  0.00000000000E+00  0.16172887344E+04  0.16172887344E+04  0.00000000000E+00 0.  1.
         22   -1    0    0    0    0 -0.00000000000E+00 -0.00000000000E+00 -0.17719945643E+04  0.17719945643E+04  0.00000000000E+00 0.  1.
         25    2    1    2    0    0 -0.36215744244E+03  0.92684431789E+03 -0.14283208329E+04  0.17452657191E+04  0.12511445038E+03 0.  0.
         24    2    1    2    0    0  0.30568327183E+03 -0.48282594149E+03  0.60954424211E+03  0.83936517456E+03  0.80165832664E+02 0.  0.
        -24    2    1    2    0    0  0.56474170612E+02 -0.44401837640E+03  0.66407076091E+03  0.80465240497E+03  0.78319006663E+02 0.  0.
        -11    1    4    4    0    0  0.15388323500E+03 -0.24808270609E+03  0.25309097000E+03  0.38636785343E+03  0.00000000000E+00 0.  1.
         12    1    4    4    0    0  0.15180003683E+03 -0.23474323540E+03  0.35645327212E+03  0.45299732113E+03  0.00000000000E+00 0. -1.
         11    1    5    5    0    0  0.65022016184E+01 -0.13626220790E+03  0.14457354851E+03  0.19877419062E+03  0.00000000000E+00 0. -1.
        -12    1    5    5    0    0  0.49971968993E+02 -0.30775616849E+03  0.51949721240E+03  0.60587821435E+03  0.00000000000E+00 0.  1.
          5    1    3    3  501    0 -0.86000439017E+02  0.37731104504E+03 -0.51640046941E+03  0.64532675245E+03  0.41800000000E+01 0.  1.
         -5    1    3    3    0  501 -0.27615700342E+03  0.54953327285E+03 -0.91192036351E+03  0.10999389666E+04  0.41800000000E+01 0.  1.
</event>
<event>
11    1  0.2450992E-009  0.1850961E+03  0.7561462E-02  0.1065594E+00
         22   -1    0    0    0    0  0.00000000000E+00  0.00000000000E+00  0.10935687577E+03  0.10935687577E+03  0.00000000000E+00 0.  1.
         22   -1    0    0    0    0 -0.00000000000E+00 -0.00000000000E+00 -0.62006015707E+03  0.62006015707E+03  0.00000000000E+00 0. -1.
         25    2    1    2    0    0  0.97367688678E+02 -0.78786372773E+02 -0.26405935321E+03  0.31790395997E+03  0.12509127234E+03 0.  0.
         24    2    1    2    0    0 -0.16329205810E+03  0.13711199742E+02 -0.22078761071E+03  0.28596560962E+03  0.78593050594E+02 0.  0.
        -24    2    1    2    0    0  0.65924369419E+02  0.65075173031E+02 -0.25856317375E+02  0.12554746325E+03  0.80702018260E+02 0.  0.
        -11    1    4    4    0    0 -0.16210792669E+03  0.15571369013E+02 -0.17104200752E+03  0.23617115778E+03  0.00000000000E+00 0.  1.
         12    1    4    4    0    0 -0.11841314068E+01 -0.18601692717E+01 -0.49745603190E+02  0.49794451836E+02  0.00000000000E+00 0. -1.
         11    1    5    5    0    0  0.98693567147E+01 -0.44294934616E+00 -0.37281805020E+02  0.38568554441E+02  0.00000000000E+00 0. -1.
        -12    1    5    5    0    0  0.56055012704E+02  0.65518122378E+02  0.11425487646E+02  0.86978908806E+02  0.00000000000E+00 0.  1.
          5    1    3    3  501    0  0.10213779949E+03 -0.76060893934E+02 -0.27606757067E+03  0.30405289942E+03  0.41800000000E+01 0.  1.
         -5    1    3    3    0  501 -0.47701108149E+01 -0.27254788394E+01  0.12008217453E+02  0.13851060555E+02  0.41800000000E+01 0.  1.
</event>
<event>
11    1  0.2450992E-009  0.3533246E+03  0.7561462E-02  0.9798496E-01
         22   -1    0    0    0    0  0.00000000000E+00  0.00000000000E+00  0.93107922251E+03  0.93107922251E+03  0.00000000000E+00 0.  1.
         22   -1    0    0    0    0 -0.00000000000E+00 -0.00000000000E+00 -0.29293292542E+03  0.29293292542E+03  0.00000000000E+00 0. -1.
         25    2    1    2    0    0  0.23110711633E+00  0.93585786036E+02 -0.90972847390E+02  0.18078445389E+03  0.12509439256E+03 0.  0.
        -24    2    1    2    0    0  0.51679369621E+02 -0.40029204903E+03  0.31260625408E+03  0.51676572708E+03  0.80122810943E+02 0.  0.
         24    2    1    2    0    0 -0.51910476737E+02  0.30670626300E+03  0.41651289039E+03  0.52646196696E+03  0.83161201472E+02 0.  0.
        -13    1    5    5    0    0 -0.35619161310E+02  0.73771863716E+02  0.15888565896E+03  0.17876147558E+03  0.00000000000E+00 0.  1.
         14    1    5    5    0    0 -0.16291315428E+02  0.23293439928E+03  0.25762723144E+03  0.34770049138E+03  0.00000000000E+00 0. -1.
         11    1    4    4    0    0  0.10778263557E+02 -0.87640975120E+02  0.29766427126E+02  0.93183430229E+02  0.00000000000E+00 0. -1.
        -12    1    4    4    0    0  0.40901106064E+02 -0.31265107391E+03  0.28283982696E+03  0.42358229685E+03  0.00000000000E+00 0.  1.
          5    1    3    3  501    0  0.25605547453E+02 -0.19509549633E+02  0.14311647327E+01  0.32492879524E+02  0.41800000000E+01 0.  1.
         -5    1    3    3    0  501 -0.25374440337E+02  0.11309533567E+03 -0.92404012122E+02  0.14829157437E+03  0.41800000000E+01 0.  1.
</event>
<event>
11    1  0.2450992E-009  0.3341963E+04  0.7561462E-02  0.7667276E-01
         22   -1    0    0    0    0  0.00000000000E+00  0.00000000000E+00  0.18987501269E+04  0.18987501269E+04  0.00000000000E+00 0.  1.
         22   -1    0    0    0    0 -0.00000000000E+00 -0.00000000000E+00 -0.14705349463E+04  0.14705349463E+04  0.00000000000E+00 0.  1.
         25    2    1    2    0    0 -0.43245337750E+02  0.16022583794E+04  0.39723578746E+03  0.16560633825E+04  0.12509029724E+03 0.  0.
        -24    2    1    2    0    0 -0.10348453136E+03 -0.14148274387E+04 -0.10920100172E+03  0.14252113917E+04  0.82806537277E+02 0.  0.
         24    2    1    2    0    0  0.14672986911E+03 -0.18743094069E+03  0.14018039489E+03  0.28801029901E+03  0.81482373605E+02 0.  0.
        -13    1    5    5    0    0  0.63537736435E+01  0.19878646840E+01  0.24512209071E+02  0.25400205493E+02  0.00000000000E+00 0.  1.
         14    1    5    5    0    0  0.14037609547E+03 -0.18941880537E+03  0.11566818582E+03  0.26261009352E+03  0.00000000000E+00 0. -1.
         11    1    4    4    0    0 -0.45666329240E+02 -0.22565793382E+03 -0.26845664631E+02  0.23179216214E+03  0.00000000000E+00 0. -1.
        -12    1    4    4    0    0 -0.57818202119E+02 -0.11891695049E+04 -0.82355337090E+02  0.11934192296E+04  0.00000000000E+00 0.  1.
          5    1    3    3  501    0 -0.58077902693E+02  0.41131787416E+03  0.74202409705E+02  0.42199396488E+03  0.41800000000E+01 0. -1.
         -5    1    3    3    0  501  0.14832564943E+02  0.11909405053E+04  0.32303337776E+03  0.12340694177E+04  0.41800000000E+01 0. -1.
</event>
<event>
11    1  0.2450992E-009  0.1423012E+03  0.7561462E-02  0.1105016E+00
         22   -1    0    0    0    0  0.00000000000E+00  0.00000000000E+00  0.15000321563E+04  0.15000321563E+04  0.00000000000E+00 0. -1.
         22   -1    0    0    0    0 -0.00000000000E+00 -0.00000000000E+00 -0.46212978049E+02  0.46212978049E+02  0.00000000000E+00 0. -1.
         25    2    1    2    0    0  0.25880594332E+02 -0.52869886274E+02  0.10436911671E+03  0.17321829765E+03  0.12508651438E+03 0.  0.
        -24    2    1    2    0    0 -0.20161664085E+01 -0.11353079177E+02  0.18116197038E+03  0.19976792252E+03  0.83394280527E+02 0.  0.
         24    2    1    2    0    0 -0.23864427923E+02  0.64222965451E+02  0.11682880912E+04  0.11732589142E+04  0.83338559647E+02 0.  0.
        -11    1    5    5    0    0 -0.38701363246E+02 -0.28123294408E+01  0.37314236443E+03  0.37515453995E+03  0.00000000000E+00 0.  1.
         12    1    5    5    0    0  0.14836935323E+02  0.67035294892E+02  0.79514572672E+03  0.79810437421E+03  0.00000000000E+00 0. -1.
         11    1    4    4    0    0 -0.36745100413E+02 -0.95677112732E+01  0.43311473641E+02  0.57598847665E+02  0.00000000000E+00 0. -1.
        -12    1    4    4    0    0  0.34728934005E+02 -0.17853679039E+01  0.13785049674E+03  0.14216907486E+03  0.00000000000E+00 0.  1.
          5    1    3    3  501    0 -0.44086161697E+02  0.11395044760E+01  0.13327381035E+02  0.46259913628E+02  0.41800000000E+01 0.  1.
         -5    1    3    3    0  501  0.69966756029E+02 -0.54009390750E+02  0.91041735671E+02  0.12695838402E+03  0.41800000000E+01 0.  1.
</event>
<event>
11    1  0.2450992E-009  0.1069759E+04  0.7561462E-02  0.8615355E-01
         22   -1    0    0    0    0  0.00000000000E+00  0.00000000000E+00  0.14858855801E+04  0.14858855801E+04  0.00000000000E+00 0.  1.
         22   -1    0    0    0    0 -0.00000000000E+00 -0.00000000000E+00 -0.16287846505E+04  0.16287846505E+04  0.00000000000E+00 0.  1.
         25    2    1    2    0    0  0.33451787839E+03 -0.25069431861E+03 -0.44640915105E+03  0.62424404664E+03  0.12509855028E+03 0.  0.
        -24    2    1    2    0    0 -0.29695124710E+03 -0.87948492364E+03 -0.53994802115E+03  0.10768463475E+04  0.79877508988E+02 0.  0.
         24    2    1    2    0    0 -0.37566631290E+02  0.11301792422E+04  0.84345810176E+03  0.14135798365E+04  0.89833252410E+02 0.  0.
        -11    1    5    5    0    0  0.26846751430E+02  0.35798941382E+03  0.28669984206E+03  0.45942787019E+03  0.00000000000E+00 0.  1.
         12    1    5    5    0    0 -0.64413382720E+02  0.77218982843E+03  0.55675825969E+03  0.95415196627E+03  0.00000000000E+00 0. -1.
         13    1    4    4    0    0 -0.10888312641E+03 -0.26130744519E+03 -0.20103265217E+03  0.34720490113E+03  0.00000000000E+00 0. -1.
        -14    1    4    4    0    0 -0.18806812069E+03 -0.61817747845E+03 -0.33891536898E+03  0.72964144634E+03  0.00000000000E+00 0.  1.
          5    1    3    3  501    0  0.27290943864E+03 -0.16863647173E+03 -0.39654589948E+03  0.51008229149E+03  0.41800000000E+01 0.  1.
         -5    1    3    3    0  501  0.61608439751E+02 -0.82057846875E+02 -0.49863251566E+02  0.11416175515E+03  0.41800000000E+01 0.  1.
</event>
<event>
11    1  0.2450992E-009  0.1488975E+03  0.7561462E-02  0.1098011E+00
         22   -1    0    0    0    0  0.00000000000E+00  0.00000000000E+00  0.22366395636E+04  0.22366395636E+04  0.00000000000E+00 0.  1.
         22   -1    0    0    0    0 -0.00000000000E+00 -0.00000000000E+00 -0.57585406779E+03  0.57585406779E+03  0.00000000000E+00 0. -1.
         25    2    1    2    0    0  0.20709761142E+01 -0.20294404717E+02 -0.33429469126E+03  0.35751643305E+03  0.12509559340E+03 0.  0.
        -24    2    1    2    0    0 -0.63012765385E+02 -0.33141070097E+02 -0.21565615939E+03  0.24128315066E+03  0.81492579894E+02 0.  0.
         24    2    1    2    0    0  0.60941789271E+02  0.53435474814E+02  0.22107363465E+04  0.22136940477E+04  0.80727266151E+02 0.  0.
        -13    1    5    5    0    0  0.75262702967E+02  0.61991331658E+02  0.18378692776E+04  0.18404539878E+04  0.00000000000E+00 0.  1.
         14    1    5    5    0    0 -0.14320913696E+02 -0.85558568442E+01  0.37286706888E+03  0.37324005990E+03  0.00000000000E+00 0. -1.
         11    1    4    4    0    0 -0.26425107640E+02  0.15684003977E+02 -0.14366863181E+03  0.14691817471E+03  0.00000000000E+00 0. -1.
        -12    1    4    4    0    0 -0.36587657745E+02 -0.48825074074E+02 -0.71987527587E+02  0.94364975948E+02  0.00000000000E+00 0.  1.
          5    1    3    3  501    0 -0.41344353812E+02 -0.23446041816E+02 -0.29465918700E+03  0.29849720493E+03  0.41800000000E+01 0.  1.
         -5    1    3    3    0  501  0.43415329926E+02  0.31516370991E+01 -0.39635504260E+02  0.59019228113E+02  0.41800000000E+01 0.  1.
</event>
<event>
11    1  0.2450992E-009  0.1544511E+03  0.7561462E-02  0.1092415E+00
         22   -1    0    0    0    0  0.00000000000E+00  0.00000000000E+00  0.74887022027E+02  0.74887022027E+02  0.00000000000E+00 0. -1.
         22   -1    0    0    0    0 -0.00000000000E+00 -0.00000000000E+00 -0.69551118689E+03  0.69551118689E+03  0.00000000000E+00 0.  1.
         25    2    1    2    0    0 -0.58528658026E+02 -0.60575765853E+02 -0.47523887589E+03  0.49859358148E+03  0.12509413703E+03 0.  0.
        -24    2    1    2    0    0  0.72267529809E+02  0.88455269086E+02 -0.73426376010E+02  0.15917153554E+03  0.83049470431E+02 0.  0.
         24    2    1    2    0    0 -0.13738871783E+02 -0.27879503234E+02 -0.71958912968E+02  0.11263309190E+03  0.80883279712E+02 0.  0.
        -13    1    5    5    0    0  0.69909298152E+01 -0.86662972596E+01 -0.81913664978E+02  0.82666960256E+02  0.00000000000E+00 0.  1.
         14    1    5    5    0    0 -0.20729801598E+02 -0.19213205974E+02  0.99547520102E+01  0.29966131644E+02  0.00000000000E+00 0. -1.
         11    1    4    4    0    0  0.43013043551E+02  0.91976387613E+01  0.45272217911E+01  0.44217804236E+02  0.00000000000E+00 0. -1.
        -12    1    4    4    0    0  0.29254486258E+02  0.79257630325E+02 -0.77953597801E+02  0.11495373131E+03  0.00000000000E+00 0.  1.
          5    1    3    3  501    0 -0.58564959326E+02 -0.92027266093E+02 -0.27529672266E+03  0.29614967511E+03  0.41800000000E+01 0.  1.
         -5    1    3    3    0  501  0.36301300331E-01  0.31451500240E+02 -0.19994215323E+03  0.20244390637E+03  0.41800000000E+01 0.  1.
</event>
<event>
11    1  0.2450992E-009  0.1559338E+03  0.7561462E-02  0.1090965E+00
         22   -1    0    0    0    0  0.00000000000E+00  0.00000000000E+00  0.13643218185E+04  0.13643218185E+04  0.00000000000E+00 0.  1.
         22   -1    0    0    0    0 -0.00000000000E+00 -0.00000000000E+00 -0.84323247506E+02  0.84323247506E+02  0.00000000000E+00 0. -1.
         25    2    1    2    0    0  0.27496185589E+02  0.34484094680E+01  0.71477640168E+02  0.14671414895E+03  0.12509219284E+03 0.  0.
        -24    2    1    2    0    0  0.44037569105E+02 -0.73288021207E+02  0.34730997782E+02  0.12130120690E+03  0.78722925776E+02 0.  0.
         24    2    1    2    0    0 -0.71533754693E+02  0.69839611739E+02  0.11737899331E+04  0.11806297102E+04  0.78160451398E+02 0.  0.
        -13    1    5    5    0    0 -0.65582408484E+02  0.51012314589E+02  0.11240103073E+04  0.11270769625E+04  0.00000000000E+00 0.  1.
         14    1    5    5    0    0 -0.59513462092E+01  0.18827297150E+02  0.49779625759E+02  0.53552747646E+02  0.00000000000E+00 0. -1.
         13    1    4    4    0    0  0.41330827331E+02 -0.60874340605E+02 -0.10495331899E+02  0.74324118721E+02  0.00000000000E+00 0. -1.
        -14    1    4    4    0    0  0.27067417741E+01 -0.12413680602E+02  0.45226329681E+02  0.46977088177E+02  0.00000000000E+00 0.  1.
          5    1    3    3  501    0 -0.10425098162E+01 -0.54505362817E+02  0.59634166106E+02  0.80905052807E+02  0.41800000000E+01 0. -1.
         -5    1    3    3    0  501  0.28538695405E+02  0.57953772285E+02  0.11843474061E+02  0.65809096144E+02  0.41800000000E+01 0. -1.
</event>
<event>
11    1  0.2450992E-009  0.1950262E+03  0.7561462E-02  0.1058098E+00
         22   -1    0    0    0    0  0.00000000000E+00  0.00000000000E+00  0.22983019043E+03  0.22983019043E+03  0.00000000000E+00 0. -1.
         22   -1    0    0    0    0 -0.00000000000E+00 -0.00000000000E+00 -0.56701318105E+03  0.56701318105E+03  0.00000000000E+00 0.  1.
         25    2    1    2    0    0  0.69140428219E+02 -0.77497508412E+02 -0.39769187144E+03  0.42964129590E+03  0.12508619394E+03 0.  0.
        -24    2    1    2    0    0  0.14314579321E+02 -0.51998845571E+02 -0.93171144190E+02  0.13546907968E+03  0.82232732644E+02 0.  0.
         24    2    1    2    0    0 -0.83455007540E+02  0.12949635398E+03  0.15368002501E+03  0.23173299590E+03  0.79678022854E+02 0.  0.
        -11    1    5    5    0    0 -0.56584955239E+01  0.75300328427E+02  0.46708499356E+02  0.88791001486E+02  0.00000000000E+00 0.  1.
         12    1    5    5    0    0 -0.77796512016E+02  0.54196025556E+02  0.10697152565E+03  0.14294199442E+03  0.00000000000E+00 0. -1.
         11    1    4    4    0    0 -0.32873897092E+02 -0.12321937983E+02 -0.22562923291E+02  0.41732586465E+02  0.00000000000E+00 0. -1.
        -12    1    4    4    0    0  0.47188476413E+02 -0.39676907588E+02 -0.70608220899E+02  0.93736493216E+02  0.00000000000E+00 0.  1.
          5    1    3    3  501    0 -0.14084956709E+01  0.11199021157E+02 -0.21001728603E+03  0.21036191377E+03  0.41800000000E+01 0.  1.
         -5    1    3    3    0  501  0.70548923890E+02 -0.88696529569E+02 -0.18767458541E+03  0.21927938213E+03  0.41800000000E+01 0.  1.
</event>
<event>
11    1  0.2450992E-009  0.1412330E+03  0.7561462E-02  0.1106189E+00
         22   -1    0    0    0    0  0.00000000000E+00  0.00000000000E+00  0.11259258297E+03  0.11259258297E+03  0.00000000000E+00 0. -1.
         22   -1    0    0    0    0 -0.00000000000E+00 -0.00000000000E+00 -0.32773654792E+03  0.32773654792E+03  0.00000000000E+00 0.  1.
         25    2    1    2    0    0 -0.59487335311E+02 -0.19184015094E+02 -0.19103339385E+03  0.23674781988E+03  0.12509597576E+03 0.  0.
        -24    2    1    2    0    0 -0.95088567236E+01 -0.32941818092E+01 -0.20632761590E+02  0.95172433233E+02  0.92362390651E+02 0.  0.
         24    2    1    2    0    0  0.68996192035E+02  0.22478196903E+02 -0.34778095071E+01  0.10840887779E+03  0.80465183606E+02 0.  0.
        -13    1    5    5    0    0 -0.14271924374E+02  0.20601039781E+02 -0.10869402903E+01  0.25085296582E+02  0.00000000000E+00 0.  1.
         14    1    5    5    0    0  0.83268116409E+02  0.18771571222E+01 -0.23908692169E+01  0.83323581205E+02  0.00000000000E+00 0. -1.
         11    1    4    4    0    0 -0.32677262238E+02  0.31876649345E+02  0.49143135821E+01  0.45913774827E+02  0.00000000000E+00 0. -1.
        -12    1    4    4    0    0  0.23168405514E+02 -0.35170831155E+02 -0.25547075172E+02  0.49258658406E+02  0.00000000000E+00 0.  1.
          5    1    3    3  501    0 -0.71957356936E+02 -0.54500279875E+02 -0.84390787200E+02  0.12364230299E+03  0.41800000000E+01 0. -1.
         -5    1    3    3    0  501  0.12470021625E+02  0.35316264781E+02 -0.10664260665E+03  0.11310551689E+03  0.41800000000E+01 0. -1.
</event>
<event>
11    1  0.2450992E-009  0.1434313E+03  0.7561462E-02  0.1103786E+00
         22   -1    0    0    0    0  0.00000000000E+00  0.00000000000E+00  0.87397586129E+02  0.87397586129E+02  0.00000000000E+00 0.  1.
         22   -1    0    0    0    0 -0.00000000000E+00 -0.00000000000E+00 -0.85936635258E+03  0.85936635258E+03  0.00000000000E+00 0.  1.
         25    2    1    2    0    0 -0.70297992772E+00  0.19756597589E+02 -0.30685160450E+03  0.33195971744E+03  0.12509408256E+03 0.  0.
         24    2    1    2    0    0 -0.22840896376E+02 -0.10532406554E+03 -0.47548920968E+03  0.49402243574E+03  0.79707673161E+02 0.  0.
        -24    2    1    2    0    0  0.23543876304E+02  0.85567467952E+02  0.10372047726E+02  0.12078178553E+03  0.81268411199E+02 0.  0.
        -13    1    4    4    0    0 -0.45816947725E+02 -0.10046185394E+03 -0.38304354181E+03  0.39864035385E+03  0.00000000000E+00 0.  1.
         14    1    4    4    0    0  0.22976051350E+02 -0.48622116042E+01 -0.92445667868E+02  0.95382081885E+02  0.00000000000E+00 0. -1.
         13    1    5    5    0    0 -0.23081861438E+02  0.53945799848E+00  0.52279112836E+01  0.23672650861E+02  0.00000000000E+00 0. -1.
        -14    1    5    5    0    0  0.46625737742E+02  0.85028009954E+02  0.51441364427E+01  0.97109134670E+02  0.00000000000E+00 0.  1.
          5    1    3    3  501    0 -0.32814721094E+02  0.60428466351E+02 -0.12389375918E+03  0.14175874375E+03  0.41800000000E+01 0.  1.
         -5    1    3    3    0  501  0.32111741166E+02 -0.40671868762E+02 -0.18295784532E+03  0.19020097369E+03  0.41800000000E+01 0.  1.
</event>
<event>
11    1  0.2450992E-009  0.3356670E+03  0.7561462E-02  0.9861326E-01
         22   -1    0    0    0    0  0.00000000000E+00  0.00000000000E+00  0.79433418777E+02  0.79433418777E+02  0.00000000000E+00 0. -1.
         22   -1    0    0    0    0 -0.00000000000E+00 -0.00000000000E+00 -0.10158683434E+04  0.10158683434E+04  0.00000000000E+00 0. -1.
         25    2    1    2    0    0  0.29498412070E+02  0.71498570061E+01 -0.18868111332E+03  0.22840535808E+03  0.12508864179E+03 0.  0.
        -24    2    1    2    0    0  0.14431382895E+03  0.12384304879E+03 -0.35761024006E+03  0.41277056261E+03  0.79566774444E+02 0.  0.
         24    2    1    2    0    0 -0.17381224102E+03 -0.13099290580E+03 -0.39014357128E+03  0.45412584154E+03  0.81537949706E+02 0.  0.
        -11    1    5    5    0    0  0.26250240810E+01 -0.27965399729E+02 -0.45511875397E+02  0.53481633629E+02  0.00000000000E+00 0.  1.
         12    1    5    5    0    0 -0.17643726510E+03 -0.10302750607E+03 -0.34463169588E+03  0.40064420791E+03  0.00000000000E+00 0. -1.
         13    1    4    4    0    0  0.13039766808E+03  0.11940871841E+03 -0.26217505119E+03  0.31622421056E+03  0.00000000000E+00 0. -1.
        -14    1    4    4    0    0  0.13916160864E+02  0.44343303824E+01 -0.95435188871E+02  0.96546352049E+02  0.00000000000E+00 0.  1.
          5    1    3    3  501    0  0.50076263252E+02 -0.46874701630E+02 -0.12226782748E+03  0.14025606522E+03  0.41800000000E+01 0.  1.
         -5    1    3    3    0  501 -0.20577851182E+02  0.54024558636E+02 -0.66413285840E+02  0.88149292856E+02  0.41800000000E+01 0.  1.
</event>
<event>
11    1  0.2450992E-009  0.2005774E+03  0.7561462E-02  0.1054116E+00
         22   -1    0    0    0    0  0.00000000000E+00  0.00000000000E+00  0.19998345837E+04  0.19998345837E+04  0.00000000000E+00 0. -1.
         22   -1    0    0    0    0 -0.00000000000E+00 -0.00000000000E+00 -0.16531983978E+03  0.16531983978E+03  0.00000000000E+00 0. -1.
         25    2    1    2    0    0 -0.30486520777E+02  0.12937970314E+03 -0.86906922886E+02  0.20216113505E+03  0.12509106981E+03 0.  0.
        -24    2    1    2    0    0  0.68956565463E+02  0.23827201047E+02  0.15530050045E+03  0.18804733707E+03  0.76946813492E+02 0.  0.
         24    2    1    2    0    0 -0.38470044687E+02 -0.15320690419E+03  0.17661211664E+04  0.17749459514E+04  0.79352732486E+02 0.  0.
        -13    1    5    5    0    0  0.21128954973E+02 -0.14196731401E+02  0.23724010179E+03  0.23860185627E+03  0.00000000000E+00 0.  1.
         14    1    5    5    0    0 -0.59598999660E+02 -0.13901017279E+03  0.15288810646E+04  0.15363440951E+04  0.00000000000E+00 0. -1.
         13    1    4    4    0    0  0.86097418417E+02  0.21238383151E+02  0.12846327253E+03  0.15609819591E+03  0.00000000000E+00 0. -1.
        -14    1    4    4    0    0 -0.17140852954E+02  0.25888178958E+01  0.26837227920E+02  0.31949141155E+02  0.00000000000E+00 0.  1.
          5    1    3    3  501    0 -0.68170361204E+02  0.29564266105E+02 -0.23815631725E+02  0.78140262934E+02  0.41800000000E+01 0.  1.
         -5    1    3    3    0  501  0.37683840427E+02  0.99815437037E+02 -0.63091291161E+02  0.12402087212E+03  0.41800000000E+01 0.  1.
</event>
<event>
11    1  0.2450992E-009  0.1725868E+03  0.7561462E-02  0.1075802E+00
         22   -1    0    0    0    0  0.00000000000E+00  0.00000000000E+00  0.98065401228E+03  0.98065401228E+03  0.00000000000E+00 0.  1.
         22   -1    0    0    0    0 -0.00000000000E+00 -0.00000000000E+00 -0.14687267818E+03  0.14687267818E+03  0.00000000000E+00 0.  1.
         25    2    1    2    0    0  0.24683043827E+01  0.11856960944E+03 -0.74532437539E+02  0.18779841109E+03  0.12509322186E+03 0.  0.
        -24    2    1    2    0    0 -0.98563230939E+01  0.43873231962E+01  0.19700590001E+03  0.21337385872E+03  0.81244588947E+02 0.  0.
         24    2    1    2    0    0  0.73880187111E+01 -0.12295693264E+03  0.71130787163E+03  0.72635442065E+03  0.80367070667E+02 0.  0.
        -13    1    5    5    0    0  0.43519578173E+02 -0.74237247763E+02  0.39158592617E+03  0.40092974474E+03  0.00000000000E+00 0.  1.
         14    1    5    5    0    0 -0.36131559462E+02 -0.48719684873E+02  0.31972194546E+03  0.32542467591E+03  0.00000000000E+00 0. -1.
         13    1    4    4    0    0 -0.16848867209E+01 -0.18080987154E+02  0.18629189131E+03  0.18717486399E+03  0.00000000000E+00 0. -1.
        -14    1    4    4    0    0 -0.81714363729E+01  0.22468310350E+02  0.10714008703E+02  0.26198994730E+02  0.00000000000E+00 0.  1.
          5    1    3    3  501    0 -0.38491516807E+02  0.11103946216E+03 -0.84457507693E+02  0.14478225730E+03  0.41800000000E+01 0.  1.
         -5    1    3    3    0  501  0.40959821190E+02  0.75301472826E+01  0.99250701538E+01  0.43016153798E+02  0.41800000000E+01 0.  1.
</event>
<event>
11    1  0.2450992E-009  0.1163646E+04  0.7561462E-02  0.8537257E-01
         22   -1    0    0    0    0  0.00000000000E+00  0.00000000000E+00  0.20617669368E+03  0.20617669368E+03  0.00000000000E+00 0.  1.
         22   -1    0    0    0    0 -0.00000000000E+00 -0.00000000000E+00 -0.16418837686E+04  0.16418837686E+04  0.00000000000E+00 0.  1.
         25    2    1    2    0    0  0.98711074844E+02  0.34463173386E+03 -0.13776046512E+04  0.14289706221E+04  0.12509018993E+03 0.  0.
        -24    2    1    2    0    0 -0.12139668319E+03 -0.19063179063E+03 -0.34234215916E+02  0.24244031374E+03  0.80794120452E+02 0.  0.
         24    2    1    2    0    0  0.22685608348E+02 -0.15399994323E+03 -0.23868207790E+02  0.17664952640E+03  0.80029647597E+02 0.  0.
        -13    1    5    5    0    0  0.14168597579E+01 -0.89789782753E+02  0.24984250071E+02  0.93211723136E+02  0.00000000000E+00 0.  1.
         14    1    5    5    0    0  0.21268748590E+02 -0.64210160479E+02 -0.48852457861E+02  0.83437803269E+02  0.00000000000E+00 0. -1.
         11    1    4    4    0    0 -0.68844762329E+01 -0.39517172281E+02 -0.34393976805E+02  0.52838892480E+02  0.00000000000E+00 0. -1.
        -12    1    4    4    0    0 -0.11451220696E+03 -0.15111461834E+03  0.15976088831E+00  0.18960142126E+03  0.00000000000E+00 0.  1.
          5    1    3    3  501    0  0.53179234269E+02  0.28621869727E+03 -0.90779346964E+03  0.95333919963E+03  0.41800000000E+01 0. -1.
         -5    1    3    3    0  501  0.45531840576E+02  0.58413036583E+02 -0.46981118158E+03  0.47563142252E+03  0.41800000000E+01 0. -1.
</event>
<event>
11    1  0.2450992E-009  0.5490978E+03  0.7561462E-02  0.9290043E-01
         22   -1    0    0    0    0  0.00000000000E+00  0.00000000000E+00  0.17705346087E+04  0.17705346087E+04  0.00000000000E+00 0. -1.
         22   -1    0    0    0    0 -0.00000000000E+00 -0.00000000000E+00 -0.24741930741E+03  0.24741930741E+03  0.00000000000E+00 0. -1.
         25    2    1    2    0    0  0.31975945300E+02  0.53049265885E+03  0.35230481660E+03  0.64978039684E+03  0.12510378947E+03 0.  0.
         24    2    1    2    0    0  0.89015477561E+02 -0.54210599818E+03  0.84898138701E+03  0.10129680817E+04  0.59432907514E+02 0.  0.
        -24    2    1    2    0    0 -0.12099142286E+03  0.11613339333E+02  0.32182909766E+03  0.35520543758E+03  0.88448520243E+02 0.  0.
        -13    1    4    4    0    0  0.91537461525E+02 -0.46533182196E+03  0.75493235547E+03  0.89153557008E+03  0.00000000000E+00 0.  1.
         14    1    4    4    0    0 -0.25219839637E+01 -0.76774176227E+02  0.94049031537E+02  0.12143251159E+03  0.00000000000E+00 0. -1.
         13    1    5    5    0    0 -0.11909676158E+02  0.36376524156E+02  0.74484497234E+02  0.83743848873E+02  0.00000000000E+00 0. -1.
        -14    1    5    5    0    0 -0.10908174670E+03 -0.24763184823E+02  0.24734460042E+03  0.27146158871E+03  0.00000000000E+00 0.  1.
          5    1    3    3  501    0  0.79503792031E+02  0.34559409793E+03  0.21735475684E+03  0.41595275717E+03  0.41800000000E+01 0. -1.
         -5    1    3    3    0  501 -0.47527846731E+02  0.18489856092E+03  0.13495005976E+03  0.23382763967E+03  0.41800000000E+01 0. -1.
</event>
<event>
11    1  0.2450992E-009  0.9730958E+03  0.7561462E-02  0.8705033E-01
         22   -1    0    0    0    0  0.00000000000E+00  0.00000000000E+00  0.12964709871E+03  0.12964709871E+03  0.00000000000E+00 0.  1.
         22   -1    0    0    0    0 -0.00000000000E+00 -0.00000000000E+00 -0.18259480894E+04  0.18259480894E+04  0.00000000000E+00 0.  1.
         25    2    1    2    0    0  0.28944635220E+03 -0.35882746444E+02 -0.15341985713E+04  0.15666792380E+04  0.12510721909E+03 0.  0.
         24    2    1    2    0    0 -0.17178396850E+03  0.69990452946E+02 -0.77205847878E+02  0.21943399256E+03  0.88216431619E+02 0.  0.
        -24    2    1    2    0    0 -0.11766238370E+03 -0.34107706502E+02 -0.84896571482E+02  0.16948195754E+03  0.80677964154E+02 0.  0.
        -13    1    4    4    0    0 -0.77230502742E+02 -0.14345276693E+02 -0.25459320216E+02  0.82574296866E+02  0.00000000000E+00 0.  1.
         14    1    4    4    0    0 -0.94553465762E+02  0.84335729639E+02 -0.51746527662E+02  0.13685969570E+03  0.00000000000E+00 0. -1.
         13    1    5    5    0    0  0.52266061210E+01 -0.18841057314E+02 -0.38067440950E+00  0.19556271763E+02  0.00000000000E+00 0. -1.
        -14    1    5    5    0    0 -0.12288898982E+03 -0.15266649188E+02 -0.84515897072E+02  0.14992568577E+03  0.00000000000E+00 0.  1.
          5    1    3    3  501    0  0.17729482236E+03 -0.37074673610E+02 -0.62977507377E+03  0.65531832066E+03  0.41800000000E+01 0.  1.
         -5    1    3    3    0  501  0.11215152984E+03  0.11919271658E+01 -0.90442349754E+03  0.91136091733E+03  0.41800000000E+01 0.  1.
</event>
<event>
11    1  0.2450992E-009  0.1632448E+03  0.7561462E-02  0.1084065E+00
         22   -1    0    0    0    0  0.00000000000E+00  0.00000000000E+00  0.81576219086E+02  0.81576219086E+02  0.00000000000E+00 0.  1.
         22   -1    0    0    0    0 -0.00000000000E+00 -0.00000000000E+00 -0.77993998280E+03  0.77993998280E+03  0.00000000000E+00 0. -1.
         25    2    1    2    0    0 -0.10481407850E+03 -0.44443759815E+02 -0.59857555421E+03  0.62201341044E+03  0.12508696910E+03 0.  0.
         24    2    1    2    0    0  0.50358970203E+02  0.67014796131E+02 -0.47043221477E+02  0.12672055458E+03  0.82571335742E+02 0.  0.
        -24    2    1    2    0    0  0.54455108297E+02 -0.22571036317E+02 -0.52744988034E+02  0.11278223686E+03  0.80392715400E+02 0.  0.
        -13    1    4    4    0    0  0.51128019316E+02  0.80686589533E+02 -0.21762401748E+02  0.97969394300E+02  0.00000000000E+00 0.  1.
         14    1    4    4    0    0 -0.76904911340E+00 -0.13671793402E+02 -0.25280819729E+02  0.28751160282E+02  0.00000000000E+00 0. -1.
         11    1    5    5    0    0  0.15513408355E+02  0.25950376347E+02 -0.38507569430E+02  0.48958357558E+02  0.00000000000E+00 0. -1.
        -12    1    5    5    0    0  0.38941699942E+02 -0.48521412664E+02 -0.14237418604E+02  0.63823879307E+02  0.00000000000E+00 0.  1.
          5    1    3    3  501    0 -0.12651337090E+03 -0.52748186888E+02 -0.56193966822E+03  0.57843034788E+03  0.41800000000E+01 0.  1.
         -5    1    3    3    0  501  0.21699292404E+02  0.83044270736E+01 -0.36635885991E+02  0.43583062561E+02  0.41800000000E+01 0.  1.
</event>
<event>
11    1  0.2450992E-009  0.5804704E+03  0.7561462E-02  0.9229750E-01
         22   -1    0    0    0    0  0.00000000000E+00  0.00000000000E+00  0.43269425110E+03  0.43269425110E+03  0.00000000000E+00 0. -1.
         22   -1    0    0    0    0 -0.00000000000E+00 -0.00000000000E+00 -0.14674128372E+04  0.14674128372E+04  0.00000000000E+00 0. -1.
         25    2    1    2    0    0  0.35114661289E+03  0.44203988994E+03 -0.10678425255E+04  0.12143467689E+04  0.12508880011E+03 0.  0.
        -24    2    1    2    0    0 -0.33110177955E+03 -0.47399645850E+03  0.78993348133E+02  0.58905711935E+03  0.80295141279E+02 0.  0.
         24    2    1    2    0    0 -0.20044833343E+02  0.31956568562E+02 -0.45869408780E+02  0.96703200068E+02  0.76318337401E+02 0.  0.
        -13    1    5    5    0    0 -0.21294679328E+01 -0.15746897358E+02 -0.42799562113E+02  0.45654155639E+02  0.00000000000E+00 0.  1.
         14    1    5    5    0    0 -0.17915365410E+02  0.47703465920E+02 -0.30698466666E+01  0.51049044429E+02  0.00000000000E+00 0. -1.
         11    1    4    4    0    0 -0.25243626291E+03 -0.40832428641E+03  0.79426757753E+02  0.48658133909E+03  0.00000000000E+00 0. -1.
        -12    1    4    4    0    0 -0.78665516642E+02 -0.65672172091E+02 -0.43340962060E+00  0.10247578026E+03  0.00000000000E+00 0.  1.
          5    1    3    3  501    0  0.27812300764E+03  0.39147730957E+03 -0.96847686553E+03  0.10810049966E+04  0.41800000000E+01 0.  1.
         -5    1    3    3    0  501  0.73023605251E+02  0.50562580369E+02 -0.99365659947E+02  0.13334177228E+03  0.41800000000E+01 0.  1.
</event>
<event>
11    1  0.2450992E-009  0.1784555E+03  0.7561462E-02  0.1070899E+00
         22   -1    0    0    0    0  0.00000000000E+00  0.00000000000E+00  0.30773921359E+04  0.30773921359E+04  0.00000000000E+00 0.  1.
         22   -1    0    0    0    0 -0.00000000000E+00 -0.00000000000E+00 -0.26165653799E+03  0.26165653799E+03  0.00000000000E+00 0. -1.
         25    2    1    2    0    0  0.59279567482E+02 -0.15301116800E+03 -0.13202492171E+03  0.24496780473E+03  0.12510859582E+03 0.  0.
         24    2    1    2    0    0 -0.42164110109E+02  0.82956372800E+02 -0.19236968826E+02  0.12499496251E+03  0.81204111440E+02 0.  0.
        -24    2    1    2    0    0 -0.17115457372E+02  0.70054795203E+02  0.29669974884E+04  0.29690859066E+04  0.84831664996E+02 0.  0.
        -13    1    4    4    0    0 -0.25489868139E+02  0.23271521938E+02  0.30089985887E+02  0.45789784469E+02  0.00000000000E+00 0.  1.
         14    1    4    4    0    0 -0.16674241971E+02  0.59684850862E+02 -0.49326954714E+02  0.79205178044E+02  0.00000000000E+00 0. -1.
         13    1    5    5    0    0 -0.98680613948E+01 -0.14958632378E+02  0.20834104692E+03  0.20911033248E+03  0.00000000000E+00 0. -1.
        -14    1    5    5    0    0 -0.72473959774E+01  0.85013427580E+02  0.27586564415E+04  0.27599755741E+04  0.00000000000E+00 0.  1.
          5    1    3    3  501    0  0.93938020679E+02 -0.13959201748E+03 -0.11519888358E+03  0.20395719711E+03  0.41800000000E+01 0.  1.
         -5    1    3    3    0  501 -0.34658453197E+02 -0.13419150519E+02 -0.16826038136E+02  0.41010607628E+02  0.41800000000E+01 0.  1.
</event>
<event>
11    1  0.2450992E-009  0.4009641E+03  0.7561462E-02  0.9646918E-01
         22   -1    0    0    0    0  0.00000000000E+00  0.00000000000E+00  0.17459149467E+04  0.17459149467E+04  0.00000000000E+00 0. -1.
         22   -1    0    0    0    0 -0.00000000000E+00 -0.00000000000E+00 -0.30963842116E+03  0.30963842116E+03  0.00000000000E+00 0.  1.
         25    2    1    2    0    0 -0.16623894648E+03  0.34772667015E+03 -0.10455049103E+03  0.41848287874E+03  0.12509152713E+03 0.  0.
         24    2    1    2    0    0  0.24326857336E+03 -0.27716122380E+03  0.79725784354E+03  0.88202793119E+03  0.79719881741E+02 0.  0.
        -24    2    1    2    0    0 -0.77029626877E+02 -0.70565446354E+02  0.74356917299E+03  0.75504255791E+03  0.79253413766E+02 0.  0.
        -11    1    4    4    0    0 -0.33653078542E+01 -0.21997396786E+02  0.53569894246E+02  0.58008140221E+02  0.00000000000E+00 0.  1.
         12    1    4    4    0    0  0.24663388121E+03 -0.25516382701E+03  0.74368794930E+03  0.82401979097E+03  0.00000000000E+00 0. -1.
         13    1    5    5    0    0 -0.42049125389E+02 -0.67654847826E+02  0.31056736967E+03  0.32062033386E+03  0.00000000000E+00 0. -1.
        -14    1    5    5    0    0 -0.34980501488E+02 -0.29105985281E+01  0.43300180332E+03  0.43442222404E+03  0.00000000000E+00 0.  1.
          5    1    3    3  501    0 -0.53449264106E+02  0.43431167018E+02  0.18421918250E+02  0.71413791203E+02  0.41800000000E+01 0.  1.
         -5    1    3    3    0  501 -0.11278968237E+03  0.30429550313E+03 -0.12297240928E+03  0.34706908753E+03  0.41800000000E+01 0.  1.
</event>
<event>
11    1  0.2450992E-009  0.1325146E+03  0.7561462E-02  0.1116217E+00
         22   -1    0    0    0    0  0.00000000000E+00  0.00000000000E+00  0.10683065391E+04  0.10683065391E+04  0.00000000000E+00 0. -1.
         22   -1    0    0    0    0 -0.00000000000E+00 -0.00000000000E+00 -0.35605234362E+03  0.35605234362E+03  0.00000000000E+00 0.  1.
         25    2    1    2    0    0 -0.60123789707E+01 -0.27448677006E+02 -0.16215824297E+03  0.20671895487E+03  0.12509137448E+03 0.  0.
        -24    2    1    2    0    0  0.41909880875E+02  0.36656742020E+02 -0.15637000469E+03  0.18308579819E+03  0.77257208607E+02 0.  0.
         24    2    1    2    0    0 -0.35897501905E+02 -0.92080650147E+01  0.10307824431E+04  0.10345541297E+04  0.80102328331E+02 0.  0.
        -11    1    5    5    0    0  0.24248807241E+02 -0.13711988861E+02  0.30457561868E+03  0.30584690743E+03  0.00000000000E+00 0.  1.
         12    1    5    5    0    0 -0.60146309145E+02  0.45039238466E+01  0.72620682446E+03  0.72870722223E+03  0.00000000000E+00 0. -1.
         11    1    4    4    0    0  0.45037125838E+02 -0.50055711372E+01 -0.11783820538E+03  0.12625070729E+03  0.00000000000E+00 0. -1.
        -12    1    4    4    0    0 -0.31272449625E+01  0.41662313158E+02 -0.38531799310E+02  0.56835090893E+02  0.00000000000E+00 0.  1.
          5    1    3    3  501    0 -0.54363054504E+02 -0.49137449377E+02 -0.77376582798E+02  0.10665101308E+03  0.41800000000E+01 0.  1.
         -5    1    3    3    0  501  0.48350675534E+02  0.21688772372E+02 -0.84781660175E+02  0.10006794179E+03  0.41800000000E+01 0.  1.
</event>
<event>
11    1  0.2450992E-009  0.3185362E+03  0.7561462E-02  0.9926378E-01
         22   -1    0    0    0    0  0.00000000000E+00  0.00000000000E+00  0.21593025923E+04  0.21593025923E+04  0.00000000000E+00 0.  1.
         22   -1    0    0    0    0 -0.00000000000E+00 -0.00000000000E+00 -0.11156188546E+03  0.11156188546E+03  0.00000000000E+00 0.  1.
         25    2    1    2    0    0 -0.56315150531E+02  0.31330455243E+03  0.23058181730E+03  0.41248764673E+03  0.12508775114E+03 0.  0.
        -24    2    1    2    0    0  0.92821229159E+01 -0.22511978205E+03  0.86167957097E+03  0.89451350969E+03  0.83052163904E+02 0.  0.
         24    2    1    2    0    0  0.47033027615E+02 -0.88184770376E+02  0.95547931859E+03  0.96386332135E+03  0.78122433245E+02 0.  0.
        -13    1    5    5    0    0  0.50076235752E+02 -0.10116101834E+03  0.88088962822E+03  0.88809217885E+03  0.00000000000E+00 0.  1.
         14    1    5    5    0    0 -0.30432081371E+01  0.12976247964E+02  0.74589690368E+02  0.75771142503E+02  0.00000000000E+00 0. -1.
         13    1    4    4    0    0 -0.14575110073E+02 -0.19400023903E+02  0.19241156610E+03  0.19393557057E+03  0.00000000000E+00 0. -1.
        -14    1    4    4    0    0  0.23857232989E+02 -0.20571975815E+03  0.66926800487E+03  0.70057793913E+03  0.00000000000E+00 0.  1.
          5    1    3    3  501    0 -0.85155309553E+01  0.15933779838E+03  0.18613758728E+03  0.24520546906E+03  0.41800000000E+01 0. -1.
         -5    1    3    3    0  501 -0.47799619576E+02  0.15396675405E+03  0.44444230022E+02  0.16728217767E+03  0.41800000000E+01 0. -1.
</event>
<event>
11    1  0.2450992E-009  0.1440002E+03  0.7561462E-02  0.1103172E+00
         22   -1    0    0    0    0  0.00000000000E+00  0.00000000000E+00  0.79546550408E+03  0.79546550408E+03  0.00000000000E+00 0. -1.
         22   -1    0    0    0    0 -0.00000000000E+00 -0.00000000000E+00 -0.22859343953E+03  0.22859343953E+03  0.00000000000E+00 0.  1.
         25    2    1    2    0    0 -0.23339707286E+02  0.54046447973E+02 -0.63936314858E+02  0.15232184021E+03  0.12509328588E+03 0.  0.
         24    2    1    2    0    0 -0.40417060695E+02 -0.20010775590E+02 -0.98194656283E+02  0.13454592055E+03  0.80165106377E+02 0.  0.
        -24    2    1    2    0    0  0.63756767980E+02 -0.34035672383E+02  0.72900303569E+03  0.73719118286E+03  0.82353273018E+02 0.  0.
        -11    1    4    4    0    0 -0.44762203177E+01 -0.16585744265E+02 -0.96908434543E+02  0.98419348437E+02  0.00000000000E+00 0.  1.
         12    1    4    4    0    0 -0.35940840377E+02 -0.34250313254E+01 -0.12862217394E+01  0.36126572117E+02  0.00000000000E+00 0. -1.
         11    1    5    5    0    0  0.39139990775E+02 -0.41341031925E+02  0.67497509825E+03  0.67737168752E+03  0.00000000000E+00 0. -1.
        -12    1    5    5    0    0  0.24616777205E+02  0.73053595427E+01  0.54027937447E+02  0.59819495341E+02  0.00000000000E+00 0.  1.
          5    1    3    3  501    0 -0.74833389755E+02  0.36307874763E+02 -0.33287790431E+02  0.89687498481E+02  0.41800000000E+01 0.  1.
         -5    1    3    3    0  501  0.51493682469E+02  0.17738573210E+02 -0.30648524427E+02  0.62634341725E+02  0.41800000000E+01 0.  1.
</event>
<event>
11    1  0.2450992E-009  0.1598548E+03  0.7561462E-02  0.1087214E+00
         22   -1    0    0    0    0  0.00000000000E+00  0.00000000000E+00  0.36668688909E+03  0.36668688909E+03  0.00000000000E+00 0.  1.
         22   -1    0    0    0    0 -0.00000000000E+00 -0.00000000000E+00 -0.11616978701E+03  0.11616978701E+03  0.00000000000E+00 0. -1.
         25    2    1    2    0    0  0.94722187785E+02  0.33397363036E+02  0.18048209634E+02  0.16143573683E+03  0.12509229608E+03 0.  0.
         24    2    1    2    0    0 -0.10271875226E+03  0.52744958352E+01  0.12987635749E+03  0.18370936629E+03  0.79387030782E+02 0.  0.
        -24    2    1    2    0    0  0.79965644775E+01 -0.38671858871E+02  0.10259253496E+03  0.13771157298E+03  0.82944507900E+02 0.  0.
        -13    1    4    4    0    0 -0.85545342712E+02  0.29432511451E+02  0.62085225240E+02  0.10972170972E+03  0.00000000000E+00 0.  1.
         14    1    4    4    0    0 -0.17173409551E+02 -0.24158015616E+02  0.67791132247E+02  0.73987656575E+02  0.00000000000E+00 0. -1.
         11    1    5    5    0    0  0.39815293221E+02 -0.15678587706E+02  0.22111070602E+02  0.48166120146E+02  0.00000000000E+00 0. -1.
        -12    1    5    5    0    0 -0.31818728744E+02 -0.22993271164E+02  0.80481464358E+02  0.89545452832E+02  0.00000000000E+00 0.  1.
          5    1    3    3  501    0  0.29500473364E+02  0.53873545002E+02 -0.38507299148E+02  0.72614883237E+02  0.41800000000E+01 0.  1.
         -5    1    3    3    0  501  0.65221714421E+02 -0.20476181967E+02  0.56555508781E+02  0.88820853596E+02  0.41800000000E+01 0.  1.
</event>
<event>
11    1  0.2450992E-009  0.2540445E+03  0.7561462E-02  0.1021766E+00
         22   -1    0    0    0    0  0.00000000000E+00  0.00000000000E+00  0.17276534210E+04  0.17276534210E+04  0.00000000000E+00 0. -1.
         22   -1    0    0    0    0 -0.00000000000E+00 -0.00000000000E+00 -0.47272564605E+03  0.47272564605E+03  0.00000000000E+00 0. -1.
         25    2    1    2    0    0  0.20719578732E+03 -0.75580618325E+02 -0.41620448841E+03  0.48735655895E+03  0.12509082793E+03 0.  0.
         24    2    1    2    0    0  0.26261871001E+02 -0.89853221949E+00  0.13700806452E+03  0.15709608584E+03  0.72232106521E+02 0.  0.
        -24    2    1    2    0    0 -0.23345765832E+03  0.76479150544E+02  0.15341241988E+04  0.15559264223E+04  0.83776102669E+02 0.  0.
        -11    1    4    4    0    0 -0.21275316733E+02  0.19537930463E+01  0.80051309805E+02  0.82853295715E+02  0.00000000000E+00 0.  1.
         12    1    4    4    0    0  0.47537187734E+02 -0.28523252658E+01  0.56956754716E+02  0.74242790120E+02  0.00000000000E+00 0. -1.
         13    1    5    5    0    0 -0.15515817907E+03  0.10883185623E+02  0.10150063583E+04  0.10268546205E+04  0.00000000000E+00 0. -1.
        -14    1    5    5    0    0 -0.78299479249E+02  0.65595964921E+02  0.51911784056E+03  0.52907180180E+03  0.00000000000E+00 0.  1.
          5    1    3    3  501    0  0.15820546986E+01 -0.44038445961E+02 -0.92616214110E+02  0.10265049019E+03  0.41800000000E+01 0. -1.
         -5    1    3    3    0  501  0.20561373262E+03 -0.31542172363E+02 -0.32358827430E+03  0.38470606876E+03  0.41800000000E+01 0. -1.
</event>
<event>
11    1  0.2450992E-009  0.1425199E+03  0.7561462E-02  0.1104777E+00
         22   -1    0    0    0    0  0.00000000000E+00  0.00000000000E+00  0.20305374342E+03  0.20305374342E+03  0.00000000000E+00 0.  1.
         22   -1    0    0    0    0 -0.00000000000E+00 -0.00000000000E+00 -0.35339402644E+03  0.35339402644E+03  0.00000000000E+00 0. -1.
         25    2    1    2    0    0 -0.44210114699E+02 -0.51537196167E+01 -0.14782479548E+03  0.19869847074E+03  0.12509123489E+03 0.  0.
        -24    2    1    2    0    0  0.92416360335E+02  0.12923408713E+01 -0.14019513102E+03  0.19147350944E+03  0.92005305567E+02 0.  0.
         24    2    1    2    0    0 -0.48206245636E+02  0.38613787454E+01  0.13767964348E+03  0.16627578968E+03  0.79706973589E+02 0.  0.
        -13    1    5    5    0    0 -0.53496434220E+02  0.14159608029E+02  0.14314770245E+03  0.15347191173E+03  0.00000000000E+00 0.  1.
         14    1    5    5    0    0  0.52901885836E+01 -0.10298229283E+02 -0.54680589651E+01  0.12803877947E+02  0.00000000000E+00 0. -1.
         13    1    4    4    0    0  0.91137585632E+02  0.39265102180E+01 -0.15311319305E+03  0.17822773882E+03  0.00000000000E+00 0. -1.
        -14    1    4    4    0    0  0.12787747030E+01 -0.26341693468E+01  0.12918062028E+02  0.13245770624E+02  0.00000000000E+00 0.  1.
          5    1    3    3  501    0 -0.17959845950E+02 -0.10801172579E+02 -0.16511346765E+03  0.16649069342E+03  0.41800000000E+01 0.  1.
         -5    1    3    3    0  501 -0.26250268749E+02  0.56474529619E+01  0.17288672170E+02  0.32207777318E+02  0.41800000000E+01 0.  1.
</event>
<event>
11    1  0.2450992E-009  0.4003830E+03  0.7561462E-02  0.9648629E-01
         22   -1    0    0    0    0  0.00000000000E+00  0.00000000000E+00  0.70206571467E+03  0.70206571467E+03  0.00000000000E+00 0. -1.
         22   -1    0    0    0    0 -0.00000000000E+00 -0.00000000000E+00 -0.12104562135E+04  0.12104562135E+04  0.00000000000E+00 0. -1.
         25    2    1    2    0    0  0.42697258849E+03  0.22244026097E+03 -0.75378987800E+03  0.90312336172E+03  0.12508942915E+03 0.  0.
        -24    2    1    2    0    0 -0.24825778876E+03 -0.15826341988E+03 -0.29919252631E+03  0.42708043368E+03  0.78754614370E+02 0.  0.
         24    2    1    2    0    0 -0.17871479973E+03 -0.64176841086E+02  0.54459190548E+03  0.58231813275E+03  0.80351836571E+02 0.  0.
        -13    1    5    5    0    0 -0.15918429895E+03 -0.23838835193E+02  0.41015519459E+03  0.44060777881E+03  0.00000000000E+00 0.  1.
         14    1    5    5    0    0 -0.19530500786E+02 -0.40338005893E+02  0.13443671089E+03  0.14171035395E+03  0.00000000000E+00 0. -1.
         13    1    4    4    0    0 -0.23738211328E+03 -0.13051088482E+03 -0.28761862814E+03  0.39510483927E+03  0.00000000000E+00 0. -1.
        -14    1    4    4    0    0 -0.10875675478E+02 -0.27752535056E+02 -0.11573898170E+02  0.31975594412E+02  0.00000000000E+00 0.  1.
          5    1    3    3  501    0  0.15038969236E+02  0.18444683140E+02 -0.52965984175E+01  0.24736678973E+02  0.41800000000E+01 0.  1.
         -5    1    3    3    0  501  0.41193361926E+03  0.20399557783E+03 -0.74849327958E+03  0.87838668274E+03  0.41800000000E+01 0.  1.
</event>
<event>
11    1  0.2450992E-009  0.1604349E+03  0.7561462E-02  0.1086669E+00
         22   -1    0    0    0    0  0.00000000000E+00  0.00000000000E+00  0.38437569997E+03  0.38437569997E+03  0.00000000000E+00 0.  1.
         22   -1    0    0    0    0 -0.00000000000E+00 -0.00000000000E+00 -0.33126976040E+03  0.33126976040E+03  0.00000000000E+00 0.  1.
         25    2    1    2    0    0  0.59629217665E+02  0.81133138391E+02 -0.23056399373E+03  0.28097241325E+03  0.12509001584E+03 0.  0.
         24    2    1    2    0    0 -0.22237500605E+02  0.12259761363E+02 -0.34095316147E+02  0.91205269920E+02  0.80691402864E+02 0.  0.
        -24    2    1    2    0    0 -0.37391717059E+02 -0.93392899754E+02  0.31776524944E+03  0.34346777720E+03  0.82915535293E+02 0.  0.
        -13    1    4    4    0    0  0.28961861071E+02 -0.63494587124E+01 -0.16644086165E+02  0.34001920929E+02  0.00000000000E+00 0.  1.
         14    1    4    4    0    0 -0.51199361676E+02  0.18609220075E+02 -0.17451229982E+02  0.57203348991E+02  0.00000000000E+00 0. -1.
         11    1    5    5    0    0  0.20445171493E+02  0.81383807594E-01  0.49577065222E+02  0.53627390919E+02  0.00000000000E+00 0. -1.
        -12    1    5    5    0    0 -0.57836888553E+02 -0.93474283562E+02  0.26818818422E+03  0.28984038628E+03  0.00000000000E+00 0.  1.
          5    1    3    3  501    0  0.90697589141E+01  0.78904818046E+01  0.15042642304E+02  0.19704662325E+02  0.41800000000E+01 0. -1.
         -5    1    3    3    0  501  0.50559458751E+02  0.73242656587E+02 -0.24560663603E+03  0.26126775093E+03  0.41800000000E+01 0. -1.
</event>
<event>
11    1  0.2450992E-009  0.1585056E+03  0.7561462E-02  0.1088491E+00
         22   -1    0    0    0    0  0.00000000000E+00  0.00000000000E+00  0.17014036279E+04  0.17014036279E+04  0.00000000000E+00 0.  1.
         22   -1    0    0    0    0 -0.00000000000E+00 -0.00000000000E+00 -0.12221684437E+03  0.12221684437E+03  0.00000000000E+00 0. -1.
         25    2    1    2    0    0 -0.98943703310E+02  0.46243185199E+02  0.10102839443E+03  0.19437642978E+03  0.12508865404E+03 0.  0.
         24    2    1    2    0    0  0.31544041629E+02 -0.97672999337E+02 -0.15719263358E+02  0.13035762518E+03  0.78809731881E+02 0.  0.
        -24    2    1    2    0    0  0.67399661680E+02  0.51429814138E+02  0.14938776525E+04  0.14988864173E+04  0.88330692941E+02 0.  0.
        -13    1    4    4    0    0  0.32084830505E+02 -0.83990168409E+02 -0.43127946529E+02  0.99718626694E+02  0.00000000000E+00 0.  1.
         14    1    4    4    0    0 -0.54078887504E+00 -0.13682830928E+02  0.27408683171E+02  0.30638998482E+02  0.00000000000E+00 0. -1.
         11    1    5    5    0    0  0.17857914110E+02  0.26366756553E+02  0.11590049393E+04  0.11594423488E+04  0.00000000000E+00 0. -1.
        -12    1    5    5    0    0  0.49541747571E+02  0.25063057585E+02  0.33487271314E+03  0.33944406846E+03  0.00000000000E+00 0.  1.
          5    1    3    3  501    0 -0.75080795739E+02  0.26566428344E+02  0.12952815671E+03  0.15211152745E+03  0.41800000000E+01 0. -1.
         -5    1    3    3    0  501 -0.23862907571E+02  0.19676756855E+02 -0.28499762284E+02  0.42264902322E+02  0.41800000000E+01 0. -1.
</event>
<event>
11    1  0.2450992E-009  0.1987294E+03  0.7561462E-02  0.1055426E+00
         22   -1    0    0    0    0  0.00000000000E+00  0.00000000000E+00  0.10704344038E+04  0.10704344038E+04  0.00000000000E+00 0.  1.
         22   -1    0    0    0    0 -0.00000000000E+00 -0.00000000000E+00 -0.42960190998E+03  0.42960190998E+03  0.00000000000E+00 0.  1.
         25    2    1    2    0    0  0.12789217625E+03  0.33536698330E+02 -0.29588725385E+03  0.34738731111E+03  0.12509019964E+03 0.  0.
         24    2    1    2    0    0  0.27113657248E+02 -0.37392385320E+02 -0.78698056282E+02  0.12232085577E+03  0.81459602288E+02 0.  0.
        -24    2    1    2    0    0 -0.15500583349E+03  0.38556869899E+01  0.10154178039E+04  0.10303281469E+04  0.80380961565E+02 0.  0.
        -11    1    4    4    0    0 -0.14683253853E+02 -0.37947932410E+02 -0.67883000768E+02  0.79143826741E+02  0.00000000000E+00 0.  1.
         12    1    4    4    0    0  0.41796911101E+02  0.55554709043E+00 -0.10815055514E+02  0.43177029031E+02  0.00000000000E+00 0. -1.
         11    1    5    5    0    0 -0.13711506546E+02  0.11386244358E+02  0.32879714478E+03  0.32927984206E+03  0.00000000000E+00 0. -1.
        -12    1    5    5    0    0 -0.14129432695E+03 -0.75305573677E+01  0.68662065915E+03  0.70104830482E+03  0.00000000000E+00 0.  1.
          5    1    3    3  501    0  0.47378804550E+02  0.40071187684E+02 -0.29205371810E+02  0.68708640982E+02  0.41800000000E+01 0.  1.
         -5    1    3    3    0  501  0.80513371696E+02 -0.65344893538E+01 -0.26668188204E+03  0.27867867012E+03  0.41800000000E+01 0.  1.
</event>
<event>
11    1  0.2450992E-009  0.1679698E+03  0.7561462E-02  0.1079812E+00
         22   -1    0    0    0    0  0.00000000000E+00  0.00000000000E+00  0.93087302741E+03  0.93087302741E+03  0.00000000000E+00 0. -1.
         22   -1    0    0    0    0 -0.00000000000E+00 -0.00000000000E+00 -0.57429057155E+03  0.57429057155E+03  0.00000000000E+00 0.  1.
         25    2    1    2    0    0 -0.17894279591E+02  0.10839960003E+03 -0.50716233630E+03  0.53379099356E+03  0.12509400832E+03 0.  0.
         24    2    1    2    0    0 -0.75551803124E+02  0.11088568288E+03  0.17207212172E+03  0.23226493434E+03  0.79589415310E+02 0.  0.
        -24    2    1    2    0    0  0.93446082714E+02 -0.21928528291E+03  0.69167267043E+03  0.73910767106E+03  0.10512307416E+03 0.  0.
        -11    1    4    4    0    0  0.16885299587E+02  0.21895125404E+02  0.32677461605E+02  0.42805681347E+02  0.00000000000E+00 0.  1.
         12    1    4    4    0    0 -0.92437102711E+02  0.88990557475E+02  0.13939466012E+03  0.18945925300E+03  0.00000000000E+00 0. -1.
         13    1    5    5    0    0  0.11660490311E+03 -0.18740792845E+03  0.60074046626E+03  0.64000589284E+03  0.00000000000E+00 0. -1.
        -14    1    5    5    0    0 -0.23158820395E+02 -0.31877354452E+02  0.90932204174E+02  0.99101778212E+02  0.00000000000E+00 0.  1.
          5    1    3    3  501    0 -0.57562458743E+02  0.15135738686E+02 -0.25722498476E+03  0.26405433613E+03  0.41800000000E+01 0. -1.
         -5    1    3    3    0  501  0.39668179152E+02  0.93263861340E+02 -0.24993735154E+03  0.26973665744E+03  0.41800000000E+01 0. -1.
</event>
<event>
11    1  0.2450992E-009  0.1537683E+03  0.7561462E-02  0.1093089E+00
         22   -1    0    0    0    0  0.00000000000E+00  0.00000000000E+00  0.35969282413E+02  0.35969282413E+02  0.00000000000E+00 0. -1.
         22   -1    0    0    0    0 -0.00000000000E+00 -0.00000000000E+00 -0.11004937577E+04  0.11004937577E+04  0.00000000000E+00 0.  1.
         25    2    1    2    0    0 -0.78371944190E+02 -0.68295326892E+01 -0.62550453505E+03  0.64272235329E+03  0.12508915179E+03 0.  0.
        -24    2    1    2    0    0  0.11244428847E+03  0.49398005330E+01 -0.24062530405E+03  0.27753164402E+03  0.80343990729E+02 0.  0.
         24    2    1    2    0    0 -0.34072344279E+02  0.18897321562E+01 -0.19839463620E+03  0.21620904282E+03  0.78875996280E+02 0.  0.
        -13    1    5    5    0    0 -0.56325928642E+02  0.17203045853E+02 -0.13878866989E+03  0.15076753600E+03  0.00000000000E+00 0.  1.
         14    1    5    5    0    0  0.22253584362E+02 -0.15313313696E+02 -0.59605966319E+02  0.65441506814E+02  0.00000000000E+00 0. -1.
         11    1    4    4    0    0  0.86154307950E+02  0.22997650305E+02 -0.10289838198E+03  0.13615995635E+03  0.00000000000E+00 0. -1.
        -12    1    4    4    0    0  0.26289980519E+02 -0.18057849772E+02 -0.13772692207E+03  0.14137168767E+03  0.00000000000E+00 0.  1.
          5    1    3    3  501    0 -0.83886779235E+01 -0.48832168835E+02 -0.10917869977E+03  0.11996837714E+03  0.41800000000E+01 0.  1.
         -5    1    3    3    0  501 -0.69983266266E+02  0.42002636146E+02 -0.51632583528E+03  0.52275397615E+03  0.41800000000E+01 0.  1.
</event>
<event>
11    1  0.2450992E-009  0.2035218E+03  0.7561462E-02  0.1052061E+00
         22   -1    0    0    0    0  0.00000000000E+00  0.00000000000E+00  0.86209265421E+03  0.86209265421E+03  0.00000000000E+00 0.  1.
         22   -1    0    0    0    0 -0.00000000000E+00 -0.00000000000E+00 -0.20971828694E+03  0.20971828694E+03  0.00000000000E+00 0.  1.
         25    2    1    2    0    0  0.68346049474E+02 -0.73669904891E+02 -0.11634109877E+03  0.19819399401E+03  0.12508865110E+03 0.  0.
         24    2    1    2    0    0  0.14827475727E+03  0.56336484081E+02  0.24636074032E+03  0.30408979384E+03  0.81349771151E+02 0.  0.
        -24    2    1    2    0    0 -0.21662080675E+03  0.17333420810E+02  0.52235472573E+03  0.56952715331E+03  0.65434680972E+02 0.  0.
        -11    1    4    4    0    0  0.14416343633E+03  0.25678130002E+02  0.19099518311E+03  0.24066911457E+03  0.00000000000E+00 0.  1.
         12    1    4    4    0    0  0.41113209396E+01  0.30658354079E+02  0.55365557207E+02  0.63420679274E+02  0.00000000000E+00 0. -1.
         11    1    5    5    0    0 -0.68311688027E+02  0.16348423285E+02  0.24671928738E+03  0.25652322396E+03  0.00000000000E+00 0. -1.
        -12    1    5    5    0    0 -0.14830911872E+03  0.98499752564E+00  0.27563543834E+03  0.31300392935E+03  0.00000000000E+00 0.  1.
          5    1    3    3  501    0  0.75455902157E+02 -0.62134542657E+02 -0.18797289120E+02  0.99624821404E+02  0.41800000000E+01 0.  1.
         -5    1    3    3    0  501 -0.71098526830E+01 -0.11535362235E+02 -0.97543809651E+02  0.98569172607E+02  0.41800000000E+01 0.  1.
</event>
<event>
11    1  0.2450992E-009  0.3132949E+03  0.7561462E-02  0.9947164E-01
         22   -1    0    0    0    0  0.00000000000E+00  0.00000000000E+00  0.98961406892E+03  0.98961406892E+03  0.00000000000E+00 0.  1.
         22   -1    0    0    0    0 -0.00000000000E+00 -0.00000000000E+00 -0.66811921373E+03  0.66811921373E+03  0.00000000000E+00 0.  1.
         25    2    1    2    0    0 -0.26138750710E+03  0.12891416881E+03 -0.54403230801E+03  0.62973001343E+03  0.12508575402E+03 0.  0.
         24    2    1    2    0    0  0.41430666409E+01 -0.17962498853E+03  0.10894315893E+03  0.22327137109E+03  0.75492991502E+02 0.  0.
        -24    2    1    2    0    0  0.25724444046E+03  0.50710819724E+02  0.75658400428E+03  0.80473189813E+03  0.80173455374E+02 0.  0.
        -13    1    4    4    0    0 -0.73529213676E+01 -0.29772940900E+02 -0.92933257193E+01  0.32044646439E+02  0.00000000000E+00 0.  1.
         14    1    4    4    0    0  0.11495988009E+02 -0.14985204763E+03  0.11823648465E+03  0.19122672466E+03  0.00000000000E+00 0. -1.
         11    1    5    5    0    0  0.10065305914E+03  0.60133523605E+02  0.31555817193E+03  0.33663635996E+03  0.00000000000E+00 0. -1.
        -12    1    5    5    0    0  0.15659138132E+03 -0.94227038808E+01  0.44102583235E+03  0.46809553817E+03  0.00000000000E+00 0.  1.
          5    1    3    3  501    0 -0.96158623351E+02 -0.13380209309E+02 -0.13722161174E+03  0.16814503850E+03  0.41800000000E+01 0. -1.
         -5    1    3    3    0  501 -0.16522888375E+03  0.14229437812E+03 -0.40681069628E+03  0.46158497492E+03  0.41800000000E+01 0. -1.
</event>
<event>
11    1  0.2450992E-009  0.1161662E+04  0.7561462E-02  0.8538827E-01
         22   -1    0    0    0    0  0.00000000000E+00  0.00000000000E+00  0.20043871466E+03  0.20043871466E+03  0.00000000000E+00 0.  1.
         22   -1    0    0    0    0 -0.00000000000E+00 -0.00000000000E+00 -0.16831321039E+04  0.16831321039E+04  0.00000000000E+00 0.  1.
         25    2    1    2    0    0  0.43540443672E+03  0.21108869612E+02 -0.12925139756E+04  0.13697673836E+04  0.12509076702E+03 0.  0.
         24    2    1    2    0    0 -0.34351260765E+03 -0.30275553033E+02 -0.86987118886E+02  0.36413569890E+03  0.78169863989E+02 0.  0.
        -24    2    1    2    0    0 -0.91891829067E+02  0.91666834207E+01 -0.10319229476E+03  0.14966773613E+03  0.56777153915E+02 0.  0.
        -11    1    4    4    0    0 -0.33903364897E+03 -0.25030861015E+02 -0.71800025345E+02  0.34745590048E+03  0.00000000000E+00 0.  1.
         12    1    4    4    0    0 -0.44789586802E+01 -0.52446920181E+01 -0.15187093541E+02  0.16679798424E+02  0.00000000000E+00 0. -1.
         13    1    5    5    0    0 -0.85624207391E+02  0.23999615672E+02 -0.98907940610E+02  0.13300476367E+03  0.00000000000E+00 0. -1.
        -14    1    5    5    0    0 -0.62676216757E+01 -0.14832932251E+02 -0.42843541452E+01  0.16662972456E+02  0.00000000000E+00 0.  1.
          5    1    3    3  501    0  0.11718669865E+03  0.57043767411E+01 -0.53939423013E+03  0.55202252686E+03  0.41800000000E+01 0. -1.
         -5    1    3    3    0  501  0.31821773807E+03  0.15404492871E+02 -0.75311974551E+03  0.81774485672E+03  0.41800000000E+01 0. -1.
</event>
<event>
11    1  0.2450992E-009  0.1983439E+03  0.7561462E-02  0.1055701E+00
         22   -1    0    0    0    0  0.00000000000E+00  0.00000000000E+00  0.19551605016E+04  0.19551605016E+04  0.00000000000E+00 0. -1.
         22   -1    0    0    0    0 -0.00000000000E+00 -0.00000000000E+00 -0.14142046093E+03  0.14142046093E+03  0.00000000000E+00 0. -1.
         25    2    1    2    0    0 -0.16866848172E+03 -0.59235548038E+01 -0.12223277724E+02  0.21043140751E+03  0.12509126077E+03 0.  0.
         24    2    1    2    0    0  0.12504803093E+03  0.10062604399E+02  0.16175477406E+03  0.21952701671E+03  0.79304716658E+02 0.  0.
        -24    2    1    2    0    0  0.43620450785E+02 -0.41390495956E+01  0.16642085443E+04  0.16666225383E+04  0.78235099249E+02 0.  0.
        -11    1    4    4    0    0  0.45476902158E+02  0.33336448493E+02  0.10459896810E+03  0.11882933794E+03  0.00000000000E+00 0.  1.
         12    1    4    4    0    0  0.79571128776E+02 -0.23273844093E+02  0.57155805964E+02  0.10069767877E+03  0.00000000000E+00 0. -1.
         11    1    5    5    0    0  0.32196017808E+02 -0.19649044624E+02  0.15705818737E+04  0.15710347197E+04  0.00000000000E+00 0. -1.
        -12    1    5    5    0    0  0.11424432977E+02  0.15509995028E+02  0.93626670647E+02  0.95587818633E+02  0.00000000000E+00 0.  1.
          5    1    3    3  501    0 -0.98716869680E+02 -0.34092116716E+02  0.46855648369E+02  0.11454351560E+03  0.41800000000E+01 0.  1.
         -5    1    3    3    0  501 -0.69951612039E+02  0.28168561912E+02 -0.59078926092E+02  0.95887891912E+02  0.41800000000E+01 0.  1.
</event>
<event>
11    1  0.2450992E-009  0.2559445E+03  0.7561462E-02  0.1020779E+00
         22   -1    0    0    0    0  0.00000000000E+00  0.00000000000E+00  0.50118067611E+03  0.50118067611E+03  0.00000000000E+00 0.  1.
         22   -1    0    0    0    0 -0.00000000000E+00 -0.00000000000E+00 -0.39453881411E+03  0.39453881411E+03  0.00000000000E+00 0. -1.
         25    2    1    2    0    0  0.23442573789E+03 -0.12376501679E+03 -0.75492619659E+02  0.30268810198E+03  0.12509094889E+03 0.  0.
        -24    2    1    2    0    0 -0.20603936973E+03  0.16580279048E+02 -0.12649818924E+03  0.25541983330E+03  0.80686875214E+02 0.  0.
         24    2    1    2    0    0 -0.28386368160E+02  0.10718473774E+03  0.30863267090E+03  0.33761155493E+03  0.80206499560E+02 0.  0.
        -11    1    5    5    0    0 -0.40944176890E+02  0.29071218901E+02  0.17744684409E+03  0.18441514002E+03  0.00000000000E+00 0.  1.
         12    1    5    5    0    0  0.12557808729E+02  0.78113518844E+02  0.13118582681E+03  0.15319641491E+03  0.00000000000E+00 0. -1.
         11    1    4    4    0    0 -0.15616460783E+03  0.35312593775E+02 -0.12323644469E+03  0.20204352333E+03  0.00000000000E+00 0. -1.
        -12    1    4    4    0    0 -0.49874761894E+02 -0.18732314727E+02 -0.32617445519E+01  0.53376309975E+02  0.00000000000E+00 0.  1.
          5    1    3    3  501    0  0.86283562426E+02 -0.11455481937E+03 -0.23651490246E+02  0.14541157168E+03  0.41800000000E+01 0. -1.
         -5    1    3    3    0  501  0.14814217546E+03 -0.92101974181E+01 -0.51841129413E+02  0.15727653031E+03  0.41800000000E+01 0. -1.
</event>
<event>
11    1  0.2450992E-009  0.3065343E+03  0.7561462E-02  0.9974631E-01
         22   -1    0    0    0    0  0.00000000000E+00  0.00000000000E+00  0.10686858886E+03  0.10686858886E+03  0.00000000000E+00 0. -1.
         22   -1    0    0    0    0 -0.00000000000E+00 -0.00000000000E+00 -0.19070303172E+04  0.19070303172E+04  0.00000000000E+00 0.  1.
         25    2    1    2    0    0 -0.97454301739E+02 -0.26437212321E+02 -0.93269112442E+03  0.94644385239E+03  0.12508782926E+03 0.  0.
         24    2    1    2    0    0  0.30662267412E+03 -0.12578493092E+03 -0.39060254680E+03  0.51867676585E+03  0.81338334952E+02 0.  0.
        -24    2    1    2    0    0 -0.20916837238E+03  0.15222214324E+03 -0.47686805716E+03  0.54877828785E+03  0.82652745795E+02 0.  0.
        -11    1    4    4    0    0  0.12701926558E+03 -0.73454016053E+02 -0.22624883150E+03  0.26966260411E+03  0.00000000000E+00 0.  1.
         12    1    4    4    0    0  0.17960340855E+03 -0.52330914863E+02 -0.16435371530E+03  0.24901416174E+03  0.00000000000E+00 0. -1.
         11    1    5    5    0    0 -0.12335725001E+03  0.12492094381E+03 -0.36614830544E+03  0.40606259974E+03  0.00000000000E+00 0. -1.
        -12    1    5    5    0    0 -0.85811122378E+02  0.27301199428E+02 -0.11071975172E+03  0.14271568812E+03  0.00000000000E+00 0.  1.
          5    1    3    3  501    0 -0.54250812000E+02 -0.76800115855E+02 -0.56659298505E+03  0.57435745969E+03  0.41800000000E+01 0. -1.
         -5    1    3    3    0  501 -0.43203489740E+02  0.50362903534E+02 -0.36609813938E+03  0.37208639270E+03  0.41800000000E+01 0. -1.
</event>
<event>
11    1  0.2450992E-009  0.1753411E+03  0.7561462E-02  0.1073475E+00
         22   -1    0    0    0    0  0.00000000000E+00  0.00000000000E+00  0.17448067305E+03  0.17448067305E+03  0.00000000000E+00 0. -1.
         22   -1    0    0    0    0 -0.00000000000E+00 -0.00000000000E+00 -0.60130979374E+03  0.60130979374E+03  0.00000000000E+00 0. -1.
         25    2    1    2    0    0  0.92396725936E+01  0.68983373563E+02 -0.33104506220E+03  0.36066973661E+03  0.12509096021E+03 0.  0.
        -24    2    1    2    0    0  0.87884120455E+02  0.19214012533E+02 -0.19636523320E+03  0.23080200120E+03  0.81347784483E+02 0.  0.
         24    2    1    2    0    0 -0.97123793048E+02 -0.88197386096E+02  0.10058117471E+03  0.18431872899E+03  0.81516937258E+02 0.  0.
        -11    1    5    5    0    0 -0.16995079385E+02  0.15596608797E+02  0.19018640942E+02  0.29896415045E+02  0.00000000000E+00 0.  1.
         12    1    5    5    0    0 -0.80128713663E+02 -0.10379399489E+03  0.81562533765E+02  0.15442231394E+03  0.00000000000E+00 0. -1.
         13    1    4    4    0    0  0.36053474271E+02  0.49506413610E+02 -0.10055843689E+03  0.11774012580E+03  0.00000000000E+00 0. -1.
        -14    1    4    4    0    0  0.51830646183E+02 -0.30292401078E+02 -0.95806796315E+02  0.11306187539E+03  0.00000000000E+00 0.  1.
          5    1    3    3  501    0 -0.31590157930E+02  0.74415186907E+02 -0.11464109902E+03  0.14034105638E+03  0.41800000000E+01 0. -1.
         -5    1    3    3    0  501  0.40829830523E+02 -0.54318133434E+01 -0.21640396317E+03  0.22032868023E+03  0.41800000000E+01 0. -1.
</event>
<event>
11    1  0.2450992E-009  0.1673773E+03  0.7561462E-02  0.1080337E+00
         22   -1    0    0    0    0  0.00000000000E+00  0.00000000000E+00  0.15076952010E+03  0.15076952010E+03  0.00000000000E+00 0.  1.
         22   -1    0    0    0    0 -0.00000000000E+00 -0.00000000000E+00 -0.13135737685E+04  0.13135737685E+04  0.00000000000E+00 0.  1.
         25    2    1    2    0    0  0.10372153486E+03 -0.29931751706E+02 -0.57800506505E+03  0.60115920895E+03  0.12509385566E+03 0.  0.
         24    2    1    2    0    0 -0.87344567643E+02  0.78236191838E+02 -0.70176213209E+03  0.71538991563E+03  0.74583283264E+02 0.  0.
        -24    2    1    2    0    0 -0.16376967213E+02 -0.48304440131E+02  0.11696294875E+03  0.14779416400E+03  0.74573852930E+02 0.  0.
        -11    1    4    4    0    0 -0.45655475877E+02  0.59977320380E+02 -0.58878119586E+03  0.59358655480E+03  0.00000000000E+00 0.  1.
         12    1    4    4    0    0 -0.41689091766E+02  0.18258871457E+02 -0.11298093622E+03  0.12180336083E+03  0.00000000000E+00 0. -1.
         11    1    5    5    0    0  0.26954128905E+02 -0.17658292555E+02  0.22034237802E+02  0.39036495699E+02  0.00000000000E+00 0. -1.
        -12    1    5    5    0    0 -0.43331096118E+02 -0.30646147576E+02  0.94928710951E+02  0.10875766830E+03  0.00000000000E+00 0.  1.
          5    1    3    3  501    0  0.21390601204E+02 -0.39053989750E+02 -0.42301262714E+03  0.42537034106E+03  0.41800000000E+01 0.  1.
         -5    1    3    3    0  501  0.82330933653E+02  0.91222380441E+01 -0.15499243792E+03  0.17578886789E+03  0.41800000000E+01 0.  1.
</event>
<event>
11    1  0.2450992E-009  0.3803544E+03  0.7561462E-02  0.9709570E-01
         22   -1    0    0    0    0  0.00000000000E+00  0.00000000000E+00  0.37824357350E+04  0.37824357350E+04  0.00000000000E+00 0.  1.
         22   -1    0    0    0    0 -0.00000000000E+00 -0.00000000000E+00 -0.58003158406E+02  0.58003158406E+02  0.00000000000E+00 0.  1.
         25    2    1    2    0    0 -0.19025263420E+03 -0.35139759412E+03  0.14088770524E+04  0.14697820705E+04  0.12509377342E+03 0.  0.
         24    2    1    2    0    0  0.62687646789E+02  0.32406219607E+03  0.13038785590E+04  0.13475261567E+04  0.82349247005E+02 0.  0.
        -24    2    1    2    0    0  0.12756498741E+03  0.27335398048E+02  0.10116769652E+04  0.10231306661E+04  0.79284475507E+02 0.  0.
        -11    1    4    4    0    0  0.74319646011E+02  0.20178722057E+03  0.90309336530E+03  0.92834213447E+03  0.00000000000E+00 0.  1.
         12    1    4    4    0    0 -0.11631999222E+02  0.12227497550E+03  0.40078519370E+03  0.41918402227E+03  0.00000000000E+00 0. -1.
         11    1    5    5    0    0  0.98857309011E+02  0.44963902899E+02  0.89869291830E+03  0.90523117573E+03  0.00000000000E+00 0. -1.
        -12    1    5    5    0    0  0.28707678403E+02 -0.17628504851E+02  0.11298404689E+03  0.11789949039E+03  0.00000000000E+00 0.  1.
          5    1    3    3  501    0 -0.26857594114E+02 -0.30964704499E+02  0.53745875366E+02  0.67721745438E+02  0.41800000000E+01 0. -1.
         -5    1    3    3    0  501 -0.16339504009E+03 -0.32043288962E+03  0.13551311770E+04  0.14020603251E+04  0.41800000000E+01 0. -1.
</event>
<event>
11    1  0.2450992E-009  0.1714064E+03  0.7561462E-02  0.1076814E+00
         22   -1    0    0    0    0  0.00000000000E+00  0.00000000000E+00  0.69588327792E+03  0.69588327792E+03  0.00000000000E+00 0.  1.
         22   -1    0    0    0    0 -0.00000000000E+00 -0.00000000000E+00 -0.22786797099E+03  0.22786797099E+03  0.00000000000E+00 0. -1.
         25    2    1    2    0    0  0.93615710518E+02  0.80025258565E+02  0.11110602507E+02  0.17589521644E+03  0.12509092059E+03 0.  0.
        -24    2    1    2    0    0 -0.69865103246E+02 -0.92242141918E+02 -0.10734239757E+03  0.17727200188E+03  0.80704565793E+02 0.  0.
         24    2    1    2    0    0 -0.23750607272E+02  0.12216883353E+02  0.56424710199E+03  0.57058403059E+03  0.80486025327E+02 0.  0.
        -11    1    5    5    0    0 -0.36454782993E+02  0.39390753555E+02  0.31518360781E+03  0.31972064260E+03  0.00000000000E+00 0.  1.
         12    1    5    5    0    0  0.12704175721E+02 -0.27173870202E+02  0.24906349418E+03  0.25086338799E+03  0.00000000000E+00 0. -1.
         11    1    4    4    0    0 -0.68864536388E+02 -0.36257929271E+02 -0.89276142892E+02  0.11843644497E+03  0.00000000000E+00 0. -1.
        -12    1    4    4    0    0 -0.10005668576E+01 -0.55984212647E+02 -0.18066254674E+02  0.58835556916E+02  0.00000000000E+00 0.  1.
          5    1    3    3  501    0  0.80389067252E+02 -0.10883553198E+01 -0.27398158483E+02  0.85039509284E+02  0.41800000000E+01 0. -1.
         -5    1    3    3    0  501  0.13226643266E+02  0.81113613884E+02  0.38508760991E+02  0.90855707154E+02  0.41800000000E+01 0. -1.
</event>
<event>
11    1  0.2450992E-009  0.3131992E+03  0.7561462E-02  0.9947547E-01
         22   -1    0    0    0    0  0.00000000000E+00  0.00000000000E+00  0.87836231171E+02  0.87836231171E+02  0.00000000000E+00 0. -1.
         22   -1    0    0    0    0 -0.00000000000E+00 -0.00000000000E+00 -0.16996757586E+04  0.16996757586E+04  0.00000000000E+00 0. -1.
         25    2    1    2    0    0  0.16992919105E+03 -0.22225848048E+03 -0.88465728768E+03  0.93623675017E+03  0.12508386630E+03 0.  0.
        -24    2    1    2    0    0 -0.25114289350E+03  0.17939704660E+03 -0.51053416062E+03  0.60215831155E+03  0.81813505762E+02 0.  0.
         24    2    1    2    0    0  0.81213702449E+02  0.42861433879E+02 -0.21664807912E+03  0.24911692804E+03  0.81792943902E+02 0.  0.
        -11    1    5    5    0    0  0.46818504679E+01  0.11330186681E+02 -0.12509244221E+03  0.12569173383E+03  0.00000000000E+00 0.  1.
         12    1    5    5    0    0  0.76531851981E+02  0.31531247198E+02 -0.91555636901E+02  0.12342519421E+03  0.00000000000E+00 0. -1.
         13    1    4    4    0    0 -0.20139218252E+03  0.12206429311E+03 -0.43731311768E+03  0.49669031169E+03  0.00000000000E+00 0. -1.
        -14    1    4    4    0    0 -0.49750710971E+02  0.57332753485E+02 -0.73221042945E+02  0.10546799986E+03  0.00000000000E+00 0.  1.
          5    1    3    3  501    0  0.93412855199E+02 -0.98552580282E+02 -0.24409422382E+03  0.27935288632E+03  0.41800000000E+01 0.  1.
         -5    1    3    3    0  501  0.76516335848E+02 -0.12370590020E+03 -0.64056306386E+03  0.65688386385E+03  0.41800000000E+01 0.  1.
</event>
<event>
11    1  0.2450992E-009  0.1619936E+03  0.7561462E-02  0.1085217E+00
         22   -1    0    0    0    0  0.00000000000E+00  0.00000000000E+00  0.55474353453E+03  0.55474353453E+03  0.00000000000E+00 0.  1.
         22   -1    0    0    0    0 -0.00000000000E+00 -0.00000000000E+00 -0.17881973023E+03  0.17881973023E+03  0.00000000000E+00 0.  1.
         25    2    1    2    0    0 -0.19338002693E+02  0.33008875634E+02  0.82175413565E+02  0.15447506533E+03  0.12508478322E+03 0.  0.
        -24    2    1    2    0    0  0.52400784382E+02 -0.11505639509E+03 -0.89571220166E+02  0.17528245119E+03  0.81958025590E+02 0.  0.
         24    2    1    2    0    0 -0.33062781690E+02  0.82047519456E+02  0.38331961091E+03  0.40380574824E+03  0.91105516975E+02 0.  0.
        -13    1    5    5    0    0 -0.39227390086E+02  0.56819863831E+02  0.36631188906E+03  0.37276223672E+03  0.00000000000E+00 0.  1.
         14    1    5    5    0    0  0.61646083964E+01  0.25227655625E+02  0.17007721849E+02  0.31043511520E+02  0.00000000000E+00 0. -1.
         13    1    4    4    0    0  0.90391923036E+01  0.12686520778E+02 -0.66808110638E+01  0.16949573547E+02  0.00000000000E+00 0. -1.
        -14    1    4    4    0    0  0.43361592079E+02 -0.12774291587E+03 -0.82890409102E+02  0.15833287764E+03  0.00000000000E+00 0.  1.
          5    1    3    3  501    0 -0.12935553204E+02  0.81008421616E+02  0.49387318365E+02  0.95845044341E+02  0.41800000000E+01 0. -1.
         -5    1    3    3    0  501 -0.64024494883E+01 -0.47999545982E+02  0.32788095200E+02  0.58630020986E+02  0.41800000000E+01 0. -1.
</event>
<event>
11    1  0.2450992E-009  0.1165702E+04  0.7561462E-02  0.8535634E-01
         22   -1    0    0    0    0  0.00000000000E+00  0.00000000000E+00  0.32270392233E+04  0.32270392233E+04  0.00000000000E+00 0. -1.
         22   -1    0    0    0    0 -0.00000000000E+00 -0.00000000000E+00 -0.56021642645E+03  0.56021642645E+03  0.00000000000E+00 0. -1.
         25    2    1    2    0    0  0.33379312339E+03 -0.11366509245E+04  0.12139616273E+04  0.17008069857E+04  0.12509355117E+03 0.  0.
         24    2    1    2    0    0 -0.45782670731E+03  0.10483739086E+04  0.76792164510E+03  0.13801849127E+04  0.80706840154E+02 0.  0.
        -24    2    1    2    0    0  0.12403358391E+03  0.88277015952E+02  0.68493952440E+03  0.70626375133E+03  0.80555402501E+02 0.  0.
        -11    1    4    4    0    0 -0.18272585132E+03  0.47404329915E+03  0.38105840261E+03  0.63506794314E+03  0.00000000000E+00 0.  1.
         12    1    4    4    0    0 -0.27510085599E+03  0.57433060945E+03  0.38686324250E+03  0.74511696955E+03  0.00000000000E+00 0. -1.
         11    1    5    5    0    0  0.12739980346E+03  0.81344200730E+02  0.68106684287E+03  0.69763861230E+03  0.00000000000E+00 0. -1.
        -12    1    5    5    0    0 -0.33662195522E+01  0.69328152218E+01  0.38726815239E+01  0.86251390226E+01  0.00000000000E+00 0.  1.
          5    1    3    3  501    0  0.26842604870E+03 -0.91855897133E+03  0.10468677055E+04  0.14183626449E+04  0.41800000000E+01 0. -1.
         -5    1    3    3    0  501  0.65367074690E+02 -0.21809195321E+03  0.16709392187E+03  0.28244434078E+03  0.41800000000E+01 0. -1.
</event>
<event>
11    1  0.2450992E-009  0.1549597E+03  0.7561462E-02  0.1091916E+00
         22   -1    0    0    0    0  0.00000000000E+00  0.00000000000E+00  0.62942583288E+03  0.62942583288E+03  0.00000000000E+00 0.  1.
         22   -1    0    0    0    0 -0.00000000000E+00 -0.00000000000E+00 -0.13590987554E+04  0.13590987554E+04  0.00000000000E+00 0.  1.
         25    2    1    2    0    0  0.34539102886E+02 -0.55976641558E+02 -0.66645277788E+03  0.68127249890E+03  0.12508628457E+03 0.  0.
         24    2    1    2    0    0  0.55797425602E+02  0.73825643006E+02 -0.67364245675E+03  0.68463635518E+03  0.79807274215E+02 0.  0.
        -24    2    1    2    0    0 -0.90336528488E+02 -0.17849001448E+02  0.61042231214E+03  0.62261573418E+03  0.80967141851E+02 0.  0.
        -13    1    4    4    0    0  0.87028949784E+01 -0.16022765797E+02 -0.16288900913E+03  0.16390637175E+03  0.00000000000E+00 0.  1.
         14    1    4    4    0    0  0.47094530624E+02  0.89848408803E+02 -0.51075344762E+03  0.52072998342E+03  0.00000000000E+00 0. -1.
         11    1    5    5    0    0 -0.18740651793E+02 -0.22411370366E+01  0.19394039841E+02  0.27062215471E+02  0.00000000000E+00 0. -1.
        -12    1    5    5    0    0 -0.71595876695E+02 -0.15607864411E+02  0.59102827230E+03  0.59555351871E+03  0.00000000000E+00 0.  1.
          5    1    3    3  501    0  0.40759187402E+01 -0.68740033368E+02 -0.62158758553E+03  0.62540419265E+03  0.41800000000E+01 0. -1.
         -5    1    3    3    0  501  0.30463184145E+02  0.12763391809E+02 -0.44865192359E+02  0.55868306258E+02  0.41800000000E+01 0. -1.
</event>
<event>
11    1  0.2450992E-009  0.1923080E+03  0.7561462E-02  0.1060100E+00
         22   -1    0    0    0    0  0.00000000000E+00  0.00000000000E+00  0.61305586789E+03  0.61305586789E+03  0.00000000000E+00 0.  1.
         22   -1    0    0    0    0 -0.00000000000E+00 -0.00000000000E+00 -0.26877421558E+03  0.26877421558E+03  0.00000000000E+00 0. -1.
         25    2    1    2    0    0  0.16328637217E+03  0.12992906347E+03 -0.14080051495E+03  0.28109150689E+03  0.12507457522E+03 0.  0.
         24    2    1    2    0    0 -0.34116506924E+02 -0.69302768362E+02  0.24029979116E+02  0.11477895477E+03  0.81424559033E+02 0.  0.
        -24    2    1    2    0    0 -0.12916986525E+03 -0.60626295108E+02  0.46105218814E+03  0.48595962181E+03  0.56808732561E+02 0.  0.
        -13    1    4    4    0    0 -0.17832140079E+02  0.16529991666E+02  0.10020434435E+02  0.26298953412E+02  0.00000000000E+00 0.  1.
         14    1    4    4    0    0 -0.16284366846E+02 -0.85832760028E+02  0.14009544680E+02  0.88480001355E+02  0.00000000000E+00 0. -1.
         11    1    5    5    0    0 -0.10524006500E+02  0.21158205721E+01  0.78420692086E+01  0.13293963253E+02  0.00000000000E+00 0. -1.
        -12    1    5    5    0    0 -0.11864585875E+03 -0.62742115680E+02  0.45321011893E+03  0.47266565856E+03  0.00000000000E+00 0.  1.
          5    1    3    3  501    0  0.14445088140E+03  0.38243257973E+02 -0.82514637178E+02  0.17074759637E+03  0.41800000000E+01 0. -1.
         -5    1    3    3    0  501  0.18835490777E+02  0.91685805497E+02 -0.58285877769E+02  0.11034391052E+03  0.41800000000E+01 0. -1.
</event>
<event>
11    1  0.2450992E-009  0.1787198E+03  0.7561462E-02  0.1070683E+00
         22   -1    0    0    0    0  0.00000000000E+00  0.00000000000E+00  0.11512535381E+04  0.11512535381E+04  0.00000000000E+00 0. -1.
         22   -1    0    0    0    0 -0.00000000000E+00 -0.00000000000E+00 -0.11482459406E+03  0.11482459406E+03  0.00000000000E+00 0.  1.
         25    2    1    2    0    0  0.10873996939E+02  0.12608265665E+03  0.46172454254E+02  0.18383200493E+03  0.12508888995E+03 0.  0.
         24    2    1    2    0    0  0.84320376701E+02 -0.12260228377E+03  0.12998270817E+03  0.21310761626E+03  0.79863043833E+02 0.  0.
        -24    2    1    2    0    0 -0.95194373641E+02 -0.34803728838E+01  0.86027378158E+03  0.86913851094E+03  0.79099242359E+02 0.  0.
        -11    1    4    4    0    0  0.38847019468E+02 -0.71475820672E+02  0.11848666133E+03  0.14372533797E+03  0.00000000000E+00 0.  1.
         12    1    4    4    0    0  0.45473357234E+02 -0.51126463097E+02  0.11496046843E+02  0.69382278284E+02  0.00000000000E+00 0. -1.
         13    1    5    5    0    0 -0.50076520966E+02  0.31743562309E+02  0.58371474329E+03  0.58671817190E+03  0.00000000000E+00 0. -1.
        -14    1    5    5    0    0 -0.45117852674E+02 -0.35223935192E+02  0.27655903829E+03  0.28242033904E+03  0.00000000000E+00 0.  1.
          5    1    3    3  501    0  0.53454789839E+02  0.66512297770E+02 -0.16912057869E+02  0.87090702217E+02  0.41800000000E+01 0. -1.
         -5    1    3    3    0  501 -0.42580792900E+02  0.59570358883E+02  0.63084512123E+02  0.96741302716E+02  0.41800000000E+01 0. -1.
</event>
<event>
11    1  0.2450992E-009  0.4362582E+03  0.7561462E-02  0.9548446E-01
         22   -1    0    0    0    0  0.00000000000E+00  0.00000000000E+00  0.13040037668E+04  0.13040037668E+04  0.00000000000E+00 0. -1.
         22   -1    0    0    0    0 -0.00000000000E+00 -0.00000000000E+00 -0.26269945912E+03  0.26269945912E+03  0.00000000000E+00 0. -1.
         25    2    1    2    0    0  0.41007068483E+03 -0.40262580319E+02  0.55371294020E+02  0.43415368813E+03  0.12507758704E+03 0.  0.
         24    2    1    2    0    0 -0.42935643622E+03  0.90488316292E+02  0.71859486313E+03  0.84596216357E+03  0.82087271665E+02 0.  0.
        -24    2    1    2    0    0  0.19285751387E+02 -0.50225735972E+02  0.26733815054E+03  0.28658737423E+03  0.88136664170E+02 0.  0.
        -13    1    4    4    0    0 -0.22836223191E+03  0.32560710106E+02  0.30421770231E+03  0.38178255487E+03  0.00000000000E+00 0.  1.
         14    1    4    4    0    0 -0.20099420431E+03  0.57927606186E+02  0.41437716081E+03  0.46417960869E+03  0.00000000000E+00 0. -1.
         11    1    5    5    0    0  0.14698243634E+01 -0.40653140382E+02  0.35864712965E+02  0.54232055490E+02  0.00000000000E+00 0. -1.
        -12    1    5    5    0    0  0.17815927023E+02 -0.95725955901E+01  0.23147343758E+03  0.23235531874E+03  0.00000000000E+00 0.  1.
          5    1    3    3  501    0  0.41026962277E+03 -0.22853757065E+02  0.44801704986E+02  0.41336197545E+03  0.41800000000E+01 0. -1.
         -5    1    3    3    0  501 -0.19893794408E+00 -0.17408823255E+02  0.10569589034E+02  0.20791712670E+02  0.41800000000E+01 0.  1.
</event>
<event>
11    1  0.2450992E-009  0.1481901E+03  0.7561462E-02  0.1098743E+00
         22   -1    0    0    0    0  0.00000000000E+00  0.00000000000E+00  0.39844368144E+03  0.39844368144E+03  0.00000000000E+00 0. -1.
         22   -1    0    0    0    0 -0.00000000000E+00 -0.00000000000E+00 -0.79465917430E+02  0.79465917430E+02  0.00000000000E+00 0.  1.
         25    2    1    2    0    0 -0.37514723787E+02  0.65023245022E+02  0.12382540370E+03  0.19135461497E+03  0.12509388944E+03 0.  0.
        -24    2    1    2    0    0  0.65672201216E+02 -0.53030084687E+02  0.70201350507E+02  0.13605613196E+03  0.80361766636E+02 0.  0.
         24    2    1    2    0    0 -0.28157477429E+02 -0.11993160334E+02  0.12495100980E+03  0.15049885194E+03  0.78105506550E+02 0.  0.
        -11    1    5    5    0    0  0.73465592205E+01 -0.26588745408E+02  0.10224151643E+03  0.10589740789E+03  0.00000000000E+00 0.  1.
         12    1    5    5    0    0 -0.35504036650E+02  0.14595585073E+02  0.22709493368E+02  0.44601444047E+02  0.00000000000E+00 0. -1.
         13    1    4    4    0    0 -0.15165289363E+02 -0.24764590771E+02  0.28940144653E+02  0.40997596638E+02  0.00000000000E+00 0. -1.
        -14    1    4    4    0    0  0.80837490579E+02 -0.28265493916E+02  0.41261205855E+02  0.95058535324E+02  0.00000000000E+00 0.  1.
          5    1    3    3  501    0 -0.76769979210E+02  0.51103146662E+02  0.11684995354E+03  0.14891791480E+03  0.41800000000E+01 0.  1.
         -5    1    3    3    0  501  0.39255255424E+02  0.13920098359E+02  0.69754501656E+01  0.42436700175E+02  0.41800000000E+01 0.  1.
</event>
<event>
11    1  0.2450992E-009  0.1544906E+03  0.7561462E-02  0.1092377E+00
         22   -1    0    0    0    0  0.00000000000E+00  0.00000000000E+00  0.40626836106E+03  0.40626836106E+03  0.00000000000E+00 0. -1.
         22   -1    0    0    0    0 -0.00000000000E+00 -0.00000000000E+00 -0.24442192155E+03  0.24442192155E+03  0.00000000000E+00 0.  1.
         25    2    1    2    0    0  0.59702570250E+02 -0.11450453560E+03 -0.48043298226E+02  0.18609215651E+03  0.12508575715E+03 0.  0.
         24    2    1    2    0    0 -0.71629517560E+01  0.44912577500E+02 -0.96454372692E+02  0.13623021671E+03  0.84774869144E+02 0.  0.
        -24    2    1    2    0    0 -0.52539618494E+02  0.69591958098E+02  0.30634411043E+03  0.32836790939E+03  0.79845587109E+02 0.  0.
        -11    1    4    4    0    0  0.18633251296E+02  0.49519962768E+01 -0.85198760002E+02  0.87353013839E+02  0.00000000000E+00 0.  1.
         12    1    4    4    0    0 -0.25796203052E+02  0.39960581224E+02 -0.11255612690E+02  0.48877202873E+02  0.00000000000E+00 0. -1.
         13    1    5    5    0    0 -0.16087850573E+02  0.74233929406E+02  0.24840598864E+03  0.25975956268E+03  0.00000000000E+00 0. -1.
        -14    1    5    5    0    0 -0.36451767922E+02 -0.46419713080E+01  0.57938121786E+02  0.68608346710E+02  0.00000000000E+00 0.  1.
          5    1    3    3  501    0  0.81120309423E+02 -0.21589973135E+02 -0.17205476798E+02  0.85791213843E+02  0.41800000000E+01 0.  1.
         -5    1    3    3    0  501 -0.21417739172E+02 -0.92914562463E+02 -0.30837821428E+02  0.10030094266E+03  0.41800000000E+01 0.  1.
</event>
<event>
11    1  0.2450992E-009  0.2627921E+03  0.7561462E-02  0.1017297E+00
         22   -1    0    0    0    0  0.00000000000E+00  0.00000000000E+00  0.27840444947E+03  0.27840444947E+03  0.00000000000E+00 0.  1.
         22   -1    0    0    0    0 -0.00000000000E+00 -0.00000000000E+00 -0.96265146558E+03  0.96265146558E+03  0.00000000000E+00 0. -1.
         25    2    1    2    0    0 -0.17235433780E+03  0.17323370955E+03 -0.68699876728E+03  0.73981636389E+03  0.12508001505E+03 0.  0.
         24    2    1    2    0    0 -0.38452700058E+02 -0.24751773965E+03  0.10083038390E+02  0.26250104084E+03  0.77855553403E+02 0.  0.
        -24    2    1    2    0    0  0.21080703786E+03  0.74284030098E+02 -0.73312872232E+01  0.23873851032E+03  0.83573944498E+02 0.  0.
        -11    1    4    4    0    0 -0.10771949020E+02 -0.13870634071E+03  0.42792369711E+02  0.14555641774E+03  0.00000000000E+00 0.  1.
         12    1    4    4    0    0 -0.27680751037E+02 -0.10881139894E+03 -0.32709331321E+02  0.11694462310E+03  0.00000000000E+00 0. -1.
         13    1    5    5    0    0  0.18658187079E+03  0.88254353208E+02 -0.21265949869E+02  0.20749425532E+03  0.00000000000E+00 0. -1.
        -14    1    5    5    0    0  0.24225167070E+02 -0.13970323111E+02  0.13934662646E+02  0.31244254999E+02  0.00000000000E+00 0.  1.
          5    1    3    3  501    0 -0.12362564676E+03  0.40985330166E+02 -0.27393486599E+03  0.30334943717E+03  0.41800000000E+01 0. -1.
         -5    1    3    3    0  501 -0.48728691039E+02  0.13224837938E+03 -0.41306390129E+03  0.43646692673E+03  0.41800000000E+01 0. -1.
</event>
<event>
11    1  0.2450992E-009  0.2156975E+03  0.7561462E-02  0.1043947E+00
         22   -1    0    0    0    0  0.00000000000E+00  0.00000000000E+00  0.30408422926E+03  0.30408422926E+03  0.00000000000E+00 0.  1.
         22   -1    0    0    0    0 -0.00000000000E+00 -0.00000000000E+00 -0.27008528316E+03  0.27008528316E+03  0.00000000000E+00 0. -1.
         25    2    1    2    0    0  0.89462612258E+02  0.77440946782E+02 -0.37718186749E+02  0.17626824493E+03  0.12508866187E+03 0.  0.
        -24    2    1    2    0    0 -0.11907120186E+03 -0.19597002884E+03  0.64104592620E+02  0.25104631195E+03  0.79577940602E+02 0.  0.
         24    2    1    2    0    0  0.29608589599E+02  0.11852908206E+03  0.76125402345E+01  0.14685495554E+03  0.81133318224E+02 0.  0.
        -13    1    5    5    0    0 -0.10639888620E+02  0.91548995877E+02  0.24797735844E+02  0.95442933625E+02  0.00000000000E+00 0.  1.
         14    1    5    5    0    0  0.40248478219E+02  0.26980086185E+02 -0.17185195610E+02  0.51412021918E+02  0.00000000000E+00 0. -1.
         13    1    4    4    0    0 -0.94913629839E+02 -0.19144162752E+03  0.41535849677E+02  0.21767802068E+03  0.00000000000E+00 0. -1.
        -14    1    4    4    0    0 -0.24157572017E+02 -0.45284013233E+01  0.22568742943E+02  0.33368291271E+02  0.00000000000E+00 0.  1.
          5    1    3    3  501    0  0.27953586106E+02 -0.31896381221E+02  0.66569917491E+01  0.43134325662E+02  0.41800000000E+01 0.  1.
         -5    1    3    3    0  501  0.61509026152E+02  0.10933732800E+03 -0.44375178498E+02  0.13313391927E+03  0.41800000000E+01 0.  1.
</event>
<event>
11    1  0.2450992E-009  0.3981542E+03  0.7561462E-02  0.9655220E-01
         22   -1    0    0    0    0  0.00000000000E+00  0.00000000000E+00  0.12013466058E+04  0.12013466058E+04  0.00000000000E+00 0. -1.
         22   -1    0    0    0    0 -0.00000000000E+00 -0.00000000000E+00 -0.21276367927E+03  0.21276367927E+03  0.00000000000E+00 0. -1.
         25    2    1    2    0    0 -0.20605361353E+03  0.28387484928E+03  0.16384636781E+03  0.40686227620E+03  0.12509299680E+03 0.  0.
         24    2    1    2    0    0  0.28346988085E+03 -0.34313232777E+03  0.62388762336E+03  0.77074436882E+03  0.81952106574E+02 0.  0.
        -24    2    1    2    0    0 -0.77416267327E+02  0.59257478492E+02  0.20084893536E+03  0.23650364005E+03  0.78031722499E+02 0.  0.
        -11    1    4    4    0    0  0.12412328999E+02 -0.38059222071E+01  0.34940129493E+01  0.13444667400E+02  0.00000000000E+00 0.  1.
         12    1    4    4    0    0  0.27105755186E+03 -0.33932640557E+03  0.62039361041E+03  0.75729970142E+03  0.00000000000E+00 0. -1.
         13    1    5    5    0    0 -0.87893226484E+02  0.67471027874E+02  0.18647969539E+03  0.21691527299E+03  0.00000000000E+00 0. -1.
        -14    1    5    5    0    0  0.10476959157E+02 -0.82135493825E+01  0.14369239979E+02  0.19588367063E+02  0.00000000000E+00 0.  1.
          5    1    3    3  501    0 -0.13046122986E+03  0.20627025056E+03  0.17126983309E+03  0.29819184578E+03  0.41800000000E+01 0.  1.
         -5    1    3    3    0  501 -0.75592383663E+02  0.77604598719E+02 -0.74234652815E+01  0.10867043042E+03  0.41800000000E+01 0.  1.
</event>
<event>
11    1  0.2450992E-009  0.3990501E+04  0.7561462E-02  0.7538377E-01
         22   -1    0    0    0    0  0.00000000000E+00  0.00000000000E+00  0.25981336194E+04  0.25981336194E+04  0.00000000000E+00 0. -1.
         22   -1    0    0    0    0 -0.00000000000E+00 -0.00000000000E+00 -0.15322633771E+04  0.15322633771E+04  0.00000000000E+00 0. -1.
         25    2    1    2    0    0 -0.46363667731E+03  0.15670561086E+04 -0.54208991901E+03  0.17263058238E+04  0.12508597373E+03 0.  0.
         24    2    1    2    0    0  0.23901957429E+02 -0.11188241905E+04  0.12429274665E+04  0.16733604722E+04  0.54108318654E+02 0.  0.
        -24    2    1    2    0    0  0.43973471988E+03 -0.44823191811E+03  0.36503269479E+03  0.73073070053E+03  0.80249686327E+02 0.  0.
        -11    1    4    4    0    0  0.37801487779E+02 -0.92408370980E+03  0.10406220593E+04  0.13922118824E+04  0.00000000000E+00 0.  1.
         12    1    4    4    0    0 -0.13899530350E+02 -0.19474048068E+03  0.20230540715E+03  0.28114858976E+03  0.00000000000E+00 0. -1.
         11    1    5    5    0    0  0.44362723636E+02 -0.16578693240E+02  0.21483631711E+02  0.52004333949E+02  0.00000000000E+00 0. -1.
        -12    1    5    5    0    0  0.39537199624E+03 -0.43165322487E+03  0.34354906308E+03  0.67872636658E+03  0.00000000000E+00 0.  1.
          5    1    3    3  501    0 -0.41600486078E+01  0.91936615934E+01  0.55501460210E+01  0.12251772883E+02  0.41800000000E+01 0.  1.
         -5    1    3    3    0  501 -0.45947662870E+03  0.15578624470E+04 -0.54764006503E+03  0.17140540509E+04  0.41800000000E+01 0.  1.
</event>
<event>
11    1  0.2450992E-009  0.4057200E+03  0.7561462E-02  0.9633030E-01
         22   -1    0    0    0    0  0.00000000000E+00  0.00000000000E+00  0.20360546238E+04  0.20360546238E+04  0.00000000000E+00 0.  1.
         22   -1    0    0    0    0 -0.00000000000E+00 -0.00000000000E+00 -0.26774301791E+03  0.26774301791E+03  0.00000000000E+00 0.  1.
         25    2    1    2    0    0  0.68161939474E+02 -0.38256137981E+03 -0.59843499651E+02  0.41258367538E+03  0.12507911664E+03 0.  0.
        -24    2    1    2    0    0 -0.22431867233E+01  0.36978305159E+03  0.13805943419E+04  0.14314565795E+04  0.79263264666E+02 0.  0.
         24    2    1    2    0    0 -0.65918752750E+02  0.12778328226E+02  0.44756076371E+03  0.45975738686E+03  0.80979317846E+02 0.  0.
        -11    1    5    5    0    0 -0.70467509395E+02 -0.19087402719E+02  0.30996152397E+03  0.31844331546E+03  0.00000000000E+00 0.  1.
         12    1    5    5    0    0  0.45487566452E+01  0.31865730945E+02  0.13759923975E+03  0.14131407140E+03  0.00000000000E+00 0. -1.
         11    1    4    4    0    0 -0.16483802837E+02  0.18851215698E+02  0.13448726927E+03  0.13679879270E+03  0.00000000000E+00 0. -1.
        -12    1    4    4    0    0  0.14240616113E+02  0.35093183589E+03  0.12461070726E+04  0.12946577868E+04  0.00000000000E+00 0.  1.
          5    1    3    3  501    0  0.83078501290E+02 -0.27927372239E+03 -0.88027982225E+02  0.30440474282E+03  0.41800000000E+01 0.  1.
         -5    1    3    3    0  501 -0.14916561816E+02 -0.10328765742E+03  0.28184482574E+02  0.10817893256E+03  0.41800000000E+01 0.  1.
</event>
<event>
11    1  0.2450992E-009  0.1671453E+03  0.7561462E-02  0.1080543E+00
         22   -1    0    0    0    0  0.00000000000E+00  0.00000000000E+00  0.67376906232E+03  0.67376906232E+03  0.00000000000E+00 0. -1.
         22   -1    0    0    0    0 -0.00000000000E+00 -0.00000000000E+00 -0.46271237982E+03  0.46271237982E+03  0.00000000000E+00 0.  1.
         25    2    1    2    0    0  0.61416583159E+02 -0.98344835333E+02 -0.30648388540E+03  0.35074462164E+03  0.12508282966E+03 0.  0.
         24    2    1    2    0    0 -0.54132306097E+02  0.88110952498E+02 -0.97977002687E+02  0.16298729391E+03  0.79192918912E+02 0.  0.
        -24    2    1    2    0    0 -0.72842770619E+01  0.10233882835E+02  0.61551757058E+03  0.62274952659E+03  0.93793923728E+02 0.  0.
        -13    1    4    4    0    0 -0.38529769321E+02  0.86015023654E+02 -0.39094750024E+02  0.10203688989E+03  0.00000000000E+00 0.  1.
         14    1    4    4    0    0 -0.15602536776E+02  0.20959288441E+01 -0.58882252663E+02  0.60950404020E+02  0.00000000000E+00 0. -1.
         11    1    5    5    0    0  0.31368891469E+02 -0.19429184933E+02  0.40452311498E+03  0.40620247554E+03  0.00000000000E+00 0. -1.
        -12    1    5    5    0    0 -0.38653168531E+02  0.29663067768E+02  0.21099445560E+03  0.21654705105E+03  0.00000000000E+00 0.  1.
          5    1    3    3  501    0  0.99071765786E+02 -0.58214899025E+02 -0.19586207048E+03  0.22712025955E+03  0.41800000000E+01 0.  1.
         -5    1    3    3    0  501 -0.37655182626E+02 -0.40129936309E+02 -0.11062181492E+03  0.12362436209E+03  0.41800000000E+01 0.  1.
</event>
<event>
11    1  0.2450992E-009  0.2188458E+03  0.7561462E-02  0.1041943E+00
         22   -1    0    0    0    0  0.00000000000E+00  0.00000000000E+00  0.41548030281E+02  0.41548030281E+02  0.00000000000E+00 0.  1.
         22   -1    0    0    0    0 -0.00000000000E+00 -0.00000000000E+00 -0.35001881649E+04  0.35001881649E+04  0.00000000000E+00 0.  1.
         25    2    1    2    0    0 -0.14636822045E+03 -0.99906133644E+02 -0.24084781993E+04  0.24182266826E+04  0.12509260723E+03 0.  0.
         24    2    1    2    0    0  0.10747766662E+03  0.16251040440E+03 -0.95818613826E+03  0.98058543639E+03  0.73932686533E+02 0.  0.
        -24    2    1    2    0    0  0.38890553838E+02 -0.62604270760E+02 -0.91975797008E+02  0.14292407615E+03  0.80845373486E+02 0.  0.
        -13    1    4    4    0    0  0.61953425296E+02  0.14368116694E+03 -0.78935326933E+03  0.80471180459E+03  0.00000000000E+00 0.  1.
         14    1    4    4    0    0  0.45524241320E+02  0.18829237467E+02 -0.16883286893E+03  0.17587363180E+03  0.00000000000E+00 0. -1.
         13    1    5    5    0    0 -0.23370302811E+02 -0.32600012258E+02 -0.37680431927E+02  0.55034051304E+02  0.00000000000E+00 0. -1.
        -14    1    5    5    0    0  0.62260856649E+02 -0.30004258502E+02 -0.54295365081E+02  0.87890024851E+02  0.00000000000E+00 0.  1.
          5    1    3    3  501    0 -0.48742818057E+02 -0.59145086706E+02 -0.17146239187E+04  0.17163410671E+04  0.41800000000E+01 0.  1.
         -5    1    3    3    0  501 -0.97625402397E+02 -0.40761046938E+02 -0.69385428060E+03  0.70188561550E+03  0.41800000000E+01 0.  1.
</event>
<event>
11    1  0.2450992E-009  0.1686686E+03  0.7561462E-02  0.1079196E+00
         22   -1    0    0    0    0  0.00000000000E+00  0.00000000000E+00  0.15273609397E+04  0.15273609397E+04  0.00000000000E+00 0.  1.
         22   -1    0    0    0    0 -0.00000000000E+00 -0.00000000000E+00 -0.74744201174E+03  0.74744201174E+03  0.00000000000E+00 0. -1.
         25    2    1    2    0    0 -0.49955352180E+02 -0.12519192736E+03 -0.43567576593E+03  0.47289574026E+03  0.12509377383E+03 0.  0.
         24    2    1    2    0    0  0.41609328066E+02  0.87971537713E+02 -0.27815689232E+03  0.30552331534E+03  0.80640633902E+02 0.  0.
        -24    2    1    2    0    0  0.83460241139E+01  0.37220389649E+02  0.14937515862E+04  0.14963838958E+04  0.80099618404E+02 0.  0.
        -13    1    4    4    0    0 -0.19356571372E+01  0.37847032799E+02 -0.29135280692E+02  0.47801770273E+02  0.00000000000E+00 0.  1.
         14    1    4    4    0    0  0.43544985203E+02  0.50124504914E+02 -0.24902161163E+03  0.25772154506E+03  0.00000000000E+00 0. -1.
         11    1    5    5    0    0  0.22873341001E+02  0.43236620062E+02  0.47517633331E+03  0.47768728556E+03  0.00000000000E+00 0. -1.
        -12    1    5    5    0    0 -0.14527316887E+02 -0.60162304129E+01  0.10185752529E+04  0.10186966103E+04  0.00000000000E+00 0.  1.
          5    1    3    3  501    0 -0.21654170548E+01 -0.84022456548E+02 -0.37822521162E+03  0.38747418668E+03  0.41800000000E+01 0.  1.
         -5    1    3    3    0  501 -0.47789935125E+02 -0.41169470814E+02 -0.57450554308E+02  0.85421553584E+02  0.41800000000E+01 0.  1.
</event>
<event>
11    1  0.2450992E-009  0.3150305E+03  0.7561462E-02  0.9940233E-01
         22   -1    0    0    0    0  0.00000000000E+00  0.00000000000E+00  0.25840212790E+03  0.25840212790E+03  0.00000000000E+00 0.  1.
         22   -1    0    0    0    0 -0.00000000000E+00 -0.00000000000E+00 -0.58495022204E+03  0.58495022204E+03  0.00000000000E+00 0.  1.
         25    2    1    2    0    0  0.19666946687E+02 -0.15936351888E+02 -0.77860558607E+02  0.14949949002E+03  0.12508826814E+03 0.  0.
         24    2    1    2    0    0 -0.29275761140E+03 -0.10865466473E+03 -0.20148273902E+03  0.37955773883E+03  0.77174657598E+02 0.  0.
        -24    2    1    2    0    0  0.27309066472E+03  0.12459101662E+03 -0.47204796511E+02  0.31429512109E+03  0.80322461058E+02 0.  0.
        -13    1    4    4    0    0 -0.17082233643E+03 -0.27721908112E+02 -0.13141893897E+03  0.21730097177E+03  0.00000000000E+00 0.  1.
         14    1    4    4    0    0 -0.12193527497E+03 -0.80932756622E+02 -0.70063800055E+02  0.16225676706E+03  0.00000000000E+00 0. -1.
         11    1    5    5    0    0  0.56175800317E+02  0.41445437191E+02  0.19721731067E+02  0.72542342680E+02  0.00000000000E+00 0. -1.
        -12    1    5    5    0    0  0.21691486440E+03  0.83145579432E+02 -0.66926527578E+02  0.24175277841E+03  0.00000000000E+00 0.  1.
          5    1    3    3  501    0  0.16825072226E+02  0.52742257131E+02 -0.18315767301E+02  0.58461683815E+02  0.41800000000E+01 0.  1.
         -5    1    3    3    0  501  0.28418744615E+01 -0.68678609019E+02 -0.59544791306E+02  0.91037806207E+02  0.41800000000E+01 0.  1.
</event>
<event>
11    1  0.2450992E-009  0.4203076E+03  0.7561462E-02  0.9591669E-01
         22   -1    0    0    0    0  0.00000000000E+00  0.00000000000E+00  0.11781730825E+04  0.11781730825E+04  0.00000000000E+00 0. -1.
         22   -1    0    0    0    0 -0.00000000000E+00 -0.00000000000E+00 -0.38144527124E+03  0.38144527124E+03  0.00000000000E+00 0. -1.
         25    2    1    2    0    0  0.32968226737E+03 -0.58011141860E+02  0.90014562271E+02  0.36851890921E+03  0.12509146664E+03 0.  0.
        -24    2    1    2    0    0 -0.43619037566E+03  0.39272109994E+03  0.36977288472E+03  0.69782790137E+03  0.75762045240E+02 0.  0.
         24    2    1    2    0    0  0.10650810830E+03 -0.33470995808E+03  0.33694036430E+03  0.49327154319E+03  0.80082913684E+02 0.  0.
        -11    1    5    5    0    0  0.38076624608E+02 -0.78782883456E+02  0.13185148140E+03  0.15824470043E+03  0.00000000000E+00 0.  1.
         12    1    5    5    0    0  0.68431483688E+02 -0.25592707462E+03  0.20508888290E+03  0.33502684276E+03  0.00000000000E+00 0. -1.
         13    1    4    4    0    0 -0.43885106230E+03  0.38703759387E+03  0.36824137836E+03  0.69136825693E+03  0.00000000000E+00 0. -1.
        -14    1    4    4    0    0  0.26606866377E+01  0.56835060657E+01  0.15315063632E+01  0.64596444425E+01  0.00000000000E+00 0.  1.
          5    1    3    3  501    0  0.22577216227E+03 -0.97560096882E+02  0.66224311779E+02  0.25474334855E+03  0.41800000000E+01 0.  1.
         -5    1    3    3    0  501  0.10391010510E+03  0.39548955022E+02  0.23790250493E+02  0.11377556066E+03  0.41800000000E+01 0.  1.
</event>
<event>
11    1  0.2450992E-009  0.1886933E+03  0.7561462E-02  0.1062820E+00
         22   -1    0    0    0    0  0.00000000000E+00  0.00000000000E+00  0.19936843904E+03  0.19936843904E+03  0.00000000000E+00 0.  1.
         22   -1    0    0    0    0 -0.00000000000E+00 -0.00000000000E+00 -0.27899330900E+03  0.27899330900E+03  0.00000000000E+00 0. -1.
         25    2    1    2    0    0  0.31550867789E+02  0.12959679019E+03 -0.10449723790E+03  0.21061300563E+03  0.12508948847E+03 0.  0.
        -24    2    1    2    0    0 -0.67741725752E+02 -0.14246685309E+03  0.16437783695E+02  0.17812727004E+03  0.81076371171E+02 0.  0.
         24    2    1    2    0    0  0.36190857963E+02  0.12870062900E+02  0.84345842440E+01  0.89621472379E+02  0.80532287816E+02 0.  0.
        -13    1    5    5    0    0  0.54002834956E+02 -0.27123555853E+01  0.26147182002E+02  0.60061120392E+02  0.00000000000E+00 0.  1.
         14    1    5    5    0    0 -0.17811976993E+02  0.15582418485E+02 -0.17712597758E+02  0.29560351987E+02  0.00000000000E+00 0. -1.
         13    1    4    4    0    0  0.56016229460E+01 -0.78801211200E+02 -0.30971924526E+01  0.79060746691E+02  0.00000000000E+00 0. -1.
        -14    1    4    4    0    0 -0.73343348698E+02 -0.63665641886E+02  0.19534976148E+02  0.99066523347E+02  0.00000000000E+00 0.  1.
          5    1    3    3  501    0  0.70740266183E+02  0.46125203664E+02 -0.23375129001E+02  0.87724504721E+02  0.41800000000E+01 0.  1.
         -5    1    3    3    0  501 -0.39189398394E+02  0.83471586522E+02 -0.81122108899E+02  0.12288850091E+03  0.41800000000E+01 0.  1.
</event>
<event>
11    1  0.2450992E-009  0.2156546E+03  0.7561462E-02  0.1043974E+00
         22   -1    0    0    0    0  0.00000000000E+00  0.00000000000E+00  0.17894090277E+03  0.17894090277E+03  0.00000000000E+00 0.  1.
         22   -1    0    0    0    0 -0.00000000000E+00 -0.00000000000E+00 -0.12515796470E+04  0.12515796470E+04  0.00000000000E+00 0.  1.
         25    2    1    2    0    0 -0.10506820514E+03  0.28236021958E+02 -0.95770396166E+03  0.97194604406E+03  0.12508250767E+03 0.  0.
        -24    2    1    2    0    0 -0.12067920610E+03 -0.11747426839E+03 -0.67077009140E+02  0.19741183353E+03  0.78156460662E+02 0.  0.
         24    2    1    2    0    0  0.22574741124E+03  0.89238246431E+02 -0.47857773481E+02  0.26116267222E+03  0.83607515043E+02 0.  0.
        -13    1    5    5    0    0  0.22889874241E+03  0.96728005487E+02 -0.47708051837E+02  0.25303556970E+03  0.00000000000E+00 0.  1.
         14    1    5    5    0    0 -0.31513311689E+01 -0.74897590567E+01 -0.14972164364E+00  0.81271025239E+01  0.00000000000E+00 0. -1.
         11    1    4    4    0    0 -0.12744543308E+03 -0.89118575834E+02 -0.63741862689E+02  0.16806987842E+03  0.00000000000E+00 0. -1.
        -12    1    4    4    0    0  0.67662269826E+01 -0.28355692554E+02 -0.33351464518E+01  0.29341955110E+02  0.00000000000E+00 0.  1.
          5    1    3    3  501    0 -0.10091015381E+03 -0.19125461803E+02 -0.43117410471E+03  0.44325751365E+03  0.41800000000E+01 0. -1.
         -5    1    3    3    0  501 -0.41580513284E+01  0.47361483761E+02 -0.52652985695E+03  0.52868853042E+03  0.41800000000E+01 0. -1.
</event>
<event>
11    1  0.2450992E-009  0.1087180E+04  0.7561462E-02  0.8600246E-01
         22   -1    0    0    0    0  0.00000000000E+00  0.00000000000E+00  0.33711497140E+03  0.33711497140E+03  0.00000000000E+00 0. -1.
         22   -1    0    0    0    0 -0.00000000000E+00 -0.00000000000E+00 -0.87652693126E+03  0.87652693126E+03  0.00000000000E+00 0. -1.
         25    2    1    2    0    0 -0.41997840923E+03 -0.70805621870E+02 -0.61671221514E+03  0.75985345136E+03  0.12509200988E+03 0.  0.
        -24    2    1    2    0    0  0.14640550887E+03  0.24485003329E+02  0.17148799807E+02  0.15858835628E+03  0.53123412910E+02 0.  0.
         24    2    1    2    0    0  0.27357290036E+03  0.46320618541E+02  0.60151455474E+02  0.29520009501E+03  0.80852748758E+02 0.  0.
        -11    1    5    5    0    0  0.13194575832E+03 -0.13403500172E+02  0.79127509533E+01  0.13286063594E+03  0.00000000000E+00 0.  1.
         12    1    5    5    0    0  0.14162714204E+03  0.59724118714E+02  0.52238704521E+02  0.16233945907E+03  0.00000000000E+00 0. -1.
         11    1    4    4    0    0  0.50120279461E+01  0.13213615190E+02 -0.50750520776E+01  0.15015865081E+02  0.00000000000E+00 0. -1.
        -12    1    4    4    0    0  0.14139348092E+03  0.11271388138E+02  0.22223851884E+02  0.14357249120E+03  0.00000000000E+00 0.  1.
          5    1    3    3  501    0 -0.40227020823E+02 -0.70477904367E+01 -0.11708371311E+02  0.42690079798E+02  0.41800000000E+01 0.  1.
         -5    1    3    3    0  501 -0.37975138841E+03 -0.63757831433E+02 -0.60500384383E+03  0.71716337157E+03  0.41800000000E+01 0.  1.
</event>
<event>
11    1  0.2450992E-009  0.5658440E+03  0.7561462E-02  0.9257344E-01
         22   -1    0    0    0    0  0.00000000000E+00  0.00000000000E+00  0.71237198927E+03  0.71237198927E+03  0.00000000000E+00 0. -1.
         22   -1    0    0    0    0 -0.00000000000E+00 -0.00000000000E+00 -0.14928932833E+04  0.14928932833E+04  0.00000000000E+00 0. -1.
         25    2    1    2    0    0 -0.47168599239E+03 -0.35526720854E+03 -0.73618618104E+03  0.95200774589E+03  0.12508473209E+03 0.  0.
         24    2    1    2    0    0  0.40916575122E+03  0.31121087778E+03 -0.53715586896E+03  0.74802311295E+03  0.82056855425E+02 0.  0.
        -24    2    1    2    0    0  0.62520241162E+02  0.44056330759E+02  0.49282075596E+03  0.50523441375E+03  0.80868872213E+02 0.  0.
        -11    1    4    4    0    0  0.11794509781E+03  0.46582733148E+02 -0.14147906639E+03  0.18999295606E+03  0.00000000000E+00 0.  1.
         12    1    4    4    0    0  0.29122065341E+03  0.26462814464E+03 -0.39567680257E+03  0.55803015689E+03  0.00000000000E+00 0. -1.
         11    1    5    5    0    0 -0.30834799769E+01  0.11864954332E+02  0.27903479893E+03  0.27930396345E+03  0.00000000000E+00 0. -1.
        -12    1    5    5    0    0  0.65603721139E+02  0.32191376427E+02  0.21378595704E+03  0.22593045029E+03  0.00000000000E+00 0.  1.
          5    1    3    3  501    0 -0.19383915452E+03 -0.21643593588E+03 -0.39834739132E+03  0.49306819887E+03  0.41800000000E+01 0.  1.
         -5    1    3    3    0  501 -0.27784683786E+03 -0.13883127266E+03 -0.33783878973E+03  0.45893954702E+03  0.41800000000E+01 0.  1.
</event>
<event>
11    1  0.2450992E-009  0.1828508E+03  0.7561462E-02  0.1067360E+00
         22   -1    0    0    0    0  0.00000000000E+00  0.00000000000E+00  0.39260832426E+03  0.39260832426E+03  0.00000000000E+00 0.  1.
         22   -1    0    0    0    0 -0.00000000000E+00 -0.00000000000E+00 -0.25072274428E+03  0.25072274428E+03  0.00000000000E+00 0.  1.
         25    2    1    2    0    0 -0.12137672799E+02  0.18482594731E+03 -0.95226665375E+02  0.24294365252E+03  0.12508215941E+03 0.  0.
        -24    2    1    2    0    0 -0.51617783998E+02 -0.73165687222E+02  0.25743258496E+01  0.12086531340E+03  0.81142981319E+02 0.  0.
         24    2    1    2    0    0  0.63755456797E+02 -0.11166026008E+03  0.23453791951E+03  0.27952210262E+03  0.81189889854E+02 0.  0.
        -11    1    5    5    0    0  0.55030735062E+02 -0.12441930636E+03  0.20258665307E+03  0.24402847702E+03  0.00000000000E+00 0.  1.
         12    1    5    5    0    0  0.87247217352E+01  0.12759046275E+02  0.31951266442E+02  0.35493625603E+02  0.00000000000E+00 0. -1.
         13    1    4    4    0    0 -0.48370954271E+02 -0.24530035793E+02 -0.30248694062E+02  0.62100365262E+02  0.00000000000E+00 0. -1.
        -14    1    4    4    0    0 -0.32468297265E+01 -0.48635651428E+02  0.32823019912E+02  0.58764948134E+02  0.00000000000E+00 0.  1.
          5    1    3    3  501    0  0.44350834203E+02  0.75189318276E+02 -0.53649965201E+00  0.87396740838E+02  0.41800000000E+01 0. -1.
         -5    1    3    3    0  501 -0.56488507003E+02  0.10963662903E+03 -0.94690165723E+02  0.15554691168E+03  0.41800000000E+01 0. -1.
</event>
<event>
11    1  0.2450992E-009  0.1613887E+03  0.7561462E-02  0.1085778E+00
         22   -1    0    0    0    0  0.00000000000E+00  0.00000000000E+00  0.71695681356E+03  0.71695681356E+03  0.00000000000E+00 0.  1.
         22   -1    0    0    0    0 -0.00000000000E+00 -0.00000000000E+00 -0.12911281068E+04  0.12911281068E+04  0.00000000000E+00 0. -1.
         25    2    1    2    0    0 -0.84616312438E+02 -0.44660252693E+02 -0.64123544755E+03  0.66029039855E+03  0.12508418254E+03 0.  0.
         24    2    1    2    0    0  0.99018223971E+02  0.40268228623E+02 -0.63087304154E+03  0.64508261007E+03  0.81881868307E+02 0.  0.
        -24    2    1    2    0    0 -0.14401911532E+02  0.43920240704E+01  0.69793719585E+03  0.70271191174E+03  0.80380324855E+02 0.  0.
        -13    1    4    4    0    0  0.78578898198E+01  0.26221991413E+02 -0.50649025360E+02  0.57573110356E+02  0.00000000000E+00 0.  1.
         14    1    4    4    0    0  0.91160334151E+02  0.14046237210E+02 -0.58022401618E+03  0.58750949971E+03  0.00000000000E+00 0. -1.
         13    1    5    5    0    0  0.24291279337E+02 -0.23643793948E+02  0.27288605040E+03  0.27498343904E+03  0.00000000000E+00 0. -1.
        -14    1    5    5    0    0 -0.38693190869E+02  0.28035818018E+02  0.42505114545E+03  0.42772847270E+03  0.00000000000E+00 0.  1.
          5    1    3    3  501    0 -0.96195204141E+02 -0.52118853951E+02 -0.63539180864E+03  0.64475585699E+03  0.41800000000E+01 0.  1.
         -5    1    3    3    0  501  0.11578891703E+02  0.74586012583E+01 -0.58436389128E+01  0.15534541562E+02  0.41800000000E+01 0.  1.
</event>
<event>
11    1  0.2450992E-009  0.4901270E+03  0.7561462E-02  0.9415857E-01
         22   -1    0    0    0    0  0.00000000000E+00  0.00000000000E+00  0.71886391749E+03  0.71886391749E+03  0.00000000000E+00 0.  1.
         22   -1    0    0    0    0 -0.00000000000E+00 -0.00000000000E+00 -0.75818440777E+03  0.75818440777E+03  0.00000000000E+00 0.  1.
         25    2    1    2    0    0  0.25404869919E+03  0.42718975660E+03 -0.48740880102E+03  0.70728074387E+03  0.12508749590E+03 0.  0.
         24    2    1    2    0    0 -0.28629909767E+03 -0.37324173417E+03  0.45509008669E+03  0.66171442181E+03  0.97377736504E+02 0.  0.
        -24    2    1    2    0    0  0.32250398476E+02 -0.53948022426E+02 -0.70017759545E+01  0.10805315959E+03  0.87612688042E+02 0.  0.
        -11    1    4    4    0    0 -0.77065059087E+02 -0.72146614886E+02  0.55025064742E+02  0.11904585302E+03  0.00000000000E+00 0.  1.
         12    1    4    4    0    0 -0.20923403858E+03 -0.30109511928E+03  0.40006502195E+03  0.54266856878E+03  0.00000000000E+00 0. -1.
         13    1    5    5    0    0  0.39427853788E+02 -0.14120889538E+02  0.31337833639E+02  0.52306930639E+02  0.00000000000E+00 0. -1.
        -14    1    5    5    0    0 -0.71774553122E+01 -0.39827132887E+02 -0.38339609594E+02  0.55746228954E+02  0.00000000000E+00 0.  1.
          5    1    3    3  501    0  0.11323076271E+02  0.67503148163E+01  0.59962444733E+01  0.15073359086E+02  0.41800000000E+01 0.  1.
         -5    1    3    3    0  501  0.24272562292E+03  0.42043944178E+03 -0.49340504549E+03  0.69220738478E+03  0.41800000000E+01 0.  1.
</event>
<event>
11    1  0.2450992E-009  0.3504945E+03  0.7561462E-02  0.9808298E-01
         22   -1    0    0    0    0  0.00000000000E+00  0.00000000000E+00  0.26473962431E+04  0.26473962431E+04  0.00000000000E+00 0. -1.
         22   -1    0    0    0    0 -0.00000000000E+00 -0.00000000000E+00 -0.60266500434E+03  0.60266500434E+03  0.00000000000E+00 0. -1.
         25    2    1    2    0    0 -0.29081395308E+03  0.14572112421E+03 -0.50466628734E+03  0.61330291541E+03  0.12507998690E+03 0.  0.
        -24    2    1    2    0    0  0.25495387979E+03 -0.35037867357E+03  0.14832481531E+04  0.15474215476E+04  0.81985771203E+02 0.  0.
         24    2    1    2    0    0  0.35860073294E+02  0.20465754936E+03  0.10661493730E+04  0.10893367844E+04  0.82519615397E+02 0.  0.
        -13    1    5    5    0    0  0.48122507612E+02  0.20246607180E+03  0.95031009205E+03  0.97282966496E+03  0.00000000000E+00 0.  1.
         14    1    5    5    0    0 -0.12262434318E+02  0.21914775641E+01  0.11583928095E+03  0.11650711944E+03  0.00000000000E+00 0. -1.
         13    1    4    4    0    0  0.19914959125E+03 -0.22521576082E+03  0.11028099797E+04  0.11430540451E+04  0.00000000000E+00 0. -1.
        -14    1    4    4    0    0  0.55804288534E+02 -0.12516291275E+03  0.38043817334E+03  0.40436750250E+03  0.00000000000E+00 0.  1.
          5    1    3    3  501    0 -0.58148149130E+01 -0.62439942236E+01 -0.75850229431E+02  0.76442980325E+02  0.41800000000E+01 0.  1.
         -5    1    3    3    0  501 -0.28499913817E+03  0.15196511843E+03 -0.42881605791E+03  0.53685993509E+03  0.41800000000E+01 0.  1.
</event>
<event>
11    1  0.2450992E-009  0.1701944E+03  0.7561462E-02  0.1077863E+00
         22   -1    0    0    0    0  0.00000000000E+00  0.00000000000E+00  0.16222019694E+03  0.16222019694E+03  0.00000000000E+00 0.  1.
         22   -1    0    0    0    0 -0.00000000000E+00 -0.00000000000E+00 -0.36440434702E+03  0.36440434702E+03  0.00000000000E+00 0.  1.
         25    2    1    2    0    0 -0.11909330449E+03 -0.70800872658E+02 -0.20981059885E+03  0.28083022949E+03  0.12509656935E+03 0.  0.
         24    2    1    2    0    0  0.59060273225E+02  0.66613152118E+02 -0.38333658793E+02  0.12786034397E+03  0.83386871003E+02 0.  0.
        -24    2    1    2    0    0  0.60033031269E+02  0.41877205398E+01  0.45960107560E+02  0.11793397050E+03  0.90413428557E+02 0.  0.
        -13    1    4    4    0    0  0.10431998456E+02  0.54565474475E+02  0.12009689068E+02  0.56837049783E+02  0.00000000000E+00 0.  1.
         14    1    4    4    0    0  0.48628274769E+02  0.12047677643E+02 -0.50343347862E+02  0.71023294189E+02  0.00000000000E+00 0. -1.
         13    1    5    5    0    0  0.74161318200E+01  0.37527595316E+02  0.40018938012E+02  0.55360950326E+02  0.00000000000E+00 0. -1.
        -14    1    5    5    0    0  0.52616899449E+02 -0.33339874776E+02  0.59411695480E+01  0.62573020171E+02  0.00000000000E+00 0.  1.
          5    1    3    3  501    0 -0.79861582522E+02 -0.42746089037E+02 -0.31389054689E+02  0.95957520003E+02  0.41800000000E+01 0.  1.
         -5    1    3    3    0  501 -0.39231721973E+02 -0.28054783620E+02 -0.17842154416E+03  0.18487270949E+03  0.41800000000E+01 0.  1.
</event>
<event>
11    1  0.2450992E-009  0.1342273E+04  0.7561462E-02  0.8407926E-01
         22   -1    0    0    0    0  0.00000000000E+00  0.00000000000E+00  0.15257974890E+03  0.15257974890E+03  0.00000000000E+00 0. -1.
         22   -1    0    0    0    0 -0.00000000000E+00 -0.00000000000E+00 -0.29520583323E+04  0.29520583323E+04  0.00000000000E+00 0.  1.
         25    2    1    2    0    0  0.26158156538E+02 -0.36818518038E+03 -0.25820991218E+04  0.26113459709E+04  0.12508928405E+03 0.  0.
         24    2    1    2    0    0 -0.46405592055E+02  0.27701173696E+03 -0.19965069362E+03  0.35416163184E+03  0.81737877476E+02 0.  0.
        -24    2    1    2    0    0  0.20247435517E+02  0.91173443419E+02 -0.17728768044E+02  0.13913047847E+03  0.10158949450E+03 0.  0.
        -13    1    4    4    0    0  0.62574485526E+01  0.60823111969E+01 -0.27553536852E+02  0.28902379918E+02  0.00000000000E+00 0.  1.
         14    1    4    4    0    0 -0.52663040608E+02  0.27092942577E+03 -0.17209715677E+03  0.32525925192E+03  0.00000000000E+00 0. -1.
         13    1    5    5    0    0  0.45763937996E+01  0.69957216170E+02  0.36344173422E+02  0.78967426299E+02  0.00000000000E+00 0. -1.
        -14    1    5    5    0    0  0.15671041718E+02  0.21216227249E+02 -0.54072941467E+02  0.60163052167E+02  0.00000000000E+00 0.  1.
          5    1    3    3  501    0 -0.36612765036E+02 -0.61525420369E+02 -0.66501366428E+03  0.66886958220E+03  0.41800000000E+01 0. -1.
         -5    1    3    3    0  501  0.62770921575E+02 -0.30665976002E+03 -0.19170854575E+04  0.19424763887E+04  0.41800000000E+01 0. -1.
</event>
<event>
11    1  0.2450992E-009  0.1917913E+03  0.7561462E-02  0.1060485E+00
         22   -1    0    0    0    0  0.00000000000E+00  0.00000000000E+00  0.20614046606E+03  0.20614046606E+03  0.00000000000E+00 0.  1.
         22   -1    0    0    0    0 -0.00000000000E+00 -0.00000000000E+00 -0.91455627327E+03  0.91455627327E+03  0.00000000000E+00 0.  1.
         25    2    1    2    0    0  0.34947769432E+02  0.38257038423E+02 -0.65509910150E+03  0.66894510245E+03  0.12509104576E+03 0.  0.
         24    2    1    2    0    0 -0.17153678707E+03 -0.12506799282E+03 -0.12329163834E+03  0.25834498875E+03  0.80463861352E+02 0.  0.
        -24    2    1    2    0    0  0.13658901764E+03  0.86810954397E+02  0.69974932628E+02  0.19340664814E+03  0.79479172142E+02 0.  0.
        -13    1    4    4    0    0 -0.15799956638E+03 -0.74535108959E+02 -0.96105688825E+02  0.19938818638E+03  0.00000000000E+00 0.  1.
         14    1    4    4    0    0 -0.13537220694E+02 -0.50532883861E+02 -0.27185949516E+02  0.58956802377E+02  0.00000000000E+00 0. -1.
         13    1    5    5    0    0  0.27276583496E+02  0.50314384489E+02 -0.24664199698E+01  0.57285535008E+02  0.00000000000E+00 0. -1.
        -14    1    5    5    0    0  0.10931243414E+03  0.36496569908E+02  0.72441352598E+02  0.13612111313E+03  0.00000000000E+00 0.  1.
          5    1    3    3  501    0  0.43778585127E+02 -0.37686456946E+02 -0.24433032800E+03  0.25110080672E+03  0.41800000000E+01 0. -1.
         -5    1    3    3    0  501 -0.88308156942E+01  0.75943495369E+02 -0.41076877349E+03  0.41784429572E+03  0.41800000000E+01 0. -1.
</event>
<event>
11    1  0.2450992E-009  0.1658145E+03  0.7561462E-02  0.1081733E+00
         22   -1    0    0    0    0  0.00000000000E+00  0.00000000000E+00  0.43358094670E+03  0.43358094670E+03  0.00000000000E+00 0. -1.
         22   -1    0    0    0    0 -0.00000000000E+00 -0.00000000000E+00 -0.12899829003E+03  0.12899829003E+03  0.00000000000E+00 0. -1.
         25    2    1    2    0    0 -0.69189611691E+02 -0.73684229920E+02  0.54082059733E+02  0.16967082801E+03  0.12508698009E+03 0.  0.
        -24    2    1    2    0    0  0.14639618442E+03 -0.49054532368E+01  0.12156474259E+03  0.20655789043E+03  0.80201428773E+02 0.  0.
         24    2    1    2    0    0 -0.77206572726E+02  0.78589683157E+02  0.12893585436E+03  0.18635051829E+03  0.77232557620E+02 0.  0.
        -13    1    5    5    0    0 -0.41256701851E+02 -0.21165842664E+00  0.16530690154E+02  0.44445741797E+02  0.00000000000E+00 0.  1.
         14    1    5    5    0    0 -0.35949870874E+02  0.78801341584E+02  0.11240516420E+03  0.14190477649E+03  0.00000000000E+00 0. -1.
         11    1    4    4    0    0  0.12063509766E+03  0.78130226599E+01  0.52575884621E+02  0.13182599802E+03  0.00000000000E+00 0. -1.
        -12    1    4    4    0    0  0.25761086753E+02 -0.12718475897E+02  0.68988857964E+02  0.74731892409E+02  0.00000000000E+00 0.  1.
          5    1    3    3  501    0  0.30163639583E+02 -0.41430772061E+02  0.37918302728E+02  0.63887589626E+02  0.41800000000E+01 0.  1.
         -5    1    3    3    0  501 -0.99353251274E+02 -0.32253457860E+02  0.16163757004E+02  0.10578323838E+03  0.41800000000E+01 0.  1.
</event>
<event>
11    1  0.2450992E-009  0.9657938E+03  0.7561462E-02  0.8712247E-01
         22   -1    0    0    0    0  0.00000000000E+00  0.00000000000E+00  0.20009971016E+04  0.20009971016E+04  0.00000000000E+00 0.  1.
         22   -1    0    0    0    0 -0.00000000000E+00 -0.00000000000E+00 -0.18523994532E+04  0.18523994532E+04  0.00000000000E+00 0.  1.
         25    2    1    2    0    0 -0.19250634381E+03  0.11271056514E+03 -0.63228087762E+03  0.68204764951E+03  0.12509006389E+03 0.  0.
        -24    2    1    2    0    0  0.80997940635E+03  0.61970410103E+03 -0.81533327333E+03  0.13081237144E+04  0.79495245212E+02 0.  0.
         24    2    1    2    0    0 -0.61747306254E+03 -0.73241466618E+03  0.15962117993E+04  0.18632251909E+04  0.77535653032E+02 0.  0.
        -11    1    5    5    0    0 -0.53137283837E+03 -0.66683981183E+03  0.14037941359E+04  0.16424586461E+04  0.00000000000E+00 0.  1.
         12    1    5    5    0    0 -0.86100224173E+02 -0.65574854343E+02  0.19241766342E+03  0.22076654484E+03  0.00000000000E+00 0. -1.
         11    1    4    4    0    0  0.54708839589E+03  0.37172999400E+03 -0.51737915249E+03  0.83974406147E+03  0.00000000000E+00 0. -1.
        -12    1    4    4    0    0  0.26289101047E+03  0.24797410704E+03 -0.29795412084E+03  0.46837965292E+03  0.00000000000E+00 0.  1.
          5    1    3    3  501    0 -0.11053156569E+03  0.58084401426E+02 -0.17976841597E+03  0.21891820500E+03  0.41800000000E+01 0.  1.
         -5    1    3    3    0  501 -0.81974778125E+02  0.54626163717E+02 -0.45251246166E+03  0.46312944450E+03  0.41800000000E+01 0.  1.
</event>
<event>
11    1  0.2450992E-009  0.1974362E+03  0.7561462E-02  0.1056352E+00
         22   -1    0    0    0    0  0.00000000000E+00  0.00000000000E+00  0.76715911430E+03  0.76715911430E+03  0.00000000000E+00 0. -1.
         22   -1    0    0    0    0 -0.00000000000E+00 -0.00000000000E+00 -0.26414173536E+03  0.26414173536E+03  0.00000000000E+00 0.  1.
         25    2    1    2    0    0 -0.14764880364E+03  0.40812547931E+02 -0.19481046674E+03  0.27760383533E+03  0.12508772183E+03 0.  0.
         24    2    1    2    0    0  0.96469201615E+01  0.94659011351E+01  0.10201531713E+03  0.13482481571E+03  0.87108780549E+02 0.  0.
        -24    2    1    2    0    0  0.13800188348E+03 -0.50278449066E+02  0.59581252855E+03  0.61887219862E+03  0.80235819711E+02 0.  0.
        -13    1    4    4    0    0  0.43877849425E+02  0.14835505911E+02  0.30788975778E+02  0.55617613535E+02  0.00000000000E+00 0.  1.
         14    1    4    4    0    0 -0.34230929264E+02 -0.53696047764E+01  0.71226341355E+02  0.79207202176E+02  0.00000000000E+00 0. -1.
         11    1    5    5    0    0  0.98340864707E+02 -0.51974961386E+02  0.29184182160E+03  0.31232030212E+03  0.00000000000E+00 0. -1.
        -12    1    5    5    0    0  0.39661018772E+02  0.16965123196E+01  0.30397070694E+03  0.30655189649E+03  0.00000000000E+00 0.  1.
          5    1    3    3  501    0 -0.55900859353E+02  0.73654387262E+02 -0.13331931051E+03  0.16230029511E+03  0.41800000000E+01 0. -1.
         -5    1    3    3    0  501 -0.91747944287E+02 -0.32841839331E+02 -0.61491156232E+02  0.11530354022E+03  0.41800000000E+01 0. -1.
</event>
<event>
11    1  0.2450992E-009  0.1383219E+03  0.7561462E-02  0.1109447E+00
         22   -1    0    0    0    0  0.00000000000E+00  0.00000000000E+00  0.32827594622E+03  0.32827594622E+03  0.00000000000E+00 0. -1.
         22   -1    0    0    0    0 -0.00000000000E+00 -0.00000000000E+00 -0.42869218937E+03  0.42869218937E+03  0.00000000000E+00 0.  1.
         25    2    1    2    0    0  0.55119078238E+01 -0.80628076290E+02 -0.31255745511E+03  0.34622555218E+03  0.12509477377E+03 0.  0.
         24    2    1    2    0    0 -0.21686101305E+02  0.24291409470E+02 -0.71455340839E+02  0.11116143037E+03  0.78680609450E+02 0.  0.
        -24    2    1    2    0    0  0.16174193481E+02  0.56336666820E+02  0.28359655279E+03  0.29958115304E+03  0.76723125166E+02 0.  0.
        -13    1    4    4    0    0  0.29162299132E+01  0.24653615141E+02 -0.81038716894E+02  0.84755995494E+02  0.00000000000E+00 0.  1.
         14    1    4    4    0    0 -0.24602331218E+02 -0.36220567157E+00  0.95833760551E+01  0.26405434875E+02  0.00000000000E+00 0. -1.
         11    1    5    5    0    0 -0.18963329295E+01  0.52572131680E+02  0.27355650506E+03  0.27856881837E+03  0.00000000000E+00 0. -1.
        -12    1    5    5    0    0  0.18070526410E+02  0.37645351398E+01  0.10040047731E+02  0.21012334663E+02  0.00000000000E+00 0.  1.
          5    1    3    3  501    0  0.60416069095E+02 -0.27372334478E+02 -0.98055386164E+02  0.11845538086E+03  0.41800000000E+01 0.  1.
         -5    1    3    3    0  501 -0.54904161271E+02 -0.53255741812E+02 -0.21450206894E+03  0.22777017132E+03  0.41800000000E+01 0.  1.
</event>
<event>
11    1  0.2450992E-009  0.1625023E+03  0.7561462E-02  0.1084747E+00
         22   -1    0    0    0    0  0.00000000000E+00  0.00000000000E+00  0.58077788343E+03  0.58077788343E+03  0.00000000000E+00 0.  1.
         22   -1    0    0    0    0 -0.00000000000E+00 -0.00000000000E+00 -0.67069851932E+03  0.67069851932E+03  0.00000000000E+00 0.  1.
         25    2    1    2    0    0  0.11623950523E+03  0.46144856095E+02 -0.34458269821E+03  0.38732668169E+03  0.12507498600E+03 0.  0.
         24    2    1    2    0    0 -0.40844336840E+02 -0.93843474684E+02 -0.28203730886E+03  0.31486248764E+03  0.95490758413E+02 0.  0.
        -24    2    1    2    0    0 -0.75395168392E+02  0.47698618589E+02  0.53669937119E+03  0.54928723341E+03  0.75568909719E+02 0.  0.
        -13    1    4    4    0    0 -0.69906598266E+02 -0.75596190695E+02 -0.23564291275E+03  0.25715617601E+03  0.00000000000E+00 0.  1.
         14    1    4    4    0    0  0.29062261426E+02 -0.18247283990E+02 -0.46394396108E+02  0.57706311634E+02  0.00000000000E+00 0. -1.
         11    1    5    5    0    0  0.13330533898E+02 -0.23536154420E+01  0.39379863447E+02  0.41641521163E+02  0.00000000000E+00 0. -1.
        -12    1    5    5    0    0 -0.88725702290E+02  0.50052234031E+02  0.49731950774E+03  0.50764571225E+03  0.00000000000E+00 0.  1.
          5    1    3    3  501    0 -0.72365671634E+01  0.46473578890E+02 -0.14602561210E+03  0.15347023565E+03  0.41800000000E+01 0. -1.
         -5    1    3    3    0  501  0.12347607240E+03 -0.32872279525E+00 -0.19855708611E+03  0.23385644605E+03  0.41800000000E+01 0. -1.
</event>
<event>
11    1  0.2450992E-009  0.4892816E+03  0.7561462E-02  0.9417796E-01
         22   -1    0    0    0    0  0.00000000000E+00  0.00000000000E+00  0.81224591310E+03  0.81224591310E+03  0.00000000000E+00 0.  1.
         22   -1    0    0    0    0 -0.00000000000E+00 -0.00000000000E+00 -0.18767879689E+04  0.18767879689E+04  0.00000000000E+00 0. -1.
         25    2    1    2    0    0  0.11772469606E+03  0.20998951749E+03 -0.15409422727E+04  0.15646422607E+04  0.12509042564E+03 0.  0.
         24    2    1    2    0    0  0.41278874407E+03 -0.97346284099E+02  0.61914627032E+02  0.43620838764E+03  0.81077063067E+02 0.  0.
        -24    2    1    2    0    0 -0.53051344012E+03 -0.11264323339E+03  0.41448558984E+03  0.68818323370E+03  0.87549133553E+02 0.  0.
        -11    1    4    4    0    0  0.35349215120E+03 -0.10896800482E+03  0.40570007598E+02  0.37212451216E+03  0.00000000000E+00 0.  1.
         12    1    4    4    0    0  0.59296592866E+02  0.11621720724E+02  0.21344619435E+02  0.64083875483E+02  0.00000000000E+00 0. -1.
         13    1    5    5    0    0 -0.13798257710E+03  0.84701796012E+01  0.11481572746E+03  0.17970416466E+03  0.00000000000E+00 0. -1.
        -14    1    5    5    0    0 -0.39253086303E+03 -0.12111341299E+03  0.29966986238E+03  0.50847906904E+03  0.00000000000E+00 0.  1.
          5    1    3    3  501    0  0.50319699540E+02  0.40432944765E+01 -0.41019279557E+03  0.41330862843E+03  0.41800000000E+01 0.  1.
         -5    1    3    3    0  501  0.67404996517E+02  0.20594622301E+03 -0.11307494771E+04  0.11513336322E+04  0.41800000000E+01 0.  1.
</event>
<event>
11    1  0.2450992E-009  0.1796469E+04  0.7561462E-02  0.8155946E-01
         22   -1    0    0    0    0  0.00000000000E+00  0.00000000000E+00  0.40324050663E+03  0.40324050663E+03  0.00000000000E+00 0. -1.
         22   -1    0    0    0    0 -0.00000000000E+00 -0.00000000000E+00 -0.20008529967E+04  0.20008529967E+04  0.00000000000E+00 0. -1.
         25    2    1    2    0    0  0.84535798393E+03  0.17857432563E+03 -0.67521444117E+03  0.11036675939E+04  0.12509478621E+03 0.  0.
        -24    2    1    2    0    0 -0.78250380814E+03 -0.17046824405E+03 -0.86815016863E+03  0.11833015267E+04  0.71736710986E+02 0.  0.
         24    2    1    2    0    0 -0.62854175790E+02 -0.81060815872E+01 -0.54247880283E+02  0.11712438277E+03  0.82212727426E+02 0.  0.
        -13    1    5    5    0    0 -0.63491824318E+02 -0.92924009929E+01 -0.13224780883E+01  0.64181846497E+02  0.00000000000E+00 0.  1.
         14    1    5    5    0    0  0.63764852852E+00  0.11863194057E+01 -0.52925402195E+02  0.52942536272E+02  0.00000000000E+00 0. -1.
         11    1    4    4    0    0 -0.25684530301E+03 -0.43927596472E+02 -0.23703596168E+03  0.35225727891E+03  0.00000000000E+00 0. -1.
        -12    1    4    4    0    0 -0.52565850513E+03 -0.12654064757E+03 -0.63111420695E+03  0.83104424775E+03  0.00000000000E+00 0.  1.
          5    1    3    3  501    0  0.83965097363E+03  0.16507006083E+03 -0.67207884975E+03  0.10881035498E+04  0.41800000000E+01 0. -1.
         -5    1    3    3    0  501  0.57070103021E+01  0.13504264807E+02 -0.31355914191E+01  0.15564044080E+02  0.41800000000E+01 0. -1.
</event>
<event>
11    1  0.2450992E-009  0.2030158E+03  0.7561462E-02  0.1052411E+00
         22   -1    0    0    0    0  0.00000000000E+00  0.00000000000E+00  0.10270461190E+03  0.10270461190E+03  0.00000000000E+00 0. -1.
         22   -1    0    0    0    0 -0.00000000000E+00 -0.00000000000E+00 -0.13489712147E+04  0.13489712147E+04  0.00000000000E+00 0.  1.
         25    2    1    2    0    0 -0.16379010973E+03  0.31474045383E+02 -0.11151411217E+04  0.11344623427E+04  0.12508904867E+03 0.  0.
         24    2    1    2    0    0  0.51078022413E+02 -0.52910435811E+02 -0.13828284300E+03  0.17675860356E+03  0.81932781428E+02 0.  0.
        -24    2    1    2    0    0  0.11271208732E+03  0.21436390427E+02  0.71573619493E+01  0.14045488030E+03  0.80701995683E+02 0.  0.
        -11    1    4    4    0    0  0.21928840880E+02 -0.11422837213E+01 -0.10774356983E+03  0.10995842721E+03  0.00000000000E+00 0.  1.
         12    1    4    4    0    0  0.29149181534E+02 -0.51768152089E+02 -0.30539273173E+02  0.66800176353E+02  0.00000000000E+00 0. -1.
         13    1    5    5    0    0  0.46612218737E+02  0.33015490962E+02 -0.29179903100E+02  0.64141938885E+02  0.00000000000E+00 0. -1.
        -14    1    5    5    0    0  0.66099868583E+02 -0.11579100535E+02  0.36337265050E+02  0.76312941414E+02  0.00000000000E+00 0.  1.
          5    1    3    3  501    0 -0.10574141427E+03  0.59731029163E+02 -0.44788111884E+03  0.46407328252E+03  0.41800000000E+01 0. -1.
         -5    1    3    3    0  501 -0.58048695462E+02 -0.28256983780E+02 -0.66726000290E+03  0.67038906021E+03  0.41800000000E+01 0. -1.
</event>
<event>
11    1  0.2450992E-009  0.2029524E+03  0.7561462E-02  0.1052455E+00
         22   -1    0    0    0    0  0.00000000000E+00  0.00000000000E+00  0.34614199452E+02  0.34614199452E+02  0.00000000000E+00 0. -1.
         22   -1    0    0    0    0 -0.00000000000E+00 -0.00000000000E+00 -0.30085536995E+04  0.30085536995E+04  0.00000000000E+00 0.  1.
         25    2    1    2    0    0 -0.56799843600E+02  0.10054001912E+03 -0.11665044823E+04  0.11788615035E+04  0.12508884685E+03 0.  0.
        -24    2    1    2    0    0  0.16363321495E+03 -0.20314089109E+03 -0.13324322980E+04  0.13600992728E+04  0.80325292555E+02 0.  0.
         24    2    1    2    0    0 -0.10683337135E+03  0.10260087197E+03 -0.47500271983E+03  0.50420712264E+03  0.81590014773E+02 0.  0.
        -11    1    5    5    0    0 -0.41464966483E+02  0.16636739775E+02 -0.25774402280E+03  0.26158766379E+03  0.00000000000E+00 0.  1.
         12    1    5    5    0    0 -0.65368404864E+02  0.85964132196E+02 -0.21725869703E+03  0.24261945885E+03  0.00000000000E+00 0. -1.
         11    1    4    4    0    0  0.87494251735E+02 -0.11171176747E+03 -0.52048394509E+03  0.53947965687E+03  0.00000000000E+00 0. -1.
        -12    1    4    4    0    0  0.76138963212E+02 -0.91429123622E+02 -0.81194835286E+03  0.82061961595E+03  0.00000000000E+00 0.  1.
          5    1    3    3  501    0 -0.58350831144E+01  0.51826641214E+02 -0.94330569919E+03  0.94475561044E+03  0.41800000000E+01 0.  1.
         -5    1    3    3    0  501 -0.50964760485E+02  0.48713377903E+02 -0.22319878311E+03  0.23410589309E+03  0.41800000000E+01 0.  1.
</event>
<event>
11    1  0.2450992E-009  0.1914082E+03  0.7561462E-02  0.1060771E+00
         22   -1    0    0    0    0  0.00000000000E+00  0.00000000000E+00  0.95711000438E+02  0.95711000438E+02  0.00000000000E+00 0. -1.
         22   -1    0    0    0    0 -0.00000000000E+00 -0.00000000000E+00 -0.17632939975E+04  0.17632939975E+04  0.00000000000E+00 0.  1.
         25    2    1    2    0    0 -0.40094283156E+02 -0.14366995730E+03 -0.12580559866E+04  0.12730286914E+04  0.12509426686E+03 0.  0.
        -24    2    1    2    0    0  0.64001383185E+01  0.13928891926E+03 -0.45986021625E+03  0.48708180653E+03  0.79592103693E+02 0.  0.
         24    2    1    2    0    0  0.33694144837E+02  0.43810380412E+01  0.50333205842E+02  0.98894499920E+02  0.78052556739E+02 0.  0.
        -13    1    5    5    0    0  0.32276724434E+02 -0.33844823468E+02  0.25212486747E+02  0.53131238492E+02  0.00000000000E+00 0.  1.
         14    1    5    5    0    0  0.14174204032E+01  0.38225861509E+02  0.25120719094E+02  0.45763261428E+02  0.00000000000E+00 0. -1.
         13    1    4    4    0    0  0.63579729799E+01  0.13768709813E+02 -0.17668011734E+03  0.17732981998E+03  0.00000000000E+00 0. -1.
        -14    1    4    4    0    0  0.42165338643E-01  0.12552020945E+03 -0.28318009890E+03  0.30975198655E+03  0.00000000000E+00 0.  1.
          5    1    3    3  501    0 -0.48146846495E+02 -0.66987116156E+01 -0.52252718457E+03  0.52480007868E+03  0.41800000000E+01 0.  1.
         -5    1    3    3    0  501  0.80525633393E+01 -0.13697124569E+03 -0.73552880205E+03  0.74822861277E+03  0.41800000000E+01 0.  1.
</event>
<event>
11    1  0.2450992E-009  0.2441556E+03  0.7561462E-02  0.1027059E+00
         22   -1    0    0    0    0  0.00000000000E+00  0.00000000000E+00  0.70139292121E+02  0.70139292121E+02  0.00000000000E+00 0.  1.
         22   -1    0    0    0    0 -0.00000000000E+00 -0.00000000000E+00 -0.20599107230E+04  0.20599107230E+04  0.00000000000E+00 0.  1.
         25    2    1    2    0    0 -0.18671993357E+03 -0.10278215863E+03 -0.14654689146E+04  0.14861607261E+04  0.12508420483E+03 0.  0.
        -24    2    1    2    0    0 -0.29084956998E+02  0.10117659498E+03 -0.28159450177E+03  0.31039528123E+03  0.77247194698E+02 0.  0.
         24    2    1    2    0    0  0.21580489057E+03  0.16055636579E+01 -0.24270801451E+03  0.33349400783E+03  0.75741298672E+02 0.  0.
        -11    1    5    5    0    0  0.10423370169E+03  0.38012378421E+02 -0.10802386321E+03  0.15485076850E+03  0.00000000000E+00 0.  1.
         12    1    5    5    0    0  0.11157118888E+03 -0.36406814763E+02 -0.13468415129E+03  0.17864323933E+03  0.00000000000E+00 0. -1.
         11    1    4    4    0    0 -0.11874952281E+02  0.10904003839E+03 -0.21788965761E+03  0.24393984372E+03  0.00000000000E+00 0. -1.
        -12    1    4    4    0    0 -0.17210004716E+02 -0.78634434109E+01 -0.63704844164E+02  0.66455437509E+02  0.00000000000E+00 0.  1.
          5    1    3    3  501    0 -0.13317967488E+03 -0.10057367295E+02 -0.97566289146E+03  0.98477079902E+03  0.41800000000E+01 0.  1.
         -5    1    3    3    0  501 -0.53540258695E+02 -0.92724791340E+02 -0.48980602318E+03  0.50138992708E+03  0.41800000000E+01 0.  1.
</event>
<event>
11    1  0.2450992E-009  0.6367674E+03  0.7561462E-02  0.9131054E-01
         22   -1    0    0    0    0  0.00000000000E+00  0.00000000000E+00  0.88244664514E+03  0.88244664514E+03  0.00000000000E+00 0.  1.
         22   -1    0    0    0    0 -0.00000000000E+00 -0.00000000000E+00 -0.23927474106E+04  0.23927474106E+04  0.00000000000E+00 0.  1.
         25    2    1    2    0    0 -0.53462215485E+02  0.61797333556E+03 -0.20250656998E+04  0.21216237463E+04  0.12508789018E+03 0.  0.
         24    2    1    2    0    0 -0.10189291004E+03 -0.69994385985E+03  0.61094302386E+03  0.93797314352E+03  0.78985236024E+02 0.  0.
        -24    2    1    2    0    0  0.15535512553E+03  0.81970524281E+02 -0.96178089507E+02  0.21559716594E+03  0.79859446419E+02 0.  0.
        -13    1    4    4    0    0 -0.24511297793E+02 -0.41151017826E+03  0.37672585774E+03  0.55844767205E+03  0.00000000000E+00 0.  1.
         14    1    4    4    0    0 -0.77381612250E+02 -0.28843368159E+03  0.23421716612E+03  0.37952547147E+03  0.00000000000E+00 0. -1.
         11    1    5    5    0    0  0.13829392109E+03  0.55912527847E+02 -0.45217132583E+02  0.15587176929E+03  0.00000000000E+00 0. -1.
        -12    1    5    5    0    0  0.17061204434E+02  0.26057996434E+02 -0.50960956924E+02  0.59725396654E+02  0.00000000000E+00 0.  1.
          5    1    3    3  501    0 -0.31420747363E+02  0.71803149019E+02 -0.16184454612E+03  0.17987241335E+03  0.41800000000E+01 0.  1.
         -5    1    3    3    0  501 -0.22041468122E+02  0.54617018654E+03 -0.18632211537E+04  0.19417513329E+04  0.41800000000E+01 0.  1.
</event>
<event>
11    1  0.2450992E-009  0.3591019E+03  0.7561462E-02  0.9778788E-01
         22   -1    0    0    0    0  0.00000000000E+00  0.00000000000E+00  0.78421224853E+03  0.78421224853E+03  0.00000000000E+00 0.  1.
         22   -1    0    0    0    0 -0.00000000000E+00 -0.00000000000E+00 -0.29885248792E+03  0.29885248792E+03  0.00000000000E+00 0.  1.
         25    2    1    2    0    0 -0.17060036555E+03  0.19222836065E+03  0.22527946516E+00  0.28583597407E+03  0.12508367582E+03 0.  0.
        -24    2    1    2    0    0  0.10490019788E+03 -0.38217264987E+03  0.38713744420E+03  0.55964754574E+03  0.79183261729E+02 0.  0.
         24    2    1    2    0    0  0.65700167676E+02  0.18994428921E+03  0.97997036945E+02  0.23758121664E+03  0.80287422514E+02 0.  0.
        -11    1    5    5    0    0  0.59397045969E+02  0.14171012906E+03  0.10813625101E+03  0.18789150733E+03  0.00000000000E+00 0.  1.
         12    1    5    5    0    0  0.63031217063E+01  0.48234160155E+02 -0.10139214061E+02  0.49689709306E+02  0.00000000000E+00 0. -1.
         13    1    4    4    0    0  0.44517475869E+02 -0.22585615451E+03  0.27196502173E+03  0.35631135435E+03  0.00000000000E+00 0. -1.
        -14    1    4    4    0    0  0.60382722007E+02 -0.15631649535E+03  0.11517242246E+03  0.20333619140E+03  0.00000000000E+00 0.  1.
          5    1    3    3  501    0 -0.16521887861E+03  0.12219290675E+03  0.33070716131E+02  0.20818148087E+03  0.41800000000E+01 0. -1.
         -5    1    3    3    0  501 -0.53814869394E+01  0.70035453904E+02 -0.32845436666E+02  0.77654493205E+02  0.41800000000E+01 0. -1.
</event>
<event>
11    1  0.2450992E-009  0.1410894E+03  0.7561462E-02  0.1106348E+00
         22   -1    0    0    0    0  0.00000000000E+00  0.00000000000E+00  0.14972461118E+03  0.14972461118E+03  0.00000000000E+00 0. -1.
         22   -1    0    0    0    0 -0.00000000000E+00 -0.00000000000E+00 -0.27310840795E+03  0.27310840795E+03  0.00000000000E+00 0.  1.
         25    2    1    2    0    0 -0.60225607724E+02  0.41649881580E+02 -0.17244027192E+03  0.22526692178E+03  0.12509077586E+03 0.  0.
        -24    2    1    2    0    0  0.68418938552E+01 -0.45950210136E+02  0.11260738908E+02  0.93501190770E+02  0.80358167671E+02 0.  0.
         24    2    1    2    0    0  0.53383713868E+02  0.43003285558E+01  0.37795736254E+02  0.10406490658E+03  0.80824955127E+02 0.  0.
        -11    1    5    5    0    0 -0.57269745175E+01  0.27152899641E+02  0.28905450675E+02  0.40069979720E+02  0.00000000000E+00 0.  1.
         12    1    5    5    0    0  0.59110688386E+02 -0.22852571085E+02  0.88902855788E+01  0.63994926864E+02  0.00000000000E+00 0. -1.
         11    1    4    4    0    0  0.35641664829E+00  0.56742909632E+01  0.35605910339E+02  0.36056975218E+02  0.00000000000E+00 0. -1.
        -12    1    4    4    0    0  0.64854772069E+01 -0.51624501099E+02 -0.24345171431E+02  0.57444215552E+02  0.00000000000E+00 0.  1.
          5    1    3    3  501    0  0.29844582249E+02  0.22876166134E+02 -0.10998302931E+02  0.39401181885E+02  0.41800000000E+01 0.  1.
         -5    1    3    3    0  501 -0.90070189972E+02  0.18773715447E+02 -0.16144196899E+03  0.18586573989E+03  0.41800000000E+01 0.  1.
</event>
<event>
11    1  0.2450992E-009  0.3856993E+03  0.7561462E-02  0.9692921E-01
         22   -1    0    0    0    0  0.00000000000E+00  0.00000000000E+00  0.53280895703E+03  0.53280895703E+03  0.00000000000E+00 0.  1.
         22   -1    0    0    0    0 -0.00000000000E+00 -0.00000000000E+00 -0.13391967846E+04  0.13391967846E+04  0.00000000000E+00 0.  1.
         25    2    1    2    0    0  0.32551128504E+02 -0.71667975121E+01 -0.78636122157E+03  0.79694446450E+03  0.12508225192E+03 0.  0.
         24    2    1    2    0    0  0.29297502370E+03  0.20415896031E+03 -0.39230634874E+03  0.53681344169E+03  0.82153236897E+02 0.  0.
        -24    2    1    2    0    0 -0.32552615221E+03 -0.19699216280E+03  0.37227974274E+03  0.53824783544E+03  0.79657626933E+02 0.  0.
        -11    1    4    4    0    0  0.20404112690E+03  0.10082870551E+03 -0.21439303081E+03  0.31267168241E+03  0.00000000000E+00 0.  1.
         12    1    4    4    0    0  0.88933896802E+02  0.10333025480E+03 -0.17791331793E+03  0.22414175928E+03  0.00000000000E+00 0. -1.
         13    1    5    5    0    0 -0.19606799686E+02 -0.14433310143E+02  0.59070141291E+02  0.63890755417E+02  0.00000000000E+00 0. -1.
        -14    1    5    5    0    0 -0.30591935252E+03 -0.18255885266E+03  0.31320960144E+03  0.47435708002E+03  0.00000000000E+00 0.  1.
          5    1    3    3  501    0  0.28609628936E+02  0.13837807942E+01 -0.34595506357E+02  0.45108171956E+02  0.41800000000E+01 0.  1.
         -5    1    3    3    0  501  0.39414995682E+01 -0.85505783064E+01 -0.75176571522E+03  0.75183629254E+03  0.41800000000E+01 0.  1.
</event>
<event>
11    1  0.2450992E-009  0.2391958E+03  0.7561462E-02  0.1029817E+00
         22   -1    0    0    0    0  0.00000000000E+00  0.00000000000E+00  0.76887413756E+03  0.76887413756E+03  0.00000000000E+00 0. -1.
         22   -1    0    0    0    0 -0.00000000000E+00 -0.00000000000E+00 -0.11395091135E+04  0.11395091135E+04  0.00000000000E+00 0. -1.
         25    2    1    2    0    0 -0.31494668242E+02 -0.20715409356E+03 -0.45019147273E+03  0.51207822025E+03  0.12508800476E+03 0.  0.
        -24    2    1    2    0    0  0.25026322407E+02  0.19909876840E+03 -0.63813330562E+03  0.67361426642E+03  0.79217597707E+02 0.  0.
         24    2    1    2    0    0  0.64683458346E+01  0.80553251570E+01  0.71768980237E+03  0.72269076444E+03  0.84241087498E+02 0.  0.
        -11    1    5    5    0    0  0.28403051126E+02  0.29093071550E+02  0.19899250255E+03  0.20310380645E+03  0.00000000000E+00 0.  1.
         12    1    5    5    0    0 -0.21934705292E+02 -0.21037746393E+02  0.51869729982E+03  0.51958695799E+03  0.00000000000E+00 0. -1.
         11    1    4    4    0    0  0.49424147774E+02  0.14051330636E+03 -0.38950353139E+03  0.41701287344E+03  0.00000000000E+00 0. -1.
        -12    1    4    4    0    0 -0.24397825366E+02  0.58585462041E+02 -0.24862977423E+03  0.25660139298E+03  0.00000000000E+00 0.  1.
          5    1    3    3  501    0 -0.78639723426E+02 -0.10737721285E+03 -0.23073795030E+03  0.26640485365E+03  0.41800000000E+01 0. -1.
         -5    1    3    3    0  501  0.47145055184E+02 -0.99776880709E+02 -0.21945352242E+03  0.24567336660E+03  0.41800000000E+01 0. -1.
</event>
<event>
11    1  0.2450992E-009  0.1450247E+04  0.7561462E-02  0.8339506E-01
         22   -1    0    0    0    0  0.00000000000E+00  0.00000000000E+00  0.26327834312E+04  0.26327834312E+04  0.00000000000E+00 0. -1.
         22   -1    0    0    0    0 -0.00000000000E+00 -0.00000000000E+00 -0.29349696650E+04  0.29349696650E+04  0.00000000000E+00 0. -1.
         25    2    1    2    0    0 -0.11089217592E+04 -0.86193743279E+03 -0.20509056670E+04  0.24888763446E+04  0.12509115836E+03 0.  0.
         24    2    1    2    0    0  0.13259481538E+04  0.95527305518E+03  0.36963143648E+03  0.16773777891E+04  0.79269993543E+02 0.  0.
        -24    2    1    2    0    0 -0.21702639463E+03 -0.93335622390E+02  0.13790879968E+04  0.14014989625E+04  0.80645178227E+02 0.  0.
        -11    1    4    4    0    0  0.81504830364E+03  0.56651041449E+03  0.18861565838E+03  0.10103532321E+04  0.00000000000E+00 0.  1.
         12    1    4    4    0    0  0.51089985016E+03  0.38876264069E+03  0.18101577810E+03  0.66702455698E+03  0.00000000000E+00 0. -1.
         11    1    5    5    0    0 -0.48551157286E+01 -0.14106143936E+02  0.29695892832E+02  0.33232536716E+02  0.00000000000E+00 0. -1.
        -12    1    5    5    0    0 -0.21217127891E+03 -0.79229478454E+02  0.13493921039E+04  0.13682664258E+04  0.00000000000E+00 0.  1.
          5    1    3    3  501    0 -0.95983213294E+03 -0.77026345827E+03 -0.17263573788E+04  0.21201204660E+04  0.41800000000E+01 0. -1.
         -5    1    3    3    0  501 -0.14908962623E+03 -0.91673974522E+02 -0.32454828824E+03  0.36875587867E+03  0.41800000000E+01 0. -1.
</event>
<event>
11    1  0.2450992E-009  0.7034829E+03  0.7561462E-02  0.9027188E-01
         22   -1    0    0    0    0  0.00000000000E+00  0.00000000000E+00  0.41230697367E+03  0.41230697367E+03  0.00000000000E+00 0. -1.
         22   -1    0    0    0    0 -0.00000000000E+00 -0.00000000000E+00 -0.20199002940E+04  0.20199002940E+04  0.00000000000E+00 0. -1.
         25    2    1    2    0    0 -0.55976854877E+03  0.36010922728E+03 -0.45627526176E+03  0.81661088174E+03  0.12508690547E+03 0.  0.
         24    2    1    2    0    0  0.60053204487E+03 -0.37116521680E+03 -0.12761498483E+04  0.14607509218E+04  0.82658726054E+02 0.  0.
        -24    2    1    2    0    0 -0.40763496096E+02  0.11055989515E+02  0.12483178974E+03  0.15484546417E+03  0.81303410310E+02 0.  0.
        -13    1    4    4    0    0  0.10619954697E+02 -0.24064581154E+02 -0.44280659896E+02  0.51504022607E+02  0.00000000000E+00 0.  1.
         14    1    4    4    0    0  0.58991209017E+03 -0.34710063564E+03 -0.12318691884E+04  0.14092468991E+04  0.00000000000E+00 0. -1.
         11    1    5    5    0    0 -0.61625605018E+02  0.24866637827E+02  0.94505837024E+02  0.11553102658E+03  0.00000000000E+00 0. -1.
        -12    1    5    5    0    0  0.20862108922E+02 -0.13810648312E+02  0.30325952712E+02  0.39314437594E+02  0.00000000000E+00 0.  1.
          5    1    3    3  501    0 -0.53651310912E+03  0.35682816307E+03 -0.46101342456E+03  0.79229003795E+03  0.41800000000E+01 0. -1.
         -5    1    3    3    0  501 -0.23255439655E+02  0.32810642133E+01  0.47381628019E+01  0.24320843790E+02  0.41800000000E+01 0. -1.
</event>
<event>
11    1  0.2450992E-009  0.2664810E+03  0.7561462E-02  0.1015468E+00
         22   -1    0    0    0    0  0.00000000000E+00  0.00000000000E+00  0.49760228787E+03  0.49760228787E+03  0.00000000000E+00 0.  1.
         22   -1    0    0    0    0 -0.00000000000E+00 -0.00000000000E+00 -0.90234986245E+03  0.90234986245E+03  0.00000000000E+00 0.  1.
         25    2    1    2    0    0 -0.11005260234E+03  0.22259369114E+03 -0.75832647707E+03  0.80769162337E+03  0.12508871261E+03 0.  0.
        -24    2    1    2    0    0  0.92040182941E+02 -0.16338935015E+03 -0.23074829488E+02  0.20509842196E+03  0.79783707079E+02 0.  0.
         24    2    1    2    0    0  0.18012419401E+02 -0.59204340985E+02  0.37665373198E+03  0.38716210499E+03  0.64783180555E+02 0.  0.
        -11    1    5    5    0    0  0.90230072570E+01 -0.42659335747E+02  0.35804027529E+03  0.36068555879E+03  0.00000000000E+00 0.  1.
         12    1    5    5    0    0  0.89894121444E+01 -0.16545005238E+02  0.18613456687E+02  0.26476546203E+02  0.00000000000E+00 0. -1.
         11    1    4    4    0    0  0.39675209672E+02 -0.10090448853E+03  0.23872502280E+02  0.11102132423E+03  0.00000000000E+00 0. -1.
        -12    1    4    4    0    0  0.52364973269E+02 -0.62484861621E+02 -0.46947331768E+02  0.94077097731E+02  0.00000000000E+00 0.  1.
          5    1    3    3  501    0 -0.70385518283E+02  0.17982489090E+03 -0.69565282342E+03  0.72197052274E+03  0.41800000000E+01 0. -1.
         -5    1    3    3    0  501 -0.39667084060E+02  0.42768800241E+02 -0.62673653644E+02  0.85721100628E+02  0.41800000000E+01 0. -1.
</event>
<event>
11    1  0.2450992E-009  0.1660382E+03  0.7561462E-02  0.1081532E+00
         22   -1    0    0    0    0  0.00000000000E+00  0.00000000000E+00  0.15739157049E+03  0.15739157049E+03  0.00000000000E+00 0.  1.
         22   -1    0    0    0    0 -0.00000000000E+00 -0.00000000000E+00 -0.35366861050E+03  0.35366861050E+03  0.00000000000E+00 0. -1.
         25    2    1    2    0    0 -0.79195010790E+02 -0.67218489722E+00 -0.11586226423E+03  0.18799896500E+03  0.12508894837E+03 0.  0.
         24    2    1    2    0    0  0.14072010401E+03  0.30580901853E+02 -0.12735246832E+03  0.20832370177E+03  0.80266894181E+02 0.  0.
        -24    2    1    2    0    0 -0.61525093221E+02 -0.29908716956E+02  0.46937692550E+02  0.11473751421E+03  0.79257061137E+02 0.  0.
        -13    1    4    4    0    0  0.10805631115E+03  0.51313261177E+02 -0.68358508530E+02  0.13777555241E+03  0.00000000000E+00 0.  1.
         14    1    4    4    0    0  0.32663792859E+02 -0.20732359324E+02 -0.58993959792E+02  0.70548149366E+02  0.00000000000E+00 0. -1.
         13    1    5    5    0    0  0.48067936765E+01  0.58084746838E+01 -0.15274503094E+02  0.17033909956E+02  0.00000000000E+00 0. -1.
        -14    1    5    5    0    0 -0.66331886898E+02 -0.35717191639E+02  0.62212195644E+02  0.97703604257E+02  0.00000000000E+00 0.  1.
          5    1    3    3  501    0 -0.22017294046E+00 -0.82372629511E+01 -0.10774334519E+03  0.10813880807E+03  0.41800000000E+01 0.  1.
         -5    1    3    3    0  501 -0.78974837849E+02  0.75650780539E+01 -0.81189190355E+01  0.79860156934E+02  0.41800000000E+01 0.  1.
</event>
<event>
11    1  0.2450992E-009  0.5028826E+03  0.7561462E-02  0.9387103E-01
         22   -1    0    0    0    0  0.00000000000E+00  0.00000000000E+00  0.73363419436E+03  0.73363419436E+03  0.00000000000E+00 0. -1.
         22   -1    0    0    0    0 -0.00000000000E+00 -0.00000000000E+00 -0.23623237788E+04  0.23623237788E+04  0.00000000000E+00 0. -1.
         25    2    1    2    0    0  0.25600492562E+03  0.40018835100E+03 -0.19104268644E+04  0.19725790203E+04  0.12509176245E+03 0.  0.
         24    2    1    2    0    0  0.31769013084E+03  0.55096778478E+02 -0.72823054503E+01  0.33188832025E+03  0.78320820426E+02 0.  0.
        -24    2    1    2    0    0 -0.57369505646E+03 -0.45528512948E+03  0.28901958548E+03  0.79149063252E+03  0.80712661000E+02 0.  0.
        -11    1    4    4    0    0  0.12543514918E+02  0.20772597410E+02  0.40825626009E+01  0.24607069859E+02  0.00000000000E+00 0.  1.
         12    1    4    4    0    0  0.30514661592E+03  0.34324181068E+02 -0.11364868051E+02  0.30728125039E+03  0.00000000000E+00 0. -1.
         13    1    5    5    0    0 -0.31377534118E+03 -0.21966025987E+03  0.11522294166E+03  0.39997740034E+03  0.00000000000E+00 0. -1.
        -14    1    5    5    0    0 -0.25991971529E+03 -0.23562486960E+03  0.17379664382E+03  0.39151323218E+03  0.00000000000E+00 0.  1.
          5    1    3    3  501    0  0.99778195021E+01 -0.27307353930E+01 -0.13476670202E+03  0.13522777145E+03  0.41800000000E+01 0. -1.
         -5    1    3    3    0  501  0.24602710612E+03  0.40291908639E+03 -0.17756601624E+04  0.18373512489E+04  0.41800000000E+01 0. -1.
</event>
<event>
11    1  0.2450992E-009  0.7216390E+03  0.7561462E-02  0.9001010E-01
         22   -1    0    0    0    0  0.00000000000E+00  0.00000000000E+00  0.52739638058E+03  0.52739638058E+03  0.00000000000E+00 0.  1.
         22   -1    0    0    0    0 -0.00000000000E+00 -0.00000000000E+00 -0.16277705214E+04  0.16277705214E+04  0.00000000000E+00 0.  1.
         25    2    1    2    0    0 -0.70265025248E+03 -0.12070288938E+03 -0.11160527602E+04  0.13302283767E+04  0.12508879091E+03 0.  0.
        -24    2    1    2    0    0  0.68247719272E+03  0.18029865258E+03 -0.48013416808E+02  0.71169116010E+03  0.76917465241E+02 0.  0.
         24    2    1    2    0    0  0.20173059757E+02 -0.59595763193E+02  0.63692036215E+02  0.11324736525E+03  0.69351877604E+02 0.  0.
        -13    1    5    5    0    0  0.15995666722E+02 -0.73731593818E+02  0.63329142183E+02  0.98502738695E+02  0.00000000000E+00 0.  1.
         14    1    5    5    0    0  0.41773930358E+01  0.14135830625E+02  0.36289403168E+00  0.14744626550E+02  0.00000000000E+00 0. -1.
         13    1    4    4    0    0  0.18443366772E+03  0.31459958756E+02 -0.42452858405E+02  0.19185346486E+03  0.00000000000E+00 0. -1.
        -14    1    4    4    0    0  0.49804352501E+03  0.14883869382E+03 -0.55605584032E+01  0.51983769524E+03  0.00000000000E+00 0.  1.
          5    1    3    3  501    0 -0.68864885162E+03 -0.10485376217E+03 -0.10443476688E+04  0.12553529695E+04  0.41800000000E+01 0. -1.
         -5    1    3    3    0  501 -0.14001400857E+02 -0.15849127217E+02 -0.71705091465E+02  0.74875407187E+02  0.41800000000E+01 0. -1.
</event>
<event>
11    1  0.2450992E-009  0.1385421E+03  0.7561462E-02  0.1109197E+00
         22   -1    0    0    0    0  0.00000000000E+00  0.00000000000E+00  0.64335963618E+02  0.64335963618E+02  0.00000000000E+00 0. -1.
         22   -1    0    0    0    0 -0.00000000000E+00 -0.00000000000E+00 -0.19074039705E+04  0.19074039705E+04  0.00000000000E+00 0.  1.
         25    2    1    2    0    0  0.48252940640E+01 -0.58747669725E+02 -0.13156731167E+04  0.13229201935E+04  0.12509003254E+03 0.  0.
         24    2    1    2    0    0  0.24612015658E+02  0.59413633131E+02 -0.55133092700E+03  0.56093616848E+03  0.80918866295E+02 0.  0.
        -24    2    1    2    0    0 -0.29437309722E+02 -0.66596340617E+00  0.23936036819E+02  0.87883572124E+02  0.79269096625E+02 0.  0.
        -13    1    4    4    0    0  0.45167963497E+02  0.64076541107E+02 -0.48618821848E+03  0.49246820389E+03  0.00000000000E+00 0.  1.
         14    1    4    4    0    0 -0.20555947839E+02 -0.46629079758E+01 -0.65142708521E+02  0.68467964595E+02  0.00000000000E+00 0. -1.
         11    1    5    5    0    0 -0.15798182755E+01 -0.29019165717E+02  0.36072860479E+02  0.46323418136E+02  0.00000000000E+00 0. -1.
        -12    1    5    5    0    0 -0.27857491446E+02  0.28353202311E+02 -0.12136823660E+02  0.41560153988E+02  0.00000000000E+00 0.  1.
          5    1    3    3  501    0  0.40629216370E+01 -0.32365354400E+02 -0.74219365699E+02  0.81178877440E+02  0.41800000000E+01 0. -1.
         -5    1    3    3    0  501  0.76237242699E+00 -0.26382315325E+02 -0.12414537510E+04  0.12417413160E+04  0.41800000000E+01 0. -1.
</event>
<event>
11    1  0.2450992E-009  0.1527423E+03  0.7561462E-02  0.1094109E+00
         22   -1    0    0    0    0  0.00000000000E+00  0.00000000000E+00  0.51858396558E+03  0.51858396558E+03  0.00000000000E+00 0. -1.
         22   -1    0    0    0    0 -0.00000000000E+00 -0.00000000000E+00 -0.79922543247E+02  0.79922543247E+02  0.00000000000E+00 0.  1.
         25    2    1    2    0    0 -0.96819694055E+02 -0.10048932157E+02  0.13870635065E+03  0.21062240006E+03  0.12508920617E+03 0.  0.
         24    2    1    2    0    0  0.63680646682E+02  0.63398506424E+02  0.79883558339E+02  0.14433946599E+03  0.79861775398E+02 0.  0.
        -24    2    1    2    0    0  0.33139047373E+02 -0.53349574267E+02  0.22007151334E+03  0.24354464278E+03  0.83295549149E+02 0.  0.
        -11    1    4    4    0    0  0.35985127776E+01 -0.11194266806E+02  0.38043074331E+02  0.39818794659E+02  0.00000000000E+00 0.  1.
         12    1    4    4    0    0  0.60082133904E+02  0.74592773230E+02  0.41840484008E+02  0.10452067133E+03  0.00000000000E+00 0. -1.
         11    1    5    5    0    0  0.30780399370E+01 -0.69882274977E+02  0.14366586273E+03  0.15979013361E+03  0.00000000000E+00 0. -1.
        -12    1    5    5    0    0  0.30061007436E+02  0.16532700710E+02  0.76405650613E+02  0.83754509171E+02  0.00000000000E+00 0.  1.
          5    1    3    3  501    0 -0.17522548378E+02  0.18280230700E+02 -0.18906696407E+02  0.31876983940E+02  0.41800000000E+01 0. -1.
         -5    1    3    3    0  501 -0.79297145677E+02 -0.28329162857E+02  0.15761304706E+03  0.17874541612E+03  0.41800000000E+01 0. -1.
</event>
<event>
11    1  0.2450992E-009  0.1892003E+03  0.7561462E-02  0.1062435E+00
         22   -1    0    0    0    0  0.00000000000E+00  0.00000000000E+00  0.22158632543E+04  0.22158632543E+04  0.00000000000E+00 0. -1.
         22   -1    0    0    0    0 -0.00000000000E+00 -0.00000000000E+00 -0.91254470065E+02  0.91254470065E+02  0.00000000000E+00 0. -1.
         25    2    1    2    0    0 -0.68896507167E+02 -0.12433348023E+03  0.64618548554E+02  0.20007128066E+03  0.12508963796E+03 0.  0.
         24    2    1    2    0    0 -0.70433120282E+02  0.87072586055E+02  0.21791437190E+03  0.25750846535E+03  0.79255766808E+02 0.  0.
        -24    2    1    2    0    0  0.13932962745E+03  0.37260894171E+02  0.18420758638E+04  0.18495379783E+04  0.82134804532E+02 0.  0.
        -13    1    4    4    0    0 -0.63799405498E+02  0.10183891392E+03  0.18175384368E+03  0.21788985342E+03  0.00000000000E+00 0.  1.
         14    1    4    4    0    0 -0.66337147840E+01 -0.14766327864E+02  0.36160528217E+02  0.39618611932E+02  0.00000000000E+00 0. -1.
         11    1    5    5    0    0  0.10830197842E+03  0.36318184327E+02  0.17121107982E+04  0.17159171642E+04  0.00000000000E+00 0. -1.
        -12    1    5    5    0    0  0.31027649026E+02  0.94270984374E+00  0.12996506560E+03  0.13362081418E+03  0.00000000000E+00 0.  1.
          5    1    3    3  501    0  0.57427126302E+01 -0.11182784006E+03  0.50783867030E+02  0.12302405501E+03  0.41800000000E+01 0. -1.
         -5    1    3    3    0  501 -0.74639219797E+02 -0.12505640167E+02  0.13834681524E+02  0.77047225653E+02  0.41800000000E+01 0. -1.
</event>
<event>
11    1  0.2450992E-009  0.1766261E+03  0.7561462E-02  0.1072405E+00
         22   -1    0    0    0    0  0.00000000000E+00  0.00000000000E+00  0.20825220832E+03  0.20825220832E+03  0.00000000000E+00 0.  1.
         22   -1    0    0    0    0 -0.00000000000E+00 -0.00000000000E+00 -0.57340836623E+03  0.57340836623E+03  0.00000000000E+00 0.  1.
         25    2    1    2    0    0  0.12329883472E+02  0.11322747773E+03 -0.39316197558E+03  0.42801200880E+03  0.12508178482E+03 0.  0.
        -24    2    1    2    0    0  0.68081711523E+02 -0.14918036852E+02 -0.10760194316E+03  0.15072555417E+03  0.79261259397E+02 0.  0.
         24    2    1    2    0    0 -0.80411594994E+02 -0.98309440883E+02  0.13560776083E+03  0.20292301157E+03  0.81593584623E+02 0.  0.
        -13    1    5    5    0    0 -0.11216608821E+02 -0.74577848857E+02  0.86785435734E+02  0.11497556136E+03  0.00000000000E+00 0.  1.
         14    1    5    5    0    0 -0.69194986174E+02 -0.23731592026E+02  0.48822325098E+02  0.87947450217E+02  0.00000000000E+00 0. -1.
         13    1    4    4    0    0  0.69736238134E+02 -0.13632786034E+02 -0.37036950232E+02  0.80129466781E+02  0.00000000000E+00 0. -1.
        -14    1    4    4    0    0 -0.16545266114E+01 -0.12852508175E+01 -0.70564992927E+02  0.70596087390E+02  0.00000000000E+00 0.  1.
          5    1    3    3  501    0 -0.37480685546E+02  0.10525070428E+03 -0.32063009494E+03  0.33956390080E+03  0.41800000000E+01 0.  1.
         -5    1    3    3    0  501  0.49810569017E+02  0.79767734555E+01 -0.72531880637E+02  0.88448108003E+02  0.41800000000E+01 0.  1.
</event>
<event>
11    1  0.2450992E-009  0.3297337E+03  0.7561462E-02  0.9883375E-01
         22   -1    0    0    0    0  0.00000000000E+00  0.00000000000E+00  0.26387580814E+04  0.26387580814E+04  0.00000000000E+00 0.  1.
         22   -1    0    0    0    0 -0.00000000000E+00 -0.00000000000E+00 -0.50812063358E+03  0.50812063358E+03  0.00000000000E+00 0. -1.
         25    2    1    2    0    0 -0.15051206274E+03  0.26267735441E+03 -0.42162670410E+03  0.53392007247E+03  0.12509313581E+03 0.  0.
        -24    2    1    2    0    0  0.20345641134E+03 -0.29015533650E+03  0.11204216198E+04  0.11776134313E+04  0.76447085525E+02 0.  0.
         24    2    1    2    0    0 -0.52944348607E+02  0.27477982084E+02  0.14318425321E+04  0.14353452112E+04  0.80527603708E+02 0.  0.
        -11    1    5    5    0    0 -0.55722214561E+01  0.46585414660E+02  0.53687897297E+03  0.53892511736E+03  0.00000000000E+00 0.  1.
         12    1    5    5    0    0 -0.47372127151E+02 -0.19107432575E+02  0.89496355911E+03  0.89642009379E+03  0.00000000000E+00 0. -1.
         13    1    4    4    0    0  0.12749224846E+03 -0.11537383405E+03  0.53565739350E+03  0.56257820631E+03  0.00000000000E+00 0. -1.
        -14    1    4    4    0    0  0.75964162880E+02 -0.17478150245E+03  0.58476422633E+03  0.61503522504E+03  0.00000000000E+00 0.  1.
          5    1    3    3  501    0 -0.10981831376E+03  0.14959397189E+03 -0.15648801086E+03  0.24278465439E+03  0.41800000000E+01 0. -1.
         -5    1    3    3    0  501 -0.40693748975E+02  0.11308338252E+03 -0.26513869324E+03  0.29113541808E+03  0.41800000000E+01 0. -1.
</event>
<event>
11    1  0.2450992E-009  0.2491231E+03  0.7561462E-02  0.1024367E+00
         22   -1    0    0    0    0  0.00000000000E+00  0.00000000000E+00  0.11683931524E+04  0.11683931524E+04  0.00000000000E+00 0. -1.
         22   -1    0    0    0    0 -0.00000000000E+00 -0.00000000000E+00 -0.19498942602E+03  0.19498942602E+03  0.00000000000E+00 0. -1.
         25    2    1    2    0    0  0.21557039770E+03 -0.61015569798E+02  0.19568502732E+02  0.25735153282E+03  0.12511350455E+03 0.  0.
         24    2    1    2    0    0 -0.13222617272E+03 -0.20452927756E+03  0.33023111202E+03  0.41817067098E+03  0.80611020301E+02 0.  0.
        -24    2    1    2    0    0 -0.83344224981E+02  0.26554484736E+03  0.62360411164E+03  0.68786037463E+03  0.82519580303E+02 0.  0.
        -13    1    4    4    0    0 -0.80790269721E+02 -0.93416362025E+02  0.22524256348E+03  0.25688109463E+03  0.00000000000E+00 0.  1.
         14    1    4    4    0    0 -0.51435903001E+02 -0.11111291553E+03  0.10498854854E+03  0.16128957636E+03  0.00000000000E+00 0. -1.
         11    1    5    5    0    0 -0.74659683672E+02  0.20348154694E+03  0.39204555503E+03  0.44797156777E+03  0.00000000000E+00 0. -1.
        -12    1    5    5    0    0 -0.86845413087E+01  0.62063300414E+02  0.23155855661E+03  0.23988880686E+03  0.00000000000E+00 0.  1.
          5    1    3    3  501    0  0.21752044343E+03 -0.31178588811E+02 -0.27596536957E+01  0.21980067288E+03  0.41800000000E+01 0.  1.
         -5    1    3    3    0  501 -0.19500457235E+01 -0.29836980987E+02  0.22328156428E+02  0.37550859939E+02  0.41800000000E+01 0.  1.
</event>
<event>
11    1  0.2450992E-009  0.2110502E+03  0.7561462E-02  0.1046973E+00
         22   -1    0    0    0    0  0.00000000000E+00  0.00000000000E+00  0.11939976608E+04  0.11939976608E+04  0.00000000000E+00 0.  1.
         22   -1    0    0    0    0 -0.00000000000E+00 -0.00000000000E+00 -0.68219335503E+03  0.68219335503E+03  0.00000000000E+00 0.  1.
         25    2    1    2    0    0  0.13444182524E+03 -0.23791973953E+02 -0.54214938916E+03  0.57289805373E+03  0.12508220257E+03 0.  0.
        -24    2    1    2    0    0  0.85091934236E+01 -0.69316998890E+02 -0.92726901063E+02  0.14124681832E+03  0.80468209856E+02 0.  0.
         24    2    1    2    0    0 -0.14295101867E+03  0.93108972843E+02  0.11466805960E+04  0.11620461438E+04  0.79815891339E+02 0.  0.
        -13    1    5    5    0    0 -0.14412481801E+03  0.85766317600E+02  0.11392685068E+04  0.11515470268E+04  0.00000000000E+00 0.  1.
         14    1    5    5    0    0  0.11737993459E+01  0.73426552428E+01  0.74120892019E+01  0.10499116975E+02  0.00000000000E+00 0. -1.
         11    1    4    4    0    0  0.25967649162E+02 -0.68221200401E+02 -0.35048946057E+02  0.80974561480E+02  0.00000000000E+00 0. -1.
        -12    1    4    4    0    0 -0.17458455738E+02 -0.10957984888E+01 -0.57677955006E+02  0.60272256842E+02  0.00000000000E+00 0.  1.
          5    1    3    3  501    0  0.34408933351E+02 -0.27188748408E+02 -0.35889767157E+02  0.56822095358E+02  0.41800000000E+01 0.  1.
         -5    1    3    3    0  501  0.10003289189E+03  0.33967744550E+01 -0.50625962200E+03  0.51607595837E+03  0.41800000000E+01 0.  1.
</event>
<event>
11    1  0.2450992E-009  0.2467130E+03  0.7561462E-02  0.1025665E+00
         22   -1    0    0    0    0  0.00000000000E+00  0.00000000000E+00  0.28663718356E+03  0.28663718356E+03  0.00000000000E+00 0. -1.
         22   -1    0    0    0    0 -0.00000000000E+00 -0.00000000000E+00 -0.57385596385E+03  0.57385596385E+03  0.00000000000E+00 0.  1.
         25    2    1    2    0    0  0.17483330223E+03  0.45098322286E+02 -0.30019065911E+03  0.37197111780E+03  0.12509012119E+03 0.  0.
        -24    2    1    2    0    0  0.52065164596E+01  0.81514613038E+02 -0.15977609277E+03  0.19724495828E+03  0.81886713163E+02 0.  0.
         24    2    1    2    0    0 -0.18003981869E+03 -0.12661293532E+03  0.17274797158E+03  0.29127707133E+03  0.80964800316E+02 0.  0.
        -13    1    5    5    0    0  0.54912615825E+01 -0.13504096327E+02  0.15752650998E+01  0.14662742973E+02  0.00000000000E+00 0.  1.
         14    1    5    5    0    0 -0.18553108028E+03 -0.11310883900E+03  0.17117270648E+03  0.27661432836E+03  0.00000000000E+00 0. -1.
         13    1    4    4    0    0 -0.11684782100E+02  0.16029207213E+02  0.38387366173E+01  0.20204096501E+02  0.00000000000E+00 0. -1.
        -14    1    4    4    0    0  0.16891298560E+02  0.65485405825E+02 -0.16361482939E+03  0.17704086178E+03  0.00000000000E+00 0.  1.
          5    1    3    3  501    0  0.16988342627E+03  0.12592016432E+02 -0.18242694270E+03  0.24963172719E+03  0.41800000000E+01 0.  1.
         -5    1    3    3    0  501  0.49498759681E+01  0.32506305854E+02 -0.11776371640E+03  0.12233939060E+03  0.41800000000E+01 0.  1.
</event>
<event>
11    1  0.2450992E-009  0.3237618E+03  0.7561462E-02  0.9906077E-01
         22   -1    0    0    0    0  0.00000000000E+00  0.00000000000E+00  0.64573220551E+03  0.64573220551E+03  0.00000000000E+00 0. -1.
         22   -1    0    0    0    0 -0.00000000000E+00 -0.00000000000E+00 -0.28892756323E+03  0.28892756323E+03  0.00000000000E+00 0. -1.
         25    2    1    2    0    0 -0.28624260462E+03 -0.14398455519E+02  0.25623342504E+02  0.31376127436E+03  0.12508971733E+03 0.  0.
        -24    2    1    2    0    0  0.29990870623E+03  0.12326654924E+03  0.94084782161E+02  0.34781294462E+03  0.83558506289E+02 0.  0.
         24    2    1    2    0    0 -0.13666101610E+02 -0.10886809372E+03  0.23709651762E+03  0.27308554977E+03  0.79510594668E+02 0.  0.
        -11    1    5    5    0    0 -0.91128172489E+01 -0.10124643315E+02  0.11586410899E+03  0.11666209150E+03  0.00000000000E+00 0.  1.
         12    1    5    5    0    0 -0.45532843614E+01 -0.98743450409E+02  0.12123240862E+03  0.15642345827E+03  0.00000000000E+00 0. -1.
         11    1    4    4    0    0  0.24107741037E+03  0.80026056291E+02  0.10331362428E+03  0.27421924156E+03  0.00000000000E+00 0. -1.
        -12    1    4    4    0    0  0.58831295863E+02  0.43240492951E+02 -0.92288421241E+01  0.73593703063E+02  0.00000000000E+00 0.  1.
          5    1    3    3  501    0 -0.35267247359E+02 -0.20798270133E+02 -0.36598299832E+02  0.55074991851E+02  0.41800000000E+01 0. -1.
         -5    1    3    3    0  501 -0.25097535726E+03  0.63998146143E+01  0.62221642337E+02  0.25868628250E+03  0.41800000000E+01 0. -1.
</event>
<event>
11    1  0.2450992E-009  0.8640208E+03  0.7561462E-02  0.8820331E-01
         22   -1    0    0    0    0  0.00000000000E+00  0.00000000000E+00  0.11193786533E+04  0.11193786533E+04  0.00000000000E+00 0.  1.
         22   -1    0    0    0    0 -0.00000000000E+00 -0.00000000000E+00 -0.10222377309E+04  0.10222377309E+04  0.00000000000E+00 0.  1.
         25    2    1    2    0    0 -0.33835128131E+03  0.80059250081E+03 -0.26066010459E+03  0.91598154683E+03  0.12509421282E+03 0.  0.
        -24    2    1    2    0    0  0.56191827136E+02 -0.85951119811E+03  0.20270788167E+03  0.88865807101E+03  0.81888099053E+02 0.  0.
         24    2    1    2    0    0  0.28215945417E+03  0.58918697298E+02  0.15509314527E+03  0.33697676633E+03  0.80087994531E+02 0.  0.
        -11    1    5    5    0    0  0.13859076039E+03 -0.99423058641E+01  0.85963285062E+02  0.16338890627E+03  0.00000000000E+00 0.  1.
         12    1    5    5    0    0  0.14356869378E+03  0.68861003162E+02  0.69129860205E+02  0.17358786006E+03  0.00000000000E+00 0. -1.
         11    1    4    4    0    0 -0.66949058947E+01 -0.51250212749E+03  0.11692440790E+03  0.52571339113E+03  0.00000000000E+00 0. -1.
        -12    1    4    4    0    0  0.62886733031E+02 -0.34700907062E+03  0.85783473763E+02  0.36294467988E+03  0.00000000000E+00 0.  1.
          5    1    3    3  501    0 -0.25486334524E+03  0.49225421157E+03 -0.20867496470E+03  0.59231093764E+03  0.41800000000E+01 0. -1.
         -5    1    3    3    0  501 -0.83487936073E+02  0.30833828925E+03 -0.51985139894E+02  0.32367060919E+03  0.41800000000E+01 0. -1.
</event>
<event>
11    1  0.2450992E-009  0.3835973E+03  0.7561462E-02  0.9699434E-01
         22   -1    0    0    0    0  0.00000000000E+00  0.00000000000E+00  0.56482113951E+03  0.56482113951E+03  0.00000000000E+00 0.  1.
         22   -1    0    0    0    0 -0.00000000000E+00 -0.00000000000E+00 -0.73113373890E+03  0.73113373890E+03  0.00000000000E+00 0.  1.
         25    2    1    2    0    0  0.18985037105E+03 -0.99606331201E+02 -0.31281881329E+03  0.39933406056E+03  0.12508995709E+03 0.  0.
        -24    2    1    2    0    0 -0.51019304065E+03  0.11360310926E+03 -0.14323743143E+02  0.52892073841E+03  0.79682951369E+02 0.  0.
         24    2    1    2    0    0  0.32034266959E+03 -0.13996778059E+02  0.16082995705E+03  0.36770007945E+03  0.80757275723E+02 0.  0.
        -11    1    5    5    0    0  0.31464187207E+03  0.84577569459E+00  0.15092867118E+03  0.34896946397E+03  0.00000000000E+00 0.  1.
         12    1    5    5    0    0  0.57007975206E+01 -0.14842553754E+02  0.99012858759E+01  0.18730615481E+02  0.00000000000E+00 0. -1.
         13    1    4    4    0    0 -0.41167522380E+03  0.11555133926E+03  0.89266339829E+01  0.42767778372E+03  0.00000000000E+00 0. -1.
        -14    1    4    4    0    0 -0.98517816852E+02 -0.19482299979E+01 -0.23250377126E+02  0.10124295469E+03  0.00000000000E+00 0.  1.
          5    1    3    3  501    0  0.12524549539E+03 -0.63415105542E+02 -0.95846708144E+02  0.17003521279E+03  0.41800000000E+01 0. -1.
         -5    1    3    3    0  501  0.64604875664E+02 -0.36191225659E+02 -0.21697210515E+03  0.22929884777E+03  0.41800000000E+01 0. -1.
</event>
<event>
11    1  0.2450992E-009  0.2639507E+03  0.7561462E-02  0.1016719E+00
         22   -1    0    0    0    0  0.00000000000E+00  0.00000000000E+00  0.74391977701E+03  0.74391977701E+03  0.00000000000E+00 0. -1.
         22   -1    0    0    0    0 -0.00000000000E+00 -0.00000000000E+00 -0.28556703442E+03  0.28556703442E+03  0.00000000000E+00 0. -1.
         25    2    1    2    0    0  0.32854782120E+02 -0.23602010375E+03 -0.16517164383E+03  0.31577453410E+03  0.12508780269E+03 0.  0.
        -24    2    1    2    0    0 -0.10455812613E+03  0.18611040291E+03  0.37405956539E+03  0.43796980792E+03  0.79545649629E+02 0.  0.
         24    2    1    2    0    0  0.71703344011E+02  0.49909700835E+02  0.24946482103E+03  0.27574246940E+03  0.78542120693E+02 0.  0.
        -11    1    5    5    0    0  0.29317945492E+00  0.30646232095E+02  0.25461622622E+02  0.39844343668E+02  0.00000000000E+00 0.  1.
         12    1    5    5    0    0  0.71410164556E+02  0.19263468740E+02  0.22400319841E+03  0.23589812574E+03  0.00000000000E+00 0. -1.
         13    1    4    4    0    0 -0.75130193359E+02  0.79314061487E+02  0.12906514699E+03  0.16909488009E+03  0.00000000000E+00 0. -1.
        -14    1    4    4    0    0 -0.29427932772E+02  0.10679634143E+03  0.24499441840E+03  0.26887492783E+03  0.00000000000E+00 0.  1.
          5    1    3    3  501    0 -0.19381802679E+02 -0.12696062091E+03 -0.14389914367E+03  0.19292249606E+03  0.41800000000E+01 0.  1.
         -5    1    3    3    0  501  0.52236584799E+02 -0.10905948284E+03 -0.21272500160E+02  0.12285203805E+03  0.41800000000E+01 0.  1.
</event>
<event>
11    1  0.2450992E-009  0.1790847E+03  0.7561462E-02  0.1070386E+00
         22   -1    0    0    0    0  0.00000000000E+00  0.00000000000E+00  0.29436210902E+03  0.29436210902E+03  0.00000000000E+00 0. -1.
         22   -1    0    0    0    0 -0.00000000000E+00 -0.00000000000E+00 -0.16702496491E+04  0.16702496491E+04  0.00000000000E+00 0. -1.
         25    2    1    2    0    0  0.99050658661E+02  0.76697541621E+02 -0.11659786313E+04  0.11793400840E+04  0.12507325540E+03 0.  0.
        -24    2    1    2    0    0 -0.12807028098E+03 -0.51708721523E+02 -0.47543928283E+03  0.50519520270E+03  0.10051811988E+03 0.  0.
         24    2    1    2    0    0  0.29019622322E+02 -0.24988820098E+02  0.26553037399E+03  0.28007647147E+03  0.80435506764E+02 0.  0.
        -11    1    5    5    0    0  0.66030240626E+01 -0.20555879342E+02  0.10470984917E+02  0.23995533489E+02  0.00000000000E+00 0.  1.
         12    1    5    5    0    0  0.22416598260E+02 -0.44329407566E+01  0.25505938907E+03  0.25608093798E+03  0.00000000000E+00 0. -1.
         11    1    4    4    0    0 -0.77328169916E+02  0.11098088495E+02 -0.32715721124E+03  0.33635495283E+03  0.00000000000E+00 0. -1.
        -12    1    4    4    0    0 -0.50742111067E+02 -0.62806810019E+02 -0.14828207159E+03  0.16884024987E+03  0.00000000000E+00 0.  1.
          5    1    3    3  501    0 -0.21053401044E+02  0.22570344164E+02 -0.46737079650E+03  0.46840751483E+03  0.41800000000E+01 0. -1.
         -5    1    3    3    0  501  0.12010405971E+03  0.54127197457E+02 -0.69860783479E+03  0.71093256916E+03  0.41800000000E+01 0. -1.
</event>
<event>
11    1  0.2450992E-009  0.3601272E+03  0.7561462E-02  0.9775332E-01
         22   -1    0    0    0    0  0.00000000000E+00  0.00000000000E+00  0.28725586854E+04  0.28725586854E+04  0.00000000000E+00 0. -1.
         22   -1    0    0    0    0 -0.00000000000E+00 -0.00000000000E+00 -0.34580767164E+03  0.34580767164E+03  0.00000000000E+00 0. -1.
         25    2    1    2    0    0  0.11003792287E+02  0.36513299984E+03 -0.11819247969E+03  0.40380596998E+03  0.12508640261E+03 0.  0.
         24    2    1    2    0    0  0.14237992866E+03 -0.27144093939E+03  0.23010587211E+03  0.39166310441E+03  0.80616668967E+02 0.  0.
        -24    2    1    2    0    0 -0.15338372095E+03 -0.93692060451E+02  0.24148376213E+04  0.24228972826E+04  0.81766354535E+02 0.  0.
        -11    1    4    4    0    0  0.10412738355E+03 -0.11217762560E+03  0.10646373414E+03  0.18644264099E+03  0.00000000000E+00 0.  1.
         12    1    4    4    0    0  0.38252545106E+02 -0.15926331379E+03  0.12364213797E+03  0.20522046342E+03  0.00000000000E+00 0. -1.
         11    1    5    5    0    0 -0.14830883301E+03 -0.99891862723E+02  0.23923824409E+04  0.23990555721E+04  0.00000000000E+00 0. -1.
        -12    1    5    5    0    0 -0.50748879357E+01  0.61998022721E+01  0.22455180399E+02  0.23841710562E+02  0.00000000000E+00 0.  1.
          5    1    3    3  501    0  0.36846541151E+02  0.85654439877E+02 -0.75134575778E+02  0.11982081431E+03  0.41800000000E+01 0.  1.
         -5    1    3    3    0  501 -0.25842748864E+02  0.27947855997E+03 -0.43057903911E+02  0.28398515567E+03  0.41800000000E+01 0.  1.
</event>
<event>
11    1  0.2450992E-009  0.1345085E+03  0.7561462E-02  0.1113850E+00
         22   -1    0    0    0    0  0.00000000000E+00  0.00000000000E+00  0.34852573133E+03  0.34852573133E+03  0.00000000000E+00 0. -1.
         22   -1    0    0    0    0 -0.00000000000E+00 -0.00000000000E+00 -0.15000404600E+04  0.15000404600E+04  0.00000000000E+00 0. -1.
         25    2    1    2    0    0 -0.36291009531E+02  0.61579771970E+01 -0.75478952712E+03  0.76596991460E+03  0.12509085405E+03 0.  0.
        -24    2    1    2    0    0  0.24616169479E+02 -0.62268586690E+02 -0.72879668284E+03  0.73624085409E+03  0.80141485022E+02 0.  0.
         24    2    1    2    0    0  0.11674840053E+02  0.56110609493E+02  0.33207148134E+03  0.34635542259E+03  0.80036914333E+02 0.  0.
        -13    1    5    5    0    0 -0.12354573938E+02 -0.32322520082E+01  0.60934526623E+01  0.14149668391E+02  0.00000000000E+00 0.  1.
         14    1    5    5    0    0  0.24029413990E+02  0.59342861501E+02  0.32597802867E+03  0.33220575420E+03  0.00000000000E+00 0. -1.
         11    1    4    4    0    0  0.48142873069E+02 -0.64216604550E+02 -0.59314521920E+03  0.59855054890E+03  0.00000000000E+00 0. -1.
        -12    1    4    4    0    0 -0.23526703590E+02  0.19480178604E+01 -0.13565146364E+03  0.13769030519E+03  0.00000000000E+00 0.  1.
          5    1    3    3  501    0  0.21192739288E+02  0.35020265066E+02 -0.54378456789E+03  0.54533905035E+03  0.41800000000E+01 0.  1.
         -5    1    3    3    0  501 -0.57483748819E+02 -0.28862287869E+02 -0.21100495923E+03  0.22063086425E+03  0.41800000000E+01 0.  1.
</event>
<event>
11    1  0.2450992E-009  0.1479175E+03  0.7561462E-02  0.1099026E+00
         22   -1    0    0    0    0  0.00000000000E+00  0.00000000000E+00  0.18874687169E+02  0.18874687169E+02  0.00000000000E+00 0.  1.
         22   -1    0    0    0    0 -0.00000000000E+00 -0.00000000000E+00 -0.31739584816E+04  0.31739584816E+04  0.00000000000E+00 0. -1.
         25    2    1    2    0    0  0.39485848568E+02 -0.13154568438E+02 -0.11840113452E+04  0.11913290254E+04  0.12509918575E+03 0.  0.
         24    2    1    2    0    0 -0.10722728275E+03 -0.51828691492E+02 -0.16727982510E+04  0.16791038543E+04  0.83377823295E+02 0.  0.
        -24    2    1    2    0    0  0.67741434180E+02  0.64983259931E+02 -0.29827419831E+03  0.32240028919E+03  0.78503013435E+02 0.  0.
        -13    1    4    4    0    0 -0.42422249802E+02  0.86030094496E+01 -0.26430103360E+03  0.26782213391E+03  0.00000000000E+00 0.  1.
         14    1    4    4    0    0 -0.64805032946E+02 -0.60431700942E+02 -0.14084972174E+04  0.14112817204E+04  0.00000000000E+00 0. -1.
         11    1    5    5    0    0 -0.87067064221E+01  0.54229525445E+01 -0.11159245676E+03  0.11206289108E+03  0.00000000000E+00 0. -1.
        -12    1    5    5    0    0  0.76448140602E+02  0.59560307386E+02 -0.18668174154E+03  0.21033739811E+03  0.00000000000E+00 0.  1.
          5    1    3    3  501    0 -0.34608917171E+02  0.25081507610E+02 -0.25672497063E+03  0.26029222446E+03  0.41800000000E+01 0.  1.
         -5    1    3    3    0  501  0.74094765739E+02 -0.38236076048E+02 -0.92728637454E+03  0.93103680090E+03  0.41800000000E+01 0.  1.
</event>
<event>
11    1  0.2450992E-009  0.3666607E+03  0.7561462E-02  0.9753595E-01
         22   -1    0    0    0    0  0.00000000000E+00  0.00000000000E+00  0.18114247909E+03  0.18114247909E+03  0.00000000000E+00 0.  1.
         22   -1    0    0    0    0 -0.00000000000E+00 -0.00000000000E+00 -0.81168368859E+03  0.81168368859E+03  0.00000000000E+00 0.  1.
         25    2    1    2    0    0 -0.24968839051E+02 -0.19819027157E+02 -0.17052790981E+03  0.21388223017E+03  0.12509837569E+03 0.  0.
        -24    2    1    2    0    0 -0.18401600116E+03 -0.11939365844E+03 -0.46018806104E+03  0.51566741904E+03  0.77608641143E+02 0.  0.
         24    2    1    2    0    0  0.20898484021E+03  0.13921268560E+03  0.17476134899E+00  0.26327651846E+03  0.79118009098E+02 0.  0.
        -13    1    5    5    0    0  0.17280854364E+03  0.12456528536E+03  0.28680079412E+02  0.21494615611E+03  0.00000000000E+00 0.  1.
         14    1    5    5    0    0  0.36176296563E+02  0.14647400240E+02 -0.28505318063E+02  0.48330362348E+02  0.00000000000E+00 0. -1.
         13    1    4    4    0    0 -0.41460041751E+02 -0.14007655029E+02 -0.38720876129E+02  0.58433344159E+02  0.00000000000E+00 0. -1.
        -14    1    4    4    0    0 -0.14255595941E+03 -0.10538600341E+03 -0.42146718491E+03  0.45723407488E+03  0.00000000000E+00 0.  1.
          5    1    3    3  501    0 -0.43728441377E+02  0.44162399532E+02 -0.82710812295E+02  0.10354247915E+03  0.41800000000E+01 0. -1.
         -5    1    3    3    0  501  0.18759602327E+02 -0.63981426689E+02 -0.87817097513E+02  0.11033975103E+03  0.41800000000E+01 0. -1.
</event>
<event>
11    1  0.2450992E-009  0.7795270E+03  0.7561462E-02  0.8922674E-01
         22   -1    0    0    0    0  0.00000000000E+00  0.00000000000E+00  0.13866646369E+04  0.13866646369E+04  0.00000000000E+00 0.  1.
         22   -1    0    0    0    0 -0.00000000000E+00 -0.00000000000E+00 -0.10955466523E+03  0.10955466523E+03  0.00000000000E+00 0. -1.
         25    2    1    2    0    0  0.81090584772E+02 -0.16776940254E+03  0.36723453129E+02  0.22741661319E+03  0.12508976208E+03 0.  0.
        -24    2    1    2    0    0 -0.17964434465E+02  0.71974048397E+02  0.34170611227E+03  0.35874836722E+03  0.80214333332E+02 0.  0.
         24    2    1    2    0    0 -0.63126150307E+02  0.95795354143E+02  0.89868040630E+03  0.91005432175E+03  0.86085626738E+02 0.  0.
        -11    1    5    5    0    0 -0.58150905100E+02  0.79485111677E+02  0.87680061612E+03  0.88231441741E+03  0.00000000000E+00 0.  1.
         12    1    5    5    0    0 -0.49752452069E+01  0.16310242466E+02  0.21879790182E+02  0.27739904337E+02  0.00000000000E+00 0. -1.
         13    1    4    4    0    0 -0.42854117475E+01  0.13373907104E+02  0.25228834610E+01  0.14268534824E+02  0.00000000000E+00 0. -1.
        -14    1    4    4    0    0 -0.13679022718E+02  0.58600141293E+02  0.33918322881E+03  0.34447983239E+03  0.00000000000E+00 0.  1.
          5    1    3    3  501    0  0.18880388794E+02 -0.83307386397E+02 -0.42876526516E+02  0.95668482978E+02  0.41800000000E+01 0. -1.
         -5    1    3    3    0  501  0.62210195979E+02 -0.84462016143E+02  0.79599979644E+02  0.13174813021E+03  0.41800000000E+01 0. -1.
</event>
<event>
11    1  0.2450992E-009  0.1574656E+03  0.7561462E-02  0.1089485E+00
         22   -1    0    0    0    0  0.00000000000E+00  0.00000000000E+00  0.77763181808E+03  0.77763181808E+03  0.00000000000E+00 0. -1.
         22   -1    0    0    0    0 -0.00000000000E+00 -0.00000000000E+00 -0.31208541830E+03  0.31208541830E+03  0.00000000000E+00 0. -1.
         25    2    1    2    0    0  0.15993447097E+03 -0.93879290843E+02 -0.21404730319E+03  0.30960544984E+03  0.12508769050E+03 0.  0.
         24    2    1    2    0    0 -0.79064002679E+02  0.47691799211E+02  0.47244260881E+02  0.13308279328E+03  0.83386962108E+02 0.  0.
        -24    2    1    2    0    0 -0.80870468287E+02  0.46187491631E+02  0.63234944209E+03  0.64702899327E+03  0.10053548721E+03 0.  0.
        -11    1    4    4    0    0 -0.68567915810E+02  0.31801254238E+01  0.53361260207E+02  0.86943063939E+02  0.00000000000E+00 0.  1.
         12    1    4    4    0    0 -0.10496086869E+02  0.44511673788E+02 -0.61169993265E+01  0.46139729341E+02  0.00000000000E+00 0. -1.
         11    1    5    5    0    0 -0.84431376180E+02  0.66752195360E+02  0.59089099533E+03  0.60061358728E+03  0.00000000000E+00 0. -1.
        -12    1    5    5    0    0  0.35609078926E+01 -0.20564703729E+02  0.41458446766E+02  0.46415405984E+02  0.00000000000E+00 0.  1.
          5    1    3    3  501    0  0.16284086207E+03 -0.10798332447E+03 -0.15719589418E+03  0.25080982092E+03  0.41800000000E+01 0. -1.
         -5    1    3    3    0  501 -0.29063911005E+01  0.14104033631E+02 -0.56851409005E+02  0.58795628917E+02  0.41800000000E+01 0. -1.
</event>
<event>
11    1  0.2450992E-009  0.2362196E+03  0.7561462E-02  0.1031507E+00
         22   -1    0    0    0    0  0.00000000000E+00  0.00000000000E+00  0.49378528092E+03  0.49378528092E+03  0.00000000000E+00 0.  1.
         22   -1    0    0    0    0 -0.00000000000E+00 -0.00000000000E+00 -0.16553946973E+03  0.16553946973E+03  0.00000000000E+00 0. -1.
         25    2    1    2    0    0 -0.74294224732E+02 -0.21122263796E+03  0.98046308542E+02  0.27458195913E+03  0.12509012369E+03 0.  0.
        -24    2    1    2    0    0  0.44407597883E+02  0.17533597950E+03  0.95514836559E+02  0.21940328457E+03  0.79372393305E+02 0.  0.
         24    2    1    2    0    0  0.29886626849E+02  0.35886658463E+02  0.13468466608E+03  0.16533950695E+03  0.83762345729E+02 0.  0.
        -13    1    5    5    0    0  0.55959163800E+02  0.88294262397E+01  0.95582776187E+02  0.11111009803E+03  0.00000000000E+00 0.  1.
         14    1    5    5    0    0 -0.26072536952E+02  0.27057232224E+02  0.39101889896E+02  0.54229408923E+02  0.00000000000E+00 0. -1.
         13    1    4    4    0    0  0.62907889417E+02  0.98911390785E+02  0.70961678259E+02  0.13702709790E+03  0.00000000000E+00 0. -1.
        -14    1    4    4    0    0 -0.18500291534E+02  0.76424588713E+02  0.24553158300E+02  0.82376186664E+02  0.00000000000E+00 0.  1.
          5    1    3    3  501    0 -0.35746649956E+02 -0.59920077147E+02  0.95528710554E+02  0.11836995214E+03  0.41800000000E+01 0. -1.
         -5    1    3    3    0  501 -0.38547574775E+02 -0.15130256081E+03  0.25175979879E+01  0.15621200700E+03  0.41800000000E+01 0. -1.
</event>
<event>
11    1  0.2450992E-009  0.2992170E+03  0.7561462E-02  0.1000523E+00
         22   -1    0    0    0    0  0.00000000000E+00  0.00000000000E+00  0.35775800066E+03  0.35775800066E+03  0.00000000000E+00 0. -1.
         22   -1    0    0    0    0 -0.00000000000E+00 -0.00000000000E+00 -0.61301730982E+03  0.61301730982E+03  0.00000000000E+00 0. -1.
         25    2    1    2    0    0  0.37801993295E+02 -0.28798216305E+02 -0.15782372538E+03  0.20691623137E+03  0.12509064934E+03 0.  0.
         24    2    1    2    0    0 -0.13600390371E+03 -0.24480846082E+03 -0.28578377868E+03  0.40813420634E+03  0.80454446207E+02 0.  0.
        -24    2    1    2    0    0  0.98201910412E+02  0.27360667713E+03  0.18834819491E+03  0.35572487277E+03  0.80999466703E+02 0.  0.
        -13    1    4    4    0    0 -0.27873737302E+02 -0.12856640054E+03 -0.14696257791E+03  0.19724163831E+03  0.00000000000E+00 0.  1.
         14    1    4    4    0    0 -0.10813016641E+03 -0.11624206028E+03 -0.13882120078E+03  0.21089256803E+03  0.00000000000E+00 0. -1.
         13    1    5    5    0    0  0.69450653319E+02  0.11239617365E+03  0.49708396349E+02  0.14116379764E+03  0.00000000000E+00 0. -1.
        -14    1    5    5    0    0  0.28751257094E+02  0.16121050348E+03  0.13863979856E+03  0.21456107513E+03  0.00000000000E+00 0.  1.
          5    1    3    3  501    0 -0.16605994691E+02  0.23286112258E+02  0.32171319762E+01  0.29083060739E+02  0.41800000000E+01 0. -1.
         -5    1    3    3    0  501  0.54407987986E+02 -0.52084328563E+02 -0.16104085735E+03  0.17783317063E+03  0.41800000000E+01 0. -1.
</event>
<event>
11    1  0.2450992E-009  0.1780682E+03  0.7561462E-02  0.1071216E+00
         22   -1    0    0    0    0  0.00000000000E+00  0.00000000000E+00  0.55968350630E+03  0.55968350630E+03  0.00000000000E+00 0.  1.
         22   -1    0    0    0    0 -0.00000000000E+00 -0.00000000000E+00 -0.17859549734E+03  0.17859549734E+03  0.00000000000E+00 0.  1.
         25    2    1    2    0    0  0.51526862390E+02  0.10731814228E+03 -0.23383517027E+02  0.17426051889E+03  0.12509092040E+03 0.  0.
         24    2    1    2    0    0 -0.67775221667E+02 -0.11708309765E+03  0.65195769081E+01  0.15760556415E+03  0.80592037707E+02 0.  0.
        -24    2    1    2    0    0  0.16248359278E+02  0.97649553726E+01  0.39795194908E+03  0.40641292060E+03  0.80289132027E+02 0.  0.
        -11    1    4    4    0    0 -0.35751902724E+02 -0.10512568773E+03 -0.21868638741E+02  0.11317175500E+03  0.00000000000E+00 0.  1.
         12    1    4    4    0    0 -0.32023318944E+02 -0.11957409917E+02  0.28388215649E+02  0.44433809153E+02  0.00000000000E+00 0. -1.
         13    1    5    5    0    0  0.31575054542E+02  0.36336063632E+02  0.29790094262E+03  0.30176524851E+03  0.00000000000E+00 0. -1.
        -14    1    5    5    0    0 -0.15326695264E+02 -0.26571108259E+02  0.10005100645E+03  0.10464767209E+03  0.00000000000E+00 0.  1.
          5    1    3    3  501    0  0.40927876951E+02  0.10558836048E+03 -0.65300371120E+02  0.13078839341E+03  0.41800000000E+01 0. -1.
         -5    1    3    3    0  501  0.10598985438E+02  0.17297817931E+01  0.41916854092E+02  0.43472125487E+02  0.41800000000E+01 0. -1.
</event>
<event>
11    1  0.2450992E-009  0.2224255E+03  0.7561462E-02  0.1039709E+00
         22   -1    0    0    0    0  0.00000000000E+00  0.00000000000E+00  0.10871278996E+04  0.10871278996E+04  0.00000000000E+00 0.  1.
         22   -1    0    0    0    0 -0.00000000000E+00 -0.00000000000E+00 -0.58753659860E+03  0.58753659860E+03  0.00000000000E+00 0. -1.
         25    2    1    2    0    0 -0.22027523244E+03  0.71880723345E+02 -0.30240394448E+03  0.40097778265E+03  0.12508804948E+03 0.  0.
        -24    2    1    2    0    0  0.15276030132E+03  0.72783538437E+02 -0.18581199941E+03  0.26975922385E+03  0.98034619403E+02 0.  0.
         24    2    1    2    0    0  0.67514931121E+02 -0.14466426178E+03  0.98780724486E+03  0.10039274917E+04  0.81371008091E+02 0.  0.
        -13    1    5    5    0    0  0.37527697578E+02 -0.14439262545E+03  0.82573057979E+03  0.83909984434E+03  0.00000000000E+00 0.  1.
         14    1    5    5    0    0  0.29987233543E+02 -0.27163632802E+00  0.16207666507E+03  0.16482764732E+03  0.00000000000E+00 0. -1.
         11    1    4    4    0    0  0.57090018713E+02 -0.99426319156E+01 -0.20186150694E+02  0.61364540623E+02  0.00000000000E+00 0. -1.
        -12    1    4    4    0    0  0.95670282611E+02  0.82726170352E+02 -0.16562584871E+03  0.20839468323E+03  0.00000000000E+00 0.  1.
          5    1    3    3  501    0 -0.13852023743E+03  0.53227373061E+02 -0.27525747864E+03  0.31273816743E+03  0.41800000000E+01 0. -1.
         -5    1    3    3    0  501 -0.81754995014E+02  0.18653350285E+02 -0.27146465848E+02  0.88239615222E+02  0.41800000000E+01 0. -1.
</event>
<event>
11    1  0.2450992E-009  0.1011918E+04  0.7561462E-02  0.8667761E-01
         22   -1    0    0    0    0  0.00000000000E+00  0.00000000000E+00  0.29761689092E+03  0.29761689092E+03  0.00000000000E+00 0. -1.
         22   -1    0    0    0    0 -0.00000000000E+00 -0.00000000000E+00 -0.41236522196E+04  0.41236522196E+04  0.00000000000E+00 0. -1.
         25    2    1    2    0    0 -0.76559276470E+03 -0.54402616166E+03 -0.13613758780E+04  0.16586410623E+04  0.12509654919E+03 0.  0.
        -24    2    1    2    0    0  0.88870504223E+03  0.56718378440E+03 -0.23492864753E+04  0.25762350747E+04  0.79662535017E+02 0.  0.
         24    2    1    2    0    0 -0.12311227753E+03 -0.23157622740E+02 -0.11537297541E+03  0.18639297354E+03  0.75752945544E+02 0.  0.
        -11    1    5    5    0    0 -0.91680926608E+02 -0.36471463066E+02 -0.11595458905E+03  0.15225316628E+03  0.00000000000E+00 0.  1.
         12    1    5    5    0    0 -0.31431350922E+02  0.13313840326E+02  0.58161363281E+00  0.34139807255E+02  0.00000000000E+00 0. -1.
         11    1    4    4    0    0  0.49399288971E+03  0.30669853050E+03 -0.11999788959E+04  0.13334325308E+04  0.00000000000E+00 0. -1.
        -12    1    4    4    0    0  0.39471215252E+03  0.26048525390E+03 -0.11493075795E+04  0.12428025439E+04  0.00000000000E+00 0.  1.
          5    1    3    3  501    0 -0.70461629502E+02 -0.62853999780E+02 -0.20924443926E+03  0.22960003110E+03  0.41800000000E+01 0. -1.
         -5    1    3    3    0  501 -0.69513113520E+03 -0.48117216188E+03 -0.11521314387E+04  0.14290410312E+04  0.41800000000E+01 0. -1.
</event>
<event>
11    1  0.2450992E-009  0.1790884E+03  0.7561462E-02  0.1070383E+00
         22   -1    0    0    0    0  0.00000000000E+00  0.00000000000E+00  0.46411397479E+03  0.46411397479E+03  0.00000000000E+00 0. -1.
         22   -1    0    0    0    0 -0.00000000000E+00 -0.00000000000E+00 -0.43433940731E+03  0.43433940731E+03  0.00000000000E+00 0. -1.
         25    2    1    2    0    0  0.66831459719E+02 -0.78485577349E+02 -0.22394627001E+03  0.27645803766E+03  0.12510269732E+03 0.  0.
         24    2    1    2    0    0 -0.78648954358E+02  0.18733505354E+03 -0.98070572557E+02  0.24349993635E+03  0.91620420723E+02 0.  0.
        -24    2    1    2    0    0  0.11817494639E+02 -0.10884947619E+03  0.35179141003E+03  0.37849540809E+03  0.86681694299E+02 0.  0.
        -13    1    4    4    0    0 -0.73960184364E+02  0.63803141314E+02 -0.57735744854E+02  0.11346526317E+03  0.00000000000E+00 0.  1.
         14    1    4    4    0    0 -0.46887699942E+01  0.12353191223E+03 -0.40334827703E+02  0.13003467318E+03  0.00000000000E+00 0. -1.
         11    1    5    5    0    0  0.44973515190E+02 -0.88978187761E+02  0.22894376033E+03  0.24970979228E+03  0.00000000000E+00 0. -1.
        -12    1    5    5    0    0 -0.33156020551E+02 -0.19871288431E+02  0.12284764971E+03  0.12878561581E+03  0.00000000000E+00 0.  1.
          5    1    3    3  501    0  0.64175117187E+02 -0.84107923790E+02 -0.80981091156E+02  0.13329665425E+03  0.41800000000E+01 0.  1.
         -5    1    3    3    0  501  0.26563425322E+01  0.56223464401E+01 -0.14296517885E+03  0.14316138341E+03  0.41800000000E+01 0.  1.
</event>
<event>
11    1  0.2450992E-009  0.1286614E+03  0.7561462E-02  0.1120925E+00
         22   -1    0    0    0    0  0.00000000000E+00  0.00000000000E+00  0.20035175387E+04  0.20035175387E+04  0.00000000000E+00 0.  1.
         22   -1    0    0    0    0 -0.00000000000E+00 -0.00000000000E+00 -0.32484242585E+03  0.32484242585E+03  0.00000000000E+00 0. -1.
         25    2    1    2    0    0  0.21829106019E+02 -0.44690941902E+01 -0.15815748639E+03  0.20287441461E+03  0.12509098661E+03 0.  0.
        -24    2    1    2    0    0  0.37744559491E+01 -0.11453209571E+02 -0.13126075138E+03  0.15539588708E+03  0.82298689804E+02 0.  0.
         24    2    1    2    0    0 -0.25603561968E+02  0.15922303761E+02  0.19680933506E+04  0.19700896628E+04  0.83383336395E+02 0.  0.
        -13    1    5    5    0    0 -0.36417176903E+02  0.25391027087E+02  0.18989161775E+04  0.18994350645E+04  0.00000000000E+00 0.  1.
         14    1    5    5    0    0  0.10813614935E+02 -0.94687233260E+01  0.69177173034E+02  0.70654598282E+02  0.00000000000E+00 0. -1.
         11    1    4    4    0    0 -0.13266653256E+02  0.94447447951E+01 -0.12706719460E+03  0.12810651519E+03  0.00000000000E+00 0. -1.
        -12    1    4    4    0    0  0.17041109205E+02 -0.20897954366E+02 -0.41935567815E+01  0.27289371890E+02  0.00000000000E+00 0.  1.
          5    1    3    3  501    0  0.94545293483E+00  0.48644090219E+02 -0.18979005141E+02  0.52390995702E+02  0.41800000000E+01 0.  1.
         -5    1    3    3    0  501  0.20883653084E+02 -0.53113184409E+02 -0.13917848124E+03  0.15048341891E+03  0.41800000000E+01 0.  1.
</event>
<event>
11    1  0.2450992E-009  0.1547531E+03  0.7561462E-02  0.1092119E+00
         22   -1    0    0    0    0  0.00000000000E+00  0.00000000000E+00  0.66054344583E+03  0.66054344583E+03  0.00000000000E+00 0.  1.
         22   -1    0    0    0    0 -0.00000000000E+00 -0.00000000000E+00 -0.21545900178E+03  0.21545900178E+03  0.00000000000E+00 0.  1.
         25    2    1    2    0    0  0.77838659735E+02  0.79052806312E+02 -0.10004218910E+03  0.19484369178E+03  0.12508965381E+03 0.  0.
         24    2    1    2    0    0 -0.71949768340E+02 -0.23457943418E+02 -0.14537507280E+02  0.11313270330E+03  0.82828890876E+02 0.  0.
        -24    2    1    2    0    0 -0.58888913946E+01 -0.55594862894E+02  0.55966414044E+03  0.56802605253E+03  0.79398856663E+02 0.  0.
        -11    1    4    4    0    0 -0.38790872764E+02 -0.54418380493E+02 -0.87335266671E+01  0.67397080303E+02  0.00000000000E+00 0.  1.
         12    1    4    4    0    0 -0.33158895576E+02  0.30960437075E+02 -0.58039806127E+01  0.45735622994E+02  0.00000000000E+00 0. -1.
         13    1    5    5    0    0  0.29658357174E+01 -0.38847938165E+02  0.91131346479E+02  0.99110447443E+02  0.00000000000E+00 0. -1.
        -14    1    5    5    0    0 -0.88547271120E+01 -0.16746924729E+02  0.46853279396E+03  0.46891560509E+03  0.00000000000E+00 0.  1.
          5    1    3    3  501    0  0.27886801686E+02 -0.24197116681E+02 -0.64944401848E+02  0.74822602837E+02  0.41800000000E+01 0.  1.
         -5    1    3    3    0  501  0.49951858049E+02  0.10324992299E+03 -0.35097787256E+02  0.12002108894E+03  0.41800000000E+01 0.  1.
</event>
<event>
11    1  0.2450992E-009  0.3321193E+03  0.7561462E-02  0.9874450E-01
         22   -1    0    0    0    0  0.00000000000E+00  0.00000000000E+00  0.25364391605E+04  0.25364391605E+04  0.00000000000E+00 0. -1.
         22   -1    0    0    0    0 -0.00000000000E+00 -0.00000000000E+00 -0.71839676248E+03  0.71839676248E+03  0.00000000000E+00 0.  1.
         25    2    1    2    0    0  0.13063881319E+03 -0.28413988368E+03 -0.65285175803E+03  0.73461940204E+03  0.12509306487E+03 0.  0.
        -24    2    1    2    0    0 -0.67303485920E+02  0.21889672301E+03  0.62677195222E+03  0.67205125909E+03  0.79776438841E+02 0.  0.
         24    2    1    2    0    0 -0.63335327273E+02  0.65243160668E+02  0.18441222038E+04  0.18481652618E+04  0.81609428170E+02 0.  0.
        -11    1    5    5    0    0 -0.14960969396E+02  0.20024186966E+02  0.11104627950E+03  0.11382475504E+03  0.00000000000E+00 0.  1.
         12    1    5    5    0    0 -0.48374357877E+02  0.45218973702E+02  0.17330759243E+04  0.17343405068E+04  0.00000000000E+00 0. -1.
         11    1    4    4    0    0  0.14133339302E+02  0.68096191242E+02  0.14793746130E+03  0.16346967608E+03  0.00000000000E+00 0. -1.
        -12    1    4    4    0    0 -0.81436825222E+02  0.15080053176E+03  0.47883449092E+03  0.50858158301E+03  0.00000000000E+00 0.  1.
          5    1    3    3  501    0  0.74363008195E+02 -0.21833290310E+03 -0.34672544410E+03  0.41645542324E+03  0.41800000000E+01 0. -1.
         -5    1    3    3    0  501  0.56275804999E+02 -0.65806980578E+02 -0.30612631393E+03  0.31816397880E+03  0.41800000000E+01 0. -1.
</event>
<event>
11    1  0.2450992E-009  0.1635171E+03  0.7561462E-02  0.1083815E+00
         22   -1    0    0    0    0  0.00000000000E+00  0.00000000000E+00  0.31900154852E+03  0.31900154852E+03  0.00000000000E+00 0.  1.
         22   -1    0    0    0    0 -0.00000000000E+00 -0.00000000000E+00 -0.23312181792E+03  0.23312181792E+03  0.00000000000E+00 0. -1.
         25    2    1    2    0    0  0.36802829406E+02 -0.53953267193E+02 -0.29719177178E+02  0.14421708808E+03  0.12509970307E+03 0.  0.
        -24    2    1    2    0    0  0.10559062490E+03 -0.72671017054E+02  0.13195061045E+03  0.20058229392E+03  0.79948960267E+02 0.  0.
         24    2    1    2    0    0 -0.14239345430E+03  0.12662428425E+03 -0.16351702681E+02  0.20732398445E+03  0.80039060211E+02 0.  0.
        -11    1    5    5    0    0 -0.10314320611E+03  0.38343009283E+02 -0.10318684720E+02  0.11052231712E+03  0.00000000000E+00 0.  1.
         12    1    5    5    0    0 -0.39250248193E+02  0.88281274964E+02 -0.60330179613E+01  0.96801667332E+02  0.00000000000E+00 0. -1.
         11    1    4    4    0    0  0.52753786843E+01  0.12752412396E+02 -0.43000675888E+00  0.13807191894E+02  0.00000000000E+00 0. -1.
        -12    1    4    4    0    0  0.10031524621E+03 -0.85423429451E+02  0.13238061721E+03  0.18677510202E+03  0.00000000000E+00 0.  1.
          5    1    3    3  501    0  0.20472314568E+02 -0.49400570527E+02 -0.76985657105E+02  0.93828544868E+02  0.41800000000E+01 0. -1.
         -5    1    3    3    0  501  0.16330514838E+02 -0.45526966656E+01  0.47266479927E+02  0.50388543207E+02  0.41800000000E+01 0. -1.
</event>
<event>
11    1  0.2450992E-009  0.1966681E+03  0.7561462E-02  0.1056905E+00
         22   -1    0    0    0    0  0.00000000000E+00  0.00000000000E+00  0.21914331823E+03  0.21914331823E+03  0.00000000000E+00 0. -1.
         22   -1    0    0    0    0 -0.00000000000E+00 -0.00000000000E+00 -0.94538159042E+03  0.94538159042E+03  0.00000000000E+00 0.  1.
         25    2    1    2    0    0  0.68733996377E+02 -0.11083209344E+02 -0.73286495775E+03  0.74671756318E+03  0.12509545583E+03 0.  0.
         24    2    1    2    0    0 -0.11577247987E+03 -0.15802553096E+03 -0.49582058833E+02  0.21713710763E+03  0.79465762561E+02 0.  0.
        -24    2    1    2    0    0  0.47038483496E+02  0.16910874030E+03  0.56208744395E+02  0.20067023785E+03  0.79364579221E+02 0.  0.
        -11    1    4    4    0    0 -0.47131937308E+02 -0.41621104122E+02 -0.52584349060E+02  0.81968589037E+02  0.00000000000E+00 0.  1.
         12    1    4    4    0    0 -0.68640542565E+02 -0.11640442684E+03  0.30022902274E+01  0.13516851859E+03  0.00000000000E+00 0. -1.
         11    1    5    5    0    0  0.48444032340E+02  0.11324077692E+03  0.71907075562E+02  0.14262161597E+03  0.00000000000E+00 0. -1.
        -12    1    5    5    0    0 -0.14055488441E+01  0.55867963383E+02 -0.15698331167E+02  0.58048621875E+02  0.00000000000E+00 0.  1.
          5    1    3    3  501    0  0.30991328691E+02  0.49102067189E+02 -0.49568305867E+03  0.49908981407E+03  0.41800000000E+01 0.  1.
         -5    1    3    3    0  501  0.37742667685E+02 -0.60185276533E+02 -0.23718189908E+03  0.24762774911E+03  0.41800000000E+01 0.  1.
</event>
<event>
11    1  0.2450992E-009  0.1505342E+03  0.7561462E-02  0.1096334E+00
         22   -1    0    0    0    0  0.00000000000E+00  0.00000000000E+00  0.51387352041E+03  0.51387352041E+03  0.00000000000E+00 0. -1.
         22   -1    0    0    0    0 -0.00000000000E+00 -0.00000000000E+00 -0.16295472100E+03  0.16295472100E+03  0.00000000000E+00 0. -1.
         25    2    1    2    0    0 -0.49165563169E+02  0.63338716809E+02 -0.90609329846E+02  0.17403008896E+03  0.12508947022E+03 0.  0.
         24    2    1    2    0    0 -0.37679922399E+02  0.13609959305E+02  0.97538458695E+02  0.13093409219E+03  0.77620731948E+02 0.  0.
        -24    2    1    2    0    0  0.86845485568E+02 -0.76948676115E+02  0.34398967056E+03  0.37186406025E+03  0.80565183143E+02 0.  0.
        -11    1    4    4    0    0 -0.30310757705E+02 -0.29549393444E+02  0.37001603905E+02  0.56223014656E+02  0.00000000000E+00 0.  1.
         12    1    4    4    0    0 -0.73691646944E+01  0.43159352749E+02  0.60536854790E+02  0.74711077532E+02  0.00000000000E+00 0. -1.
         13    1    5    5    0    0  0.33199528255E+02 -0.79773044403E+02  0.18861294351E+03  0.20746274304E+03  0.00000000000E+00 0. -1.
        -14    1    5    5    0    0  0.53645957313E+02  0.28243682886E+01  0.15537672705E+03  0.16440131721E+03  0.00000000000E+00 0.  1.
          5    1    3    3  501    0 -0.16435968891E+02  0.68968429861E+02  0.64943542216E+01  0.71319243039E+02  0.41800000000E+01 0.  1.
         -5    1    3    3    0  501 -0.32729594279E+02 -0.56297130515E+01 -0.97103684068E+02  0.10271084592E+03  0.41800000000E+01 0.  1.
</event>
<event>
11    1  0.2450992E-009  0.1744866E+04  0.7561462E-02  0.8180451E-01
         22   -1    0    0    0    0  0.00000000000E+00  0.00000000000E+00  0.11572887691E+04  0.11572887691E+04  0.00000000000E+00 0.  1.
         22   -1    0    0    0    0 -0.00000000000E+00 -0.00000000000E+00 -0.38144120762E+04  0.38144120762E+04  0.00000000000E+00 0.  1.
         25    2    1    2    0    0  0.17562256658E+04 -0.77400886213E+02 -0.25329924187E+04  0.30857757026E+04  0.12506641182E+03 0.  0.
        -24    2    1    2    0    0 -0.16951208475E+04 -0.25056775655E+02 -0.22377202305E+03  0.17111940981E+04  0.63630130170E+02 0.  0.
         24    2    1    2    0    0 -0.61104818284E+02  0.10245766187E+03  0.99641134689E+02  0.17473104453E+03  0.79819865359E+02 0.  0.
        -11    1    5    5    0    0 -0.72236796592E+02  0.69356156131E+02  0.97461835529E+02  0.13973990325E+03  0.00000000000E+00 0.  1.
         12    1    5    5    0    0  0.11131978308E+02  0.33101505737E+02  0.21792991603E+01  0.34991141278E+02  0.00000000000E+00 0. -1.
         13    1    4    4    0    0 -0.45763308392E+03  0.21461212752E+02 -0.61572219221E+02  0.46225508253E+03  0.00000000000E+00 0. -1.
        -14    1    4    4    0    0 -0.12374877636E+04 -0.46517988406E+02 -0.16219980383E+03  0.12489390156E+04  0.00000000000E+00 0.  1.
          5    1    3    3  501    0  0.98018595873E+03 -0.14476450232E+02 -0.13149678320E+04  0.16401621728E+04  0.41800000000E+01 0. -1.
         -5    1    3    3    0  501  0.77603970703E+03 -0.62924435981E+02 -0.12180245867E+04  0.14456135299E+04  0.41800000000E+01 0. -1.
</event>
<event>
11    1  0.2450992E-009  0.2332405E+03  0.7561462E-02  0.1033226E+00
         22   -1    0    0    0    0  0.00000000000E+00  0.00000000000E+00  0.65809842857E+03  0.65809842857E+03  0.00000000000E+00 0. -1.
         22   -1    0    0    0    0 -0.00000000000E+00 -0.00000000000E+00 -0.10327267296E+04  0.10327267296E+04  0.00000000000E+00 0.  1.
         25    2    1    2    0    0 -0.72111806611E+02  0.18448158259E+03 -0.92957851749E+03  0.95864404378E+03  0.12509442644E+03 0.  0.
        -24    2    1    2    0    0 -0.98022745488E+02 -0.22260142191E+03  0.18659283422E+03  0.31683138493E+03  0.80033674347E+02 0.  0.
         24    2    1    2    0    0  0.17013455210E+03  0.38119839313E+02  0.36835738226E+03  0.41534972943E+03  0.80183219569E+02 0.  0.
        -11    1    5    5    0    0  0.12064971840E+02 -0.18673564947E+02  0.27555739095E+02  0.35405992860E+02  0.00000000000E+00 0.  1.
         12    1    5    5    0    0  0.15806958026E+03  0.56793404260E+02  0.34080164317E+03  0.37994373657E+03  0.00000000000E+00 0. -1.
         13    1    4    4    0    0 -0.68357240106E+02 -0.21420337106E+03  0.16950994382E+03  0.28158376641E+03  0.00000000000E+00 0. -1.
        -14    1    4    4    0    0 -0.29665505382E+02 -0.83980508453E+01  0.17082890395E+02  0.35247618526E+02  0.00000000000E+00 0.  1.
          5    1    3    3  501    0 -0.48250002050E+02  0.16075826690E+03 -0.49407553207E+03  0.52182313753E+03  0.41800000000E+01 0.  1.
         -5    1    3    3    0  501 -0.23861804561E+02  0.23723315692E+02 -0.43550298542E+03  0.43682090625E+03  0.41800000000E+01 0.  1.
</event>
<event>
11    1  0.2450992E-009  0.2111521E+03  0.7561462E-02  0.1046906E+00
         22   -1    0    0    0    0  0.00000000000E+00  0.00000000000E+00  0.42773255593E+03  0.42773255593E+03  0.00000000000E+00 0. -1.
         22   -1    0    0    0    0 -0.00000000000E+00 -0.00000000000E+00 -0.69975225493E+03  0.69975225493E+03  0.00000000000E+00 0. -1.
         25    2    1    2    0    0 -0.22933355919E+03  0.16575361580E+03 -0.44395692175E+03  0.54112190492E+03  0.12508806931E+03 0.  0.
         24    2    1    2    0    0  0.11815207113E+03 -0.44033562458E+02 -0.15288700922E+03  0.21331322149E+03  0.78925447995E+02 0.  0.
        -24    2    1    2    0    0  0.11118148806E+03 -0.12172005334E+03  0.32482423197E+03  0.37304968446E+03  0.80487208452E+02 0.  0.
        -13    1    4    4    0    0  0.60976625532E+01 -0.35818359002E+02 -0.34657313221E+02  0.50212206583E+02  0.00000000000E+00 0.  1.
         14    1    4    4    0    0  0.11205440857E+03 -0.82152034556E+01 -0.11822969600E+03  0.16310101491E+03  0.00000000000E+00 0. -1.
         13    1    5    5    0    0  0.42322389117E+02 -0.10128209189E+03  0.22155819855E+03  0.24725954401E+03  0.00000000000E+00 0. -1.
        -14    1    5    5    0    0  0.68859098946E+02 -0.20437961457E+02  0.10326603342E+03  0.12579014045E+03  0.00000000000E+00 0.  1.
          5    1    3    3  501    0 -0.22539704969E+03  0.10558579239E+03 -0.35758625939E+03  0.43570356306E+03  0.41800000000E+01 0.  1.
         -5    1    3    3    0  501 -0.39365094986E+01  0.60167823411E+02 -0.86370662365E+02  0.10541834185E+03  0.41800000000E+01 0.  1.
</event>
<event>
11    1  0.2450992E-009  0.1568893E+03  0.7561462E-02  0.1090040E+00
         22   -1    0    0    0    0  0.00000000000E+00  0.00000000000E+00  0.19801367230E+03  0.19801367230E+03  0.00000000000E+00 0.  1.
         22   -1    0    0    0    0 -0.00000000000E+00 -0.00000000000E+00 -0.29162111705E+03  0.29162111705E+03  0.00000000000E+00 0.  1.
         25    2    1    2    0    0  0.33057390583E+02 -0.55429558290E+02 -0.96891997223E+02  0.17088381909E+03  0.12509194018E+03 0.  0.
        -24    2    1    2    0    0 -0.11645498222E+03 -0.61171014909E+02 -0.19016245017E+02  0.15558916304E+03  0.80887045516E+02 0.  0.
         24    2    1    2    0    0  0.83397591642E+02  0.11660057320E+03  0.22300797487E+02  0.16316180721E+03  0.74656532217E+02 0.  0.
        -11    1    5    5    0    0  0.64489546991E+02  0.11933690579E+03  0.25335689946E+01  0.13567099073E+03  0.00000000000E+00 0.  1.
         12    1    5    5    0    0  0.18908044651E+02 -0.27363325895E+01  0.19767228492E+02  0.27490816482E+02  0.00000000000E+00 0. -1.
         13    1    4    4    0    0 -0.11910233219E+03 -0.51359717112E+02 -0.37047481766E+02  0.13489144517E+03  0.00000000000E+00 0. -1.
        -14    1    4    4    0    0  0.26473499694E+01 -0.98112977975E+01  0.18031236749E+02  0.20697717870E+02  0.00000000000E+00 0.  1.
          5    1    3    3  501    0  0.60725517677E+02 -0.46066662251E+02 -0.74481829403E+01  0.76698589930E+02  0.41800000000E+01 0. -1.
         -5    1    3    3    0  501 -0.27668127094E+02 -0.93628960384E+01 -0.89443814283E+02  0.94185229163E+02  0.41800000000E+01 0. -1.
</event>
<event>
11    1  0.2450992E-009  0.1900749E+04  0.7561462E-02  0.8108926E-01
         22   -1    0    0    0    0  0.00000000000E+00  0.00000000000E+00  0.26760229593E+04  0.26760229593E+04  0.00000000000E+00 0. -1.
         22   -1    0    0    0    0 -0.00000000000E+00 -0.00000000000E+00 -0.33752003545E+03  0.33752003545E+03  0.00000000000E+00 0. -1.
         25    2    1    2    0    0 -0.35603186719E+03  0.84586346186E+03  0.11236104108E+04  0.14561560010E+04  0.12508500106E+03 0.  0.
         24    2    1    2    0    0  0.19042660498E+03 -0.72371240011E+03  0.90457422060E+03  0.11767630147E+04  0.80589963916E+02 0.  0.
        -24    2    1    2    0    0  0.16560526222E+03 -0.12215106175E+03  0.31031829253E+03  0.38062397908E+03  0.78937861712E+02 0.  0.
        -11    1    4    4    0    0  0.55114952501E+02 -0.17329473991E+03  0.27437837211E+03  0.32916897781E+03  0.00000000000E+00 0.  1.
         12    1    4    4    0    0  0.13531165248E+03 -0.55041766020E+03  0.63019584849E+03  0.84759403692E+03  0.00000000000E+00 0. -1.
         11    1    5    5    0    0  0.12365983835E+03 -0.99962251882E+02  0.28617111633E+03  0.32738068856E+03  0.00000000000E+00 0. -1.
        -12    1    5    5    0    0  0.41945423871E+02 -0.22188809871E+02  0.24147176204E+02  0.53243290524E+02  0.00000000000E+00 0.  1.
          5    1    3    3  501    0 -0.17618883021E+03  0.40882775766E+03  0.44744621478E+03  0.63119587043E+03  0.41800000000E+01 0. -1.
         -5    1    3    3    0  501 -0.17984303698E+03  0.43703570421E+03  0.67616419598E+03  0.82496013057E+03  0.41800000000E+01 0. -1.
</event>
<event>
11    1  0.2450992E-009  0.9819041E+03  0.7561462E-02  0.8696419E-01
         22   -1    0    0    0    0  0.00000000000E+00  0.00000000000E+00  0.54592988611E+03  0.54592988611E+03  0.00000000000E+00 0.  1.
         22   -1    0    0    0    0 -0.00000000000E+00 -0.00000000000E+00 -0.44151079182E+03  0.44151079182E+03  0.00000000000E+00 0.  1.
         25    2    1    2    0    0  0.13205542688E+03 -0.26212689648E+03 -0.31060505056E+03  0.44527727522E+03  0.12508880352E+03 0.  0.
        -24    2    1    2    0    0 -0.73849572991E+02  0.11261311350E+03  0.12389330252E+03  0.20004398151E+03  0.80824324097E+02 0.  0.
         24    2    1    2    0    0 -0.58205853888E+02  0.14951378298E+03  0.29113084233E+03  0.34211942121E+03  0.80908826997E+02 0.  0.
        -11    1    5    5    0    0 -0.49365351187E+02  0.13853473794E+03  0.19129594800E+03  0.24129432491E+03  0.00000000000E+00 0.  1.
         12    1    5    5    0    0 -0.88405027005E+01  0.10979045044E+02  0.99834894329E+02  0.10082509630E+03  0.00000000000E+00 0. -1.
         11    1    4    4    0    0  0.28896539269E+01  0.48716150057E+02  0.12366162350E+02  0.50344168952E+02  0.00000000000E+00 0. -1.
        -12    1    4    4    0    0 -0.76739226918E+02  0.63896963439E+02  0.11152714017E+03  0.14969981255E+03  0.00000000000E+00 0.  1.
          5    1    3    3  501    0  0.11214399597E+03 -0.20509184798E+03 -0.16094481019E+03  0.28383031245E+03  0.41800000000E+01 0.  1.
         -5    1    3    3    0  501  0.19911430905E+02 -0.57035048498E+02 -0.14966024037E+03  0.16144696276E+03  0.41800000000E+01 0.  1.
</event>
<event>
11    1  0.2450992E-009  0.2849682E+03  0.7561462E-02  0.1006762E+00
         22   -1    0    0    0    0  0.00000000000E+00  0.00000000000E+00  0.10550738702E+04  0.10550738702E+04  0.00000000000E+00 0. -1.
         22   -1    0    0    0    0 -0.00000000000E+00 -0.00000000000E+00 -0.33030342593E+03  0.33030342593E+03  0.00000000000E+00 0.  1.
         25    2    1    2    0    0  0.47212614141E+02 -0.25263325515E+03 -0.23313158767E+03  0.36885031229E+03  0.12509045995E+03 0.  0.
         24    2    1    2    0    0 -0.39236684147E+02  0.24197225707E+03  0.75318100552E+03  0.79626116799E+03  0.81609619581E+02 0.  0.
        -24    2    1    2    0    0 -0.79759299938E+01  0.10660998074E+02  0.20472102637E+03  0.22026581580E+03  0.80181410759E+02 0.  0.
        -13    1    4    4    0    0 -0.63952855308E+02  0.19536796249E+03  0.60487722103E+03  0.63885449125E+03  0.00000000000E+00 0.  1.
         14    1    4    4    0    0  0.24716171161E+02  0.46604294584E+02  0.14830378449E+03  0.15740667674E+03  0.00000000000E+00 0. -1.
         11    1    5    5    0    0  0.18361344715E+02 -0.25195723069E+02  0.47077724103E+02  0.56464816899E+02  0.00000000000E+00 0. -1.
        -12    1    5    5    0    0 -0.26337274709E+02  0.35856721143E+02  0.15764330227E+03  0.16380099890E+03  0.00000000000E+00 0.  1.
          5    1    3    3  501    0  0.59725198101E+02 -0.60125638763E+02 -0.33550788502E+02  0.91243188973E+02  0.41800000000E+01 0.  1.
         -5    1    3    3    0  501 -0.12512583960E+02 -0.19250761639E+03 -0.19958079916E+03  0.27760712332E+03  0.41800000000E+01 0.  1.
</event>
<event>
11    1  0.2450992E-009  0.1868818E+03  0.7561462E-02  0.1064208E+00
         22   -1    0    0    0    0  0.00000000000E+00  0.00000000000E+00  0.21961556431E+03  0.21961556431E+03  0.00000000000E+00 0. -1.
         22   -1    0    0    0    0 -0.00000000000E+00 -0.00000000000E+00 -0.10175861046E+04  0.10175861046E+04  0.00000000000E+00 0. -1.
         25    2    1    2    0    0  0.12811091540E+03  0.12069184554E+03 -0.72499424608E+03  0.75646770614E+03  0.12509118817E+03 0.  0.
         24    2    1    2    0    0 -0.77811041226E+02 -0.64366112555E+02 -0.24377928253E+03  0.27595256500E+03  0.80770817493E+02 0.  0.
        -24    2    1    2    0    0 -0.50299874172E+02 -0.56325732989E+02  0.17080298835E+03  0.20478139774E+03  0.84018417560E+02 0.  0.
        -11    1    4    4    0    0  0.10360145810E+02  0.95705470733E+01 -0.22829705816E+02  0.26835116175E+02  0.00000000000E+00 0.  1.
         12    1    4    4    0    0 -0.88171187035E+02 -0.73936659628E+02 -0.22094957671E+03  0.24911744883E+03  0.00000000000E+00 0. -1.
         11    1    5    5    0    0 -0.68214086024E+02 -0.25590462577E+02  0.13956966657E+03  0.15744117992E+03  0.00000000000E+00 0. -1.
        -12    1    5    5    0    0  0.17914211852E+02 -0.30735270412E+02  0.31233321786E+02  0.47340217821E+02  0.00000000000E+00 0.  1.
          5    1    3    3  501    0  0.48260569781E+02  0.55291723912E+02 -0.10649902018E+03  0.12940545208E+03  0.41800000000E+01 0.  1.
         -5    1    3    3    0  501  0.79850345617E+02  0.65400121631E+02 -0.61849522590E+03  0.62706225406E+03  0.41800000000E+01 0.  1.
</event>
<event>
11    1  0.2450992E-009  0.1653674E+03  0.7561462E-02  0.1082135E+00
         22   -1    0    0    0    0  0.00000000000E+00  0.00000000000E+00  0.58237724602E+02  0.58237724602E+02  0.00000000000E+00 0. -1.
         22   -1    0    0    0    0 -0.00000000000E+00 -0.00000000000E+00 -0.84508241213E+03  0.84508241213E+03  0.00000000000E+00 0. -1.
         25    2    1    2    0    0 -0.12022258742E+03 -0.65854823228E+02 -0.51099180391E+03  0.54364504398E+03  0.12508789673E+03 0.  0.
         24    2    1    2    0    0  0.41215349408E+02  0.72464927627E+02 -0.15827038630E+03  0.19557707847E+03  0.79063314370E+02 0.  0.
        -24    2    1    2    0    0  0.79007238008E+02 -0.66101043986E+01 -0.11758249731E+03  0.16409801428E+03  0.82563172663E+02 0.  0.
        -11    1    4    4    0    0  0.62143311788E+02  0.61662453328E+02 -0.10104157118E+03  0.13369161700E+03  0.00000000000E+00 0.  1.
         12    1    4    4    0    0 -0.20927962380E+02  0.10802474299E+02 -0.57228815127E+02  0.61885461469E+02  0.00000000000E+00 0. -1.
         13    1    5    5    0    0  0.68831966683E+02  0.24244865478E+02 -0.10777971573E+03  0.13016190020E+03  0.00000000000E+00 0. -1.
        -14    1    5    5    0    0  0.10175271325E+02 -0.30854969876E+02 -0.98027815778E+01  0.33936114086E+02  0.00000000000E+00 0.  1.
          5    1    3    3  501    0 -0.99909615425E+02 -0.58094084966E+02 -0.50835720055E+03  0.52134572954E+03  0.41800000000E+01 0. -1.
         -5    1    3    3    0  501 -0.20312971991E+02 -0.77607382621E+01 -0.26346033644E+01  0.22299314437E+02  0.41800000000E+01 0. -1.
</event>
<event>
11    1  0.2450992E-009  0.9786404E+03  0.7561462E-02  0.8699600E-01
         22   -1    0    0    0    0  0.00000000000E+00  0.00000000000E+00  0.31768136321E+04  0.31768136321E+04  0.00000000000E+00 0.  1.
         22   -1    0    0    0    0 -0.00000000000E+00 -0.00000000000E+00 -0.70229202729E+03  0.70229202729E+03  0.00000000000E+00 0. -1.
         25    2    1    2    0    0 -0.89529555781E+01 -0.13564040922E+03 -0.11300366624E+03  0.21655480169E+03  0.12509067720E+03 0.  0.
        -24    2    1    2    0    0 -0.21199651481E+01 -0.77754856708E+03 -0.13227826741E+03  0.79235567364E+03  0.75787235679E+02 0.  0.
         24    2    1    2    0    0  0.11072920726E+02  0.91318897630E+03  0.27198035384E+04  0.28701951841E+04  0.81562189875E+02 0.  0.
        -11    1    5    5    0    0 -0.10723984801E+02  0.82433621925E+03  0.24859762706E+04  0.26191073334E+04  0.00000000000E+00 0.  1.
         12    1    5    5    0    0  0.21796905527E+02  0.88852757057E+02  0.23382726786E+03  0.25108785060E+03  0.00000000000E+00 0. -1.
         13    1    4    4    0    0 -0.37946535642E+01 -0.77547269265E+03 -0.12615453776E+03  0.78567630984E+03  0.00000000000E+00 0. -1.
        -14    1    4    4    0    0  0.16746884161E+01 -0.20758744287E+01 -0.61237296467E+01  0.66793637961E+01  0.00000000000E+00 0.  1.
          5    1    3    3  501    0 -0.65327723659E+02 -0.87637032993E+02 -0.55188552864E+02  0.12252024240E+03  0.41800000000E+01 0.  1.
         -5    1    3    3    0  501  0.56374768081E+02 -0.48003376229E+02 -0.57815113379E+02  0.94034559289E+02  0.41800000000E+01 0.  1.
</event>
<event>
11    1  0.2450992E-009  0.6763713E+03  0.7561462E-02  0.9067868E-01
         22   -1    0    0    0    0  0.00000000000E+00  0.00000000000E+00  0.84764208849E+03  0.84764208849E+03  0.00000000000E+00 0.  1.
         22   -1    0    0    0    0 -0.00000000000E+00 -0.00000000000E+00 -0.89316654263E+03  0.89316654263E+03  0.00000000000E+00 0.  1.
         25    2    1    2    0    0 -0.42694098250E+03  0.43562131345E+03 -0.17084975843E+03  0.64566416384E+03  0.12509213103E+03 0.  0.
         24    2    1    2    0    0  0.39590545985E+03 -0.63251563835E+03 -0.13169118261E+03  0.76007532179E+03  0.59621819146E+02 0.  0.
        -24    2    1    2    0    0  0.31035522646E+02  0.19689432490E+03  0.25701648690E+03  0.33506914548E+03  0.80518810687E+02 0.  0.
        -13    1    4    4    0    0  0.14888324125E+03 -0.20625530489E+03 -0.68020607578E+02  0.26331402047E+03  0.00000000000E+00 0.  1.
         14    1    4    4    0    0  0.24702221860E+03 -0.42626033346E+03 -0.63670575035E+02  0.49676130132E+03  0.00000000000E+00 0. -1.
         13    1    5    5    0    0  0.51923033330E+02  0.93271429170E+02  0.10356284216E+03  0.14873070687E+03  0.00000000000E+00 0. -1.
        -14    1    5    5    0    0 -0.20887510684E+02  0.10362289573E+03  0.15345364474E+03  0.18633843861E+03  0.00000000000E+00 0.  1.
          5    1    3    3  501    0 -0.24189524799E+03  0.31677060192E+03 -0.74366416787E+02  0.40546857041E+03  0.41800000000E+01 0. -1.
         -5    1    3    3    0  501 -0.18504573451E+03  0.11885071153E+03 -0.96483341642E+02  0.24019559344E+03  0.41800000000E+01 0. -1.
</event>
<event>
11    1  0.2450992E-009  0.2165166E+03  0.7561462E-02  0.1043422E+00
         22   -1    0    0    0    0  0.00000000000E+00  0.00000000000E+00  0.10495878676E+04  0.10495878676E+04  0.00000000000E+00 0. -1.
         22   -1    0    0    0    0 -0.00000000000E+00 -0.00000000000E+00 -0.84281340553E+03  0.84281340553E+03  0.00000000000E+00 0.  1.
         25    2    1    2    0    0  0.18736224793E+03 -0.27448413579E+02 -0.43118030483E+03  0.48725896492E+03  0.12508723460E+03 0.  0.
        -24    2    1    2    0    0 -0.14467349135E+03 -0.15436829836E+03 -0.33905966505E+03  0.40752811602E+03  0.79735301088E+02 0.  0.
         24    2    1    2    0    0 -0.42688756577E+02  0.18181671194E+03  0.97701443196E+03  0.99761419221E+03  0.76139539940E+02 0.  0.
        -13    1    5    5    0    0 -0.64156901347E+01  0.17220690770E+02  0.26355270081E+02  0.32129636343E+02  0.00000000000E+00 0.  1.
         14    1    5    5    0    0 -0.36273066442E+02  0.16459602117E+03  0.95065916188E+03  0.96548455586E+03  0.00000000000E+00 0. -1.
         11    1    4    4    0    0 -0.13228924620E+03 -0.16374523280E+03 -0.31347633036E+03  0.37759814038E+03  0.00000000000E+00 0. -1.
        -12    1    4    4    0    0 -0.12384245155E+02  0.93769344375E+01 -0.25583334694E+02  0.29929975636E+02  0.00000000000E+00 0.  1.
          5    1    3    3  501    0  0.73829809388E+02 -0.54826792496E+02 -0.28849072410E+03  0.30282204052E+03  0.41800000000E+01 0.  1.
         -5    1    3    3    0  501  0.11353243854E+03  0.27378378917E+02 -0.14268958073E+03  0.18443692440E+03  0.41800000000E+01 0.  1.
</event>
<event>
11    1  0.2450992E-009  0.7257201E+03  0.7561462E-02  0.8995238E-01
         22   -1    0    0    0    0  0.00000000000E+00  0.00000000000E+00  0.15651468899E+03  0.15651468899E+03  0.00000000000E+00 0. -1.
         22   -1    0    0    0    0 -0.00000000000E+00 -0.00000000000E+00 -0.84124637846E+03  0.84124637846E+03  0.00000000000E+00 0. -1.
         25    2    1    2    0    0  0.19388348878E+03 -0.21063948677E+03 -0.51920092614E+03  0.60595113389E+03  0.12508946537E+03 0.  0.
         24    2    1    2    0    0 -0.12539492568E+03  0.71628706658E+02 -0.13794362665E+03  0.21544428434E+03  0.80828438798E+02 0.  0.
        -24    2    1    2    0    0 -0.68488563101E+02  0.13901078011E+03 -0.27587136680E+02  0.17636564923E+03  0.79555715407E+02 0.  0.
        -13    1    4    4    0    0 -0.12119629968E+03  0.71555750014E+02 -0.14818760049E+03  0.20437302502E+03  0.00000000000E+00 0.  1.
         14    1    4    4    0    0 -0.41986259971E+01  0.72956644791E-01  0.10243973840E+02  0.11071259322E+02  0.00000000000E+00 0. -1.
         11    1    5    5    0    0 -0.56375578450E+02  0.13889485921E+03 -0.41200656068E+01  0.14995653604E+03  0.00000000000E+00 0. -1.
        -12    1    5    5    0    0 -0.12112984651E+02  0.11592090786E+00 -0.23467071073E+02  0.26409113191E+02  0.00000000000E+00 0.  1.
          5    1    3    3  501    0  0.20080262033E+03 -0.18290911862E+03 -0.40155089023E+03  0.48480720689E+03  0.41800000000E+01 0.  1.
         -5    1    3    3    0  501 -0.69191315499E+01 -0.27730368153E+02 -0.11765003591E+03  0.12114392700E+03  0.41800000000E+01 0.  1.
</event>
<event>
11    1  0.2450992E-009  0.2788835E+03  0.7561462E-02  0.1009547E+00
         22   -1    0    0    0    0  0.00000000000E+00  0.00000000000E+00  0.21197272426E+03  0.21197272426E+03  0.00000000000E+00 0.  1.
         22   -1    0    0    0    0 -0.00000000000E+00 -0.00000000000E+00 -0.12452869985E+04  0.12452869985E+04  0.00000000000E+00 0. -1.
         25    2    1    2    0    0 -0.93631632906E+02  0.24558255407E+03 -0.44389598403E+03  0.53081891208E+03  0.12508956487E+03 0.  0.
         24    2    1    2    0    0  0.47471965444E+02 -0.23889193595E+03 -0.72092504704E+03  0.76520347446E+03  0.80501486451E+02 0.  0.
        -24    2    1    2    0    0  0.46159667462E+02 -0.66906181254E+01  0.13150675686E+03  0.16123733619E+03  0.80795867532E+02 0.  0.
        -11    1    4    4    0    0  0.64074811349E+02 -0.11625175553E+03 -0.36803574012E+03  0.39124207100E+03  0.00000000000E+00 0.  1.
         12    1    4    4    0    0 -0.16602845905E+02 -0.12264018041E+03 -0.35288930691E+03  0.37396140346E+03  0.00000000000E+00 0. -1.
         13    1    5    5    0    0  0.24135425422E+02  0.31672468113E+02  0.28014286161E+02  0.48687413422E+02  0.00000000000E+00 0. -1.
        -14    1    5    5    0    0  0.22024242040E+02 -0.38363086238E+02  0.10349247070E+03  0.11254992277E+03  0.00000000000E+00 0.  1.
          5    1    3    3  501    0 -0.15179782154E+02  0.16700409558E+03 -0.33794273190E+03  0.37728444995E+03  0.41800000000E+01 0. -1.
         -5    1    3    3    0  501 -0.78451850752E+02  0.78578458492E+02 -0.10595325212E+03  0.15353446213E+03  0.41800000000E+01 0. -1.
</event>
<event>
11    1  0.2450992E-009  0.4070314E+03  0.7561462E-02  0.9629236E-01
         22   -1    0    0    0    0  0.00000000000E+00  0.00000000000E+00  0.59708622239E+03  0.59708622239E+03  0.00000000000E+00 0. -1.
         22   -1    0    0    0    0 -0.00000000000E+00 -0.00000000000E+00 -0.45639596369E+03  0.45639596369E+03  0.00000000000E+00 0. -1.
         25    2    1    2    0    0 -0.22133692253E+03  0.30399662475E+03 -0.11954144584E+03  0.41393771018E+03  0.12510111711E+03 0.  0.
        -24    2    1    2    0    0  0.14336902897E+03 -0.39575683764E+03  0.14356804886E+03  0.45235321862E+03  0.82664966801E+02 0.  0.
         24    2    1    2    0    0  0.77967893557E+02  0.91760212894E+02  0.11666365569E+03  0.18719125728E+03  0.83254003802E+02 0.  0.
        -13    1    5    5    0    0 -0.60786670431E+01 -0.94455849189E+01 -0.18875137055E+00  0.11234095182E+02  0.00000000000E+00 0.  1.
         14    1    5    5    0    0  0.84046560600E+02  0.10120579781E+03  0.11685240706E+03  0.17595716210E+03  0.00000000000E+00 0. -1.
         13    1    4    4    0    0  0.69481683543E+02 -0.18639951642E+03  0.24513654133E+02  0.20043303946E+03  0.00000000000E+00 0. -1.
        -14    1    4    4    0    0  0.73887345431E+02 -0.20935732122E+03  0.11905439473E+03  0.25192017916E+03  0.00000000000E+00 0.  1.
          5    1    3    3  501    0 -0.35644240698E+02  0.14067990873E+03 -0.72089713028E+02  0.16209795724E+03  0.41800000000E+01 0.  1.
         -5    1    3    3    0  501 -0.18569268183E+03  0.16331671602E+03 -0.47451732815E+02  0.25183975294E+03  0.41800000000E+01 0.  1.
</event>
